                               Psi4 1.3.2 release

  ==> Input File <==

--------------------------------------------------------------------------
#psi4
#
memory 32 gb

molecule  {
0 1
  N        1.7773000    -0.9706020    -0.3863220
  C        1.0080060     0.0962300     0.0271750
  C       -0.4507830     0.0432590     0.0183630
  C        1.8938950     1.0905280     0.4329840
  C       -1.1961700     1.1987140    -0.2700270
  C       -1.1363230    -1.1523850     0.2941990
  C        3.1117900    -0.6733570    -0.2771830
  C        3.1699191     0.5252353     0.2026411
  C       -2.5895110     1.1608830    -0.2689850
  C       -2.5303830    -1.1922690     0.2696200
  C       -3.2626170    -0.0361670    -0.0095020
  H        1.3994420    -1.7974010    -0.8317830
  H        1.6076040     2.0422160     0.8629880
  H       -0.6712930     2.1216380    -0.5070250
  H       -0.5746270    -2.0444360     0.5668450
  H        3.8716190    -1.3816710    -0.5776140
  H        4.1315670     1.1252340     0.4699550
  H       -3.1528190     2.0640850    -0.4925600
  H       -3.0466780    -2.1247140     0.4868240
  H       -4.3493910    -0.0663800    -0.0199320
units angstrom
no_reorient  #important for SAPT in psi4, default
symmetry c1  #important for SAPT in psi4, default
}

set PROPERTIES_ORIGIN ["COM"]
properties('MP2/aug-cc-pvtz', properties = ['dipole'])
--------------------------------------------------------------------------

    Molecular point group: c1
  Charge       = 0
  Multiplicity = 1
  Basis Set: AUG-CC-PVTZ
    Blend: AUG-CC-PVTZ
  Basis Set: (AUG-CC-PVTZ AUX)
    Blend: AUG-CC-PVTZ-JKFIT

    Orbital Energies [Eh]
    ---------------------

    Doubly Occupied:

       1A    -15.600386     2A    -11.263859     3A    -11.252870
       4A    -11.242512     5A    -11.242354     6A    -11.241179
       7A    -11.240947     8A    -11.238782     9A    -11.238466
      10A    -11.210218    11A    -11.207837    12A     -1.298348
      13A     -1.156872    14A     -1.050855    15A     -1.047290
      16A     -1.017301    17A     -0.966636    18A     -0.841325
      19A     -0.832056    20A     -0.780506    21A     -0.759258
      22A     -0.736849    23A     -0.680781    24A     -0.633628
      25A     -0.630012    26A     -0.591767    27A     -0.586533
      28A     -0.582881    29A     -0.571813    30A     -0.561976
      31A     -0.523323    32A     -0.505335    33A     -0.498191
      34A     -0.490058    35A     -0.365664    36A     -0.351684
      37A     -0.341688    38A     -0.281018

  @DF-RHF Final Energy:  -438.49702527627369

   => Energetics <=

    Nuclear Repulsion Energy =            538.5888304875021504
    One-Electron Energy =               -1660.8455940863827891
    Two-Electron Energy =                 683.7597383226070633
    Total Energy =                       -438.4970252762736891
  Basis Set: (AUG-CC-PVTZ AUX)
    Blend: AUG-CC-PVTZ-RI
    Molecular point group: c1

    Geometry (in Angstrom), charge = 0, multiplicity = 1:

       Center              X                  Y                   Z               Mass
    ------------   -----------------  -----------------  -----------------  -----------------
         N            1.775127513151    -0.964134934308    -0.383380103897    14.003074004430
         C            1.005833513151     0.102697065692     0.030116896103    12.000000000000
         C           -0.452955486849     0.049726065692     0.021304896103    12.000000000000
         C            1.891722513151     1.096995065692     0.435925896103    12.000000000000
         C           -1.198342486849     1.205181065692    -0.267085103897    12.000000000000
         C           -1.138495486849    -1.145917934308     0.297140896103    12.000000000000
         C            3.109617513151    -0.666889934308    -0.274241103897    12.000000000000
         C            3.167746613151     0.531702365692     0.205582996103    12.000000000000
         C           -2.591683486849     1.167350065692    -0.266043103897    12.000000000000
         C           -2.532555486849    -1.185801934308     0.272561896103    12.000000000000
         C           -3.264789486849    -0.029699934308    -0.006560103897    12.000000000000
         H            1.397269513151    -1.790933934308    -0.828841103897     1.007825032230
         H            1.605431513151     2.048683065692     0.865929896103     1.007825032230
         H           -0.673465486849     2.128105065692    -0.504083103897     1.007825032230
         H           -0.576799486849    -2.037968934308     0.569786896103     1.007825032230
         H            3.869446513151    -1.375203934308    -0.574672103897     1.007825032230
         H            4.129394513151     1.131701065692     0.472896896103     1.007825032230
         H           -3.154991486849     2.070552065692    -0.489618103897     1.007825032230
         H           -3.048850486849    -2.118246934308     0.489765896103     1.007825032230
         H           -4.351563486849    -0.059912934308    -0.016990103897     1.007825032230

  Basis Set: AUG-CC-PVTZ
    Blend: AUG-CC-PVTZ
  Basis Set: (AUG-CC-PVTZ AUX)
    Blend: AUG-CC-PVTZ-JKFIT
	 Reference Energy          =    -438.4970252762736891 [Eh]
	 Singles Energy            =      -0.0000000000000000 [Eh]
	 Same-Spin Energy          =      -0.4944536215837960 [Eh]
	 Opposite-Spin Energy      =      -1.5238823728809270 [Eh]
	 Correlation Energy        =      -2.0183359944647230 [Eh]
	 Total Energy              =    -440.5153612707384241 [Eh]

	 ================> DF-SCS-MP2 Energies <==================
	-----------------------------------------------------------
	 SCS Same-Spin Scale       =       0.3333333333333333 [-]
	 SCS Opposite-Spin Scale   =       1.2000000000000000 [-]
	 SCS Same-Spin Energy      =      -0.1648178738612653 [Eh]
	 SCS Opposite-Spin Energy  =      -1.8286588474571124 [Eh]
	 SCS Correlation Energy    =      -1.9934767213183777 [Eh]
	 SCS Total Energy          =    -440.4905019975920482 [Eh]
	-----------------------------------------------------------

  Dipole Moment: [D]
     X:    -0.4713      Y:    -1.3089      Z:    -0.6376     Total:     1.5303

*** Psi4 exiting successfully. Buy a developer a beer!
