                               Psi4 1.3.2 release

  ==> Input File <==

--------------------------------------------------------------------------
#psi4
#
memory 32 gb

molecule  {
0 1
  N        1.7773000    -0.9706020    -0.3863220
  C        1.0080060     0.0962300     0.0271750
  C       -0.4507830     0.0432590     0.0183630
  C        1.9031686     1.1115590     0.4419938
  C       -1.1961700     1.1987140    -0.2700270
  C       -1.1363230    -1.1523850     0.2941990
  C        3.1117900    -0.6733570    -0.2771830
  C        3.2093430     0.6071710     0.2411150
  C       -2.5895110     1.1608830    -0.2689850
  C       -2.5303830    -1.1922690     0.2696200
  C       -3.2626170    -0.0361670    -0.0095020
  H        1.3994420    -1.7974010    -0.8317830
  H        1.6076040     2.0422160     0.8629880
  H       -0.6712930     2.1216380    -0.5070250
  H       -0.5746270    -2.0444360     0.5668450
  H        3.8716190    -1.3816710    -0.5776140
  H        4.1315670     1.1252340     0.4699550
  H       -3.1528190     2.0640850    -0.4925600
  H       -3.0466780    -2.1247140     0.4868240
  H       -4.3493910    -0.0663800    -0.0199320
units angstrom
no_reorient  #important for SAPT in psi4, default
symmetry c1  #important for SAPT in psi4, default
}

set PROPERTIES_ORIGIN ["COM"]
properties('MP2/aug-cc-pvtz', properties = ['dipole'])
--------------------------------------------------------------------------

    Molecular point group: c1
  Charge       = 0
  Multiplicity = 1
  Basis Set: AUG-CC-PVTZ
    Blend: AUG-CC-PVTZ
  Basis Set: (AUG-CC-PVTZ AUX)
    Blend: AUG-CC-PVTZ-JKFIT

    Orbital Energies [Eh]
    ---------------------

    Doubly Occupied:

       1A    -15.610131     2A    -11.265165     3A    -11.256155
       4A    -11.253267     5A    -11.242056     6A    -11.240761
       7A    -11.240506     8A    -11.237948     9A    -11.237676
      10A    -11.214936    11A    -11.213844    12A     -1.293346
      13A     -1.156180    14A     -1.047945    15A     -1.042739
      16A     -1.016818    17A     -0.957552    18A     -0.838341
      19A     -0.832164    20A     -0.789315    21A     -0.766752
      22A     -0.735040    23A     -0.679635    24A     -0.633389
      25A     -0.629555    26A     -0.594714    27A     -0.588921
      28A     -0.583386    29A     -0.568351    30A     -0.549847
      31A     -0.538850    32A     -0.504638    33A     -0.500107
      34A     -0.493816    35A     -0.362662    36A     -0.350682
      37A     -0.341405    38A     -0.271206

  @DF-RHF Final Energy:  -438.50716121832198

   => Energetics <=

    Nuclear Repulsion Energy =            536.3531632704898584
    One-Electron Energy =               -1656.3610488705696753
    Two-Electron Energy =                 681.5007243817578910
    Total Energy =                       -438.5071612183219258
  Basis Set: (AUG-CC-PVTZ AUX)
    Blend: AUG-CC-PVTZ-RI
    Molecular point group: c1

    Geometry (in Angstrom), charge = 0, multiplicity = 1:

       Center              X                  Y                   Z               Mass
    ------------   -----------------  -----------------  -----------------  -----------------
         N            1.771043108961    -0.972771057741    -0.387362703070    14.003074004430
         C            1.001749108961     0.094060942259     0.026134296930    12.000000000000
         C           -0.457039891039     0.041089942259     0.017322296930    12.000000000000
         C            1.896911708961     1.109389942259     0.440953096930    12.000000000000
         C           -1.202426891039     1.196544942259    -0.271067703070    12.000000000000
         C           -1.142579891039    -1.154554057741     0.293158296930    12.000000000000
         C            3.105533108961    -0.675526057741    -0.278223703070    12.000000000000
         C            3.203086108961     0.605001942259     0.240074296930    12.000000000000
         C           -2.595767891039     1.158713942259    -0.270025703070    12.000000000000
         C           -2.536639891039    -1.194438057741     0.268579296930    12.000000000000
         C           -3.268873891039    -0.038336057741    -0.010542703070    12.000000000000
         H            1.393185108961    -1.799570057741    -0.832823703070     1.007825032230
         H            1.601347108961     2.040046942259     0.861947296930     1.007825032230
         H           -0.677549891039     2.119468942259    -0.508065703070     1.007825032230
         H           -0.580883891039    -2.046605057741     0.565804296930     1.007825032230
         H            3.865362108961    -1.383840057741    -0.578654703070     1.007825032230
         H            4.125310108961     1.123064942259     0.468914296930     1.007825032230
         H           -3.159075891039     2.061915942259    -0.493600703070     1.007825032230
         H           -3.052934891039    -2.126883057741     0.485783296930     1.007825032230
         H           -4.355647891039    -0.068549057741    -0.020972703070     1.007825032230

  Basis Set: AUG-CC-PVTZ
    Blend: AUG-CC-PVTZ
  Basis Set: (AUG-CC-PVTZ AUX)
    Blend: AUG-CC-PVTZ-JKFIT
	 Reference Energy          =    -438.5071612183219827 [Eh]
	 Singles Energy            =      -0.0000000000000000 [Eh]
	 Same-Spin Energy          =      -0.4955485150403638 [Eh]
	 Opposite-Spin Energy      =      -1.5258436698094886 [Eh]
	 Correlation Energy        =      -2.0213921848498524 [Eh]
	 Total Energy              =    -440.5285534031718271 [Eh]

	 ================> DF-SCS-MP2 Energies <==================
	-----------------------------------------------------------
	 SCS Same-Spin Scale       =       0.3333333333333333 [-]
	 SCS Opposite-Spin Scale   =       1.2000000000000000 [-]
	 SCS Same-Spin Energy      =      -0.1651828383467879 [Eh]
	 SCS Opposite-Spin Energy  =      -1.8310124037713862 [Eh]
	 SCS Correlation Energy    =      -1.9961952421181741 [Eh]
	 SCS Total Energy          =    -440.5033564604401590 [Eh]
	-----------------------------------------------------------

  Dipole Moment: [D]
     X:    -0.4369      Y:    -1.3317      Z:    -0.6515     Total:     1.5456

*** Psi4 exiting successfully. Buy a developer a beer!
