                               Psi4 1.4a3.dev225

  ==> Input File <==

--------------------------------------------------------------------------
#psi4
#
memory 32 gb

molecule  {
0 1
  N        1.7773000    -0.9706020    -0.3863220
  C        1.0080060     0.0962300     0.0271750
  C       -0.4307965     0.0439847     0.0184837
  C        1.8938950     1.0905280     0.4329840
  C       -1.1961700     1.1987140    -0.2700270
  C       -1.1363230    -1.1523850     0.2941990
  C        3.1117900    -0.6733570    -0.2771830
  C        3.2093430     0.6071710     0.2411150
  C       -2.5895110     1.1608830    -0.2689850
  C       -2.5303830    -1.1922690     0.2696200
  C       -3.2626170    -0.0361670    -0.0095020
  H        1.3994420    -1.7974010    -0.8317830
  H        1.6076040     2.0422160     0.8629880
  H       -0.6712930     2.1216380    -0.5070250
  H       -0.5746270    -2.0444360     0.5668450
  H        3.8716190    -1.3816710    -0.5776140
  H        4.1315670     1.1252340     0.4699550
  H       -3.1528190     2.0640850    -0.4925600
  H       -3.0466780    -2.1247140     0.4868240
  H       -4.3493910    -0.0663800    -0.0199320
units angstrom
no_reorient  #important for SAPT in psi4, default
symmetry c1  #important for SAPT in psi4, default
}

set PROPERTIES_ORIGIN ["COM"]
properties('MP2/aug-cc-pvtz', properties = ['dipole'])
--------------------------------------------------------------------------

    Molecular point group: c1
  Charge       = 0
  Multiplicity = 1
  Basis Set: AUG-CC-PVTZ
    Blend: AUG-CC-PVTZ
  Basis Set: (AUG-CC-PVTZ AUX)
    Blend: AUG-CC-PVTZ-JKFIT

    Orbital Energies [Eh]
    ---------------------

    Doubly Occupied:

       1A    -15.608691     2A    -11.261309     3A    -11.257488
       4A    -11.253704     5A    -11.242154     6A    -11.240958
       7A    -11.240492     8A    -11.238605     9A    -11.237650
      10A    -11.214638    11A    -11.213552    12A     -1.295067
      13A     -1.154128    14A     -1.050638    15A     -1.043720
      16A     -1.015501    17A     -0.959085    18A     -0.839836
      19A     -0.830850    20A     -0.789008    21A     -0.765574
      22A     -0.735836    23A     -0.680209    24A     -0.633351
      25A     -0.628873    26A     -0.593782    27A     -0.587997
      28A     -0.583674    29A     -0.570207    30A     -0.549997
      31A     -0.537585    32A     -0.505562    33A     -0.500839
      34A     -0.491575    35A     -0.364038    36A     -0.350752
      37A     -0.340799    38A     -0.272099

  @DF-RHF Final Energy:  -438.50767585549551

   => Energetics <=

    Nuclear Repulsion Energy =            536.8276916000315850
    One-Electron Energy =               -1657.3110954699448030
    Two-Electron Energy =                 681.9757280144177685
    Total Energy =                       -438.5076758554954495
  Basis Set: (AUG-CC-PVTZ AUX)
    Blend: AUG-CC-PVTZ-RI
    Molecular point group: c1

    Geometry (in Angstrom), charge = 0, multiplicity = 1:

       Center              X                  Y                   Z               Mass
    ------------   -----------------  -----------------  -----------------  -----------------
         N            1.770144586170    -0.971067991826    -0.386617147810    14.003074004430
         C            1.000850586170     0.095764008174     0.026879852190    12.000000000000
         C           -0.437951913830     0.043518708174     0.018188552190    12.000000000000
         C            1.886739586170     1.090062008174     0.432688852190    12.000000000000
         C           -1.203325413830     1.198248008174    -0.270322147810    12.000000000000
         C           -1.143478413830    -1.152850991826     0.293903852190    12.000000000000
         C            3.104634586170    -0.673822991826    -0.277478147810    12.000000000000
         C            3.202187586170     0.606705008174     0.240819852190    12.000000000000
         C           -2.596666413830     1.160417008174    -0.269280147810    12.000000000000
         C           -2.537538413830    -1.192734991826     0.269324852190    12.000000000000
         C           -3.269772413830    -0.036632991826    -0.009797147810    12.000000000000
         H            1.392286586170    -1.797866991826    -0.832078147810     1.007825032230
         H            1.600448586170     2.041750008174     0.862692852190     1.007825032230
         H           -0.678448413830     2.121172008174    -0.507320147810     1.007825032230
         H           -0.581782413830    -2.044901991826     0.566549852190     1.007825032230
         H            3.864463586170    -1.382136991826    -0.577909147810     1.007825032230
         H            4.124411586170     1.124768008174     0.469659852190     1.007825032230
         H           -3.159974413830     2.063619008174    -0.492855147810     1.007825032230
         H           -3.053833413830    -2.125179991826     0.486528852190     1.007825032230
         H           -4.356546413830    -0.066845991826    -0.020227147810     1.007825032230

  Basis Set: AUG-CC-PVTZ
    Blend: AUG-CC-PVTZ
  Basis Set: (AUG-CC-PVTZ AUX)
    Blend: AUG-CC-PVTZ-JKFIT
	 Reference Energy          =    -438.5076758554955063 [Eh]
	 Singles Energy            =      -0.0000000000000000 [Eh]
	 Same-Spin Energy          =      -0.4955776171449545 [Eh]
	 Opposite-Spin Energy      =      -1.5258224478404829 [Eh]
	 Correlation Energy        =      -2.0214000649854373 [Eh]
	 Total Energy              =    -440.5290759204809206 [Eh]

	 ================> DF-SCS-MP2 Energies <==================
	-----------------------------------------------------------
	 SCS Same-Spin Scale       =       0.3333333333333333 [-]
	 SCS Opposite-Spin Scale   =       1.2000000000000000 [-]
	 SCS Same-Spin Energy      =      -0.1651925390483182 [Eh]
	 SCS Opposite-Spin Energy  =      -1.8309869374085794 [Eh]
	 SCS Correlation Energy    =      -1.9961794764568976 [Eh]
	 SCS Total Energy          =    -440.5038553319524226 [Eh]
	-----------------------------------------------------------

  Dipole Moment: [D]
     X:    -0.3790      Y:    -1.3156      Z:    -0.6458     Total:     1.5138

*** Psi4 exiting successfully. Buy a developer a beer!
