                               Psi4 1.4a3.dev225

  ==> Input File <==

--------------------------------------------------------------------------
#psi4
#
memory 32 gb

molecule  {
0 1
  N        1.7773000    -0.9706020    -0.3863220
  C        1.0080060     0.0962300     0.0271750
  C       -0.4507830     0.0432590     0.0183630
  C        1.8811682     1.0762437     0.4271541
  C       -1.1961700     1.1987140    -0.2700270
  C       -1.1363230    -1.1523850     0.2941990
  C        3.1117900    -0.6733570    -0.2771830
  C        3.2093430     0.6071710     0.2411150
  C       -2.5895110     1.1608830    -0.2689850
  C       -2.5303830    -1.1922690     0.2696200
  C       -3.2626170    -0.0361670    -0.0095020
  H        1.3994420    -1.7974010    -0.8317830
  H        1.6076040     2.0422160     0.8629880
  H       -0.6712930     2.1216380    -0.5070250
  H       -0.5746270    -2.0444360     0.5668450
  H        3.8716190    -1.3816710    -0.5776140
  H        4.1315670     1.1252340     0.4699550
  H       -3.1528190     2.0640850    -0.4925600
  H       -3.0466780    -2.1247140     0.4868240
  H       -4.3493910    -0.0663800    -0.0199320
units angstrom
no_reorient  #important for SAPT in psi4, default
symmetry c1  #important for SAPT in psi4, default
}

set PROPERTIES_ORIGIN ["COM"]
properties('MP2/aug-cc-pvtz', properties = ['dipole'])
--------------------------------------------------------------------------

    Molecular point group: c1
  Charge       = 0
  Multiplicity = 1
  Basis Set: AUG-CC-PVTZ
    Blend: AUG-CC-PVTZ
  Basis Set: (AUG-CC-PVTZ AUX)
    Blend: AUG-CC-PVTZ-JKFIT

    Orbital Energies [Eh]
    ---------------------

    Doubly Occupied:

       1A    -15.606570     2A    -11.259767     3A    -11.257128
       4A    -11.253089     5A    -11.241975     6A    -11.240692
       7A    -11.240449     8A    -11.237943     9A    -11.237669
      10A    -11.213563    11A    -11.212147    12A     -1.294660
      13A     -1.156139    14A     -1.049905    15A     -1.042120
      16A     -1.016714    17A     -0.960850    18A     -0.837529
      19A     -0.832260    20A     -0.787798    21A     -0.764049
      22A     -0.735514    23A     -0.680072    24A     -0.633212
      25A     -0.629805    26A     -0.592959    27A     -0.588790
      28A     -0.582500    29A     -0.570151    30A     -0.551871
      31A     -0.532748    32A     -0.504519    33A     -0.501007
      34A     -0.494633    35A     -0.364274    36A     -0.349032
      37A     -0.341279    38A     -0.275635

  @DF-RHF Final Energy:  -438.50922950634094

   => Energetics <=

    Nuclear Repulsion Energy =            537.1823065656736844
    One-Electron Energy =               -1658.0410406059452271
    Two-Electron Energy =                 682.3495045339304852
    Total Energy =                       -438.5092295063409438
  Basis Set: (AUG-CC-PVTZ AUX)
    Blend: AUG-CC-PVTZ-RI
    Molecular point group: c1

    Geometry (in Angstrom), charge = 0, multiplicity = 1:

       Center              X                  Y                   Z               Mass
    ------------   -----------------  -----------------  -----------------  -----------------
         N            1.772888347956    -0.969809058475    -0.386118053286    14.003074004430
         C            1.003594347956     0.097022941525     0.027378946714    12.000000000000
         C           -0.455194652044     0.044051941525     0.018566946714    12.000000000000
         C            1.876756547956     1.077036641525     0.427358046714    12.000000000000
         C           -1.200581652044     1.199506941525    -0.269823053286    12.000000000000
         C           -1.140734652044    -1.151592058475     0.294402946714    12.000000000000
         C            3.107378347956    -0.672564058475    -0.276979053286    12.000000000000
         C            3.204931347956     0.607963941525     0.241318946714    12.000000000000
         C           -2.593922652044     1.161675941525    -0.268781053286    12.000000000000
         C           -2.534794652044    -1.191476058475     0.269823946714    12.000000000000
         C           -3.267028652044    -0.035374058475    -0.009298053286    12.000000000000
         H            1.395030347956    -1.796608058475    -0.831579053286     1.007825032230
         H            1.603192347956     2.043008941525     0.863191946714     1.007825032230
         H           -0.675704652044     2.122430941525    -0.506821053286     1.007825032230
         H           -0.579038652044    -2.043643058475     0.567048946714     1.007825032230
         H            3.867207347956    -1.380878058475    -0.577410053286     1.007825032230
         H            4.127155347956     1.126026941525     0.470158946714     1.007825032230
         H           -3.157230652044     2.064877941525    -0.492356053286     1.007825032230
         H           -3.051089652044    -2.123921058475     0.487027946714     1.007825032230
         H           -4.353802652044    -0.065587058475    -0.019728053286     1.007825032230

  Basis Set: AUG-CC-PVTZ
    Blend: AUG-CC-PVTZ
  Basis Set: (AUG-CC-PVTZ AUX)
    Blend: AUG-CC-PVTZ-JKFIT
	 Reference Energy          =    -438.5092295063409438 [Eh]
	 Singles Energy            =      -0.0000000000000000 [Eh]
	 Same-Spin Energy          =      -0.4949362892929034 [Eh]
	 Opposite-Spin Energy      =      -1.5248971563846552 [Eh]
	 Correlation Energy        =      -2.0198334456775586 [Eh]
	 Total Energy              =    -440.5290629520184780 [Eh]

	 ================> DF-SCS-MP2 Energies <==================
	-----------------------------------------------------------
	 SCS Same-Spin Scale       =       0.3333333333333333 [-]
	 SCS Opposite-Spin Scale   =       1.2000000000000000 [-]
	 SCS Same-Spin Energy      =      -0.1649787630976345 [Eh]
	 SCS Opposite-Spin Energy  =      -1.8298765876615861 [Eh]
	 SCS Correlation Energy    =      -1.9948553507592206 [Eh]
	 SCS Total Energy          =    -440.5040848571001675 [Eh]
	-----------------------------------------------------------

  Dipole Moment: [D]
     X:    -0.4647      Y:    -1.3096      Z:    -0.6446     Total:     1.5319

*** Psi4 exiting successfully. Buy a developer a beer!
