                               Psi4 1.3.2 release

  ==> Input File <==

--------------------------------------------------------------------------
#psi4
#
memory 32 gb

molecule  {
0 1
  N        1.7773000    -0.9706020    -0.3863220
  C        1.0268833     0.0820328     0.0214782
  C       -0.4507830     0.0432590     0.0183630
  C        1.8938950     1.0905280     0.4329840
  C       -1.1961700     1.1987140    -0.2700270
  C       -1.1363230    -1.1523850     0.2941990
  C        3.1117900    -0.6733570    -0.2771830
  C        3.2093430     0.6071710     0.2411150
  C       -2.5895110     1.1608830    -0.2689850
  C       -2.5303830    -1.1922690     0.2696200
  C       -3.2626170    -0.0361670    -0.0095020
  H        1.3994420    -1.7974010    -0.8317830
  H        1.6076040     2.0422160     0.8629880
  H       -0.6712930     2.1216380    -0.5070250
  H       -0.5746270    -2.0444360     0.5668450
  H        3.8716190    -1.3816710    -0.5776140
  H        4.1315670     1.1252340     0.4699550
  H       -3.1528190     2.0640850    -0.4925600
  H       -3.0466780    -2.1247140     0.4868240
  H       -4.3493910    -0.0663800    -0.0199320
units angstrom
no_reorient  #important for SAPT in psi4, default
symmetry c1  #important for SAPT in psi4, default
}

set PROPERTIES_ORIGIN ["COM"]
properties('MP2/aug-cc-pvtz', properties = ['dipole'])
--------------------------------------------------------------------------

    Molecular point group: c1
  Charge       = 0
  Multiplicity = 1
  Basis Set: AUG-CC-PVTZ
    Blend: AUG-CC-PVTZ
  Basis Set: (AUG-CC-PVTZ AUX)
    Blend: AUG-CC-PVTZ-JKFIT

    Orbital Energies [Eh]
    ---------------------

    Doubly Occupied:

       1A    -15.609519     2A    -11.261969     3A    -11.254607
       4A    -11.254298     5A    -11.241978     6A    -11.240825
       7A    -11.240413     8A    -11.238087     9A    -11.237774
      10A    -11.213761    11A    -11.211254    12A     -1.301163
      13A     -1.155589    14A     -1.047464    15A     -1.043430
      16A     -1.016819    17A     -0.959873    18A     -0.835671
      19A     -0.831972    20A     -0.790967    21A     -0.767617
      22A     -0.734513    23A     -0.679755    24A     -0.632757
      25A     -0.629308    26A     -0.596087    27A     -0.589555
      28A     -0.583595    29A     -0.571226    30A     -0.550160
      31A     -0.535725    32A     -0.504734    33A     -0.499135
      34A     -0.493820    35A     -0.361571    36A     -0.351079
      37A     -0.341330    38A     -0.274150

  @DF-RHF Final Energy:  -438.50913239297262

   => Energetics <=

    Nuclear Repulsion Energy =            536.9211562621040912
    One-Electron Energy =               -1657.4934754361545401
    Two-Electron Energy =                 682.0631867810777749
    Total Energy =                       -438.5091323929725604
  Basis Set: (AUG-CC-PVTZ AUX)
    Blend: AUG-CC-PVTZ-RI
    Molecular point group: c1

    Geometry (in Angstrom), charge = 0, multiplicity = 1:

       Center              X                  Y                   Z               Mass
    ------------   -----------------  -----------------  -----------------  -----------------
         N            1.770237618073    -0.969816363811    -0.386129216779    14.003074004430
         C            1.019820918073     0.082818436189     0.021670983221    12.000000000000
         C           -0.457845381927     0.044044636189     0.018555783221    12.000000000000
         C            1.886832618073     1.091313636189     0.433176783221    12.000000000000
         C           -1.203232381927     1.199499636189    -0.269834216779    12.000000000000
         C           -1.143385381927    -1.151599363811     0.294391783221    12.000000000000
         C            3.104727618073    -0.672571363811    -0.276990216779    12.000000000000
         C            3.202280618073     0.607956636189     0.241307783221    12.000000000000
         C           -2.596573381927     1.161668636189    -0.268792216779    12.000000000000
         C           -2.537445381927    -1.191483363811     0.269812783221    12.000000000000
         C           -3.269679381927    -0.035381363811    -0.009309216779    12.000000000000
         H            1.392379618073    -1.796615363811    -0.831590216779     1.007825032230
         H            1.600541618073     2.043001636189     0.863180783221     1.007825032230
         H           -0.678355381927     2.122423636189    -0.506832216779     1.007825032230
         H           -0.581689381927    -2.043650363811     0.567037783221     1.007825032230
         H            3.864556618073    -1.380885363811    -0.577421216779     1.007825032230
         H            4.124504618073     1.126019636189     0.470147783221     1.007825032230
         H           -3.159881381927     2.064870636189    -0.492367216779     1.007825032230
         H           -3.053740381927    -2.123928363811     0.487016783221     1.007825032230
         H           -4.356453381927    -0.065594363811    -0.019739216779     1.007825032230

  Basis Set: AUG-CC-PVTZ
    Blend: AUG-CC-PVTZ
  Basis Set: (AUG-CC-PVTZ AUX)
    Blend: AUG-CC-PVTZ-JKFIT
	 Reference Energy          =    -438.5091323929726173 [Eh]
	 Singles Energy            =      -0.0000000000000000 [Eh]
	 Same-Spin Energy          =      -0.4950017053872975 [Eh]
	 Opposite-Spin Energy      =      -1.5247282740747261 [Eh]
	 Correlation Energy        =      -2.0197299794620234 [Eh]
	 Total Energy              =    -440.5288623724346166 [Eh]

	 ================> DF-SCS-MP2 Energies <==================
	-----------------------------------------------------------
	 SCS Same-Spin Scale       =       0.3333333333333333 [-]
	 SCS Opposite-Spin Scale   =       1.2000000000000000 [-]
	 SCS Same-Spin Energy      =      -0.1650005684624325 [Eh]
	 SCS Opposite-Spin Energy  =      -1.8296739288896713 [Eh]
	 SCS Correlation Energy    =      -1.9946744973521038 [Eh]
	 SCS Total Energy          =    -440.5038068903247108 [Eh]
	-----------------------------------------------------------

  Dipole Moment: [D]
     X:    -0.4647      Y:    -1.3398      Z:    -0.6589     Total:     1.5637

*** Psi4 exiting successfully. Buy a developer a beer!
