                               Psi4 1.3.2 release

  ==> Input File <==

--------------------------------------------------------------------------
#psi4
#
memory 32 gb

molecule  {
0 1
  N        1.7773000    -0.9706020    -0.3863220
  C        1.0080060     0.0962300     0.0271750
  C       -0.4507830     0.0432590     0.0183630
  C        1.7666267     0.9476855     0.3746848
  C       -1.1961700     1.1987140    -0.2700270
  C       -1.1363230    -1.1523850     0.2941990
  C        3.1117900    -0.6733570    -0.2771830
  C        3.2093430     0.6071710     0.2411150
  C       -2.5895110     1.1608830    -0.2689850
  C       -2.5303830    -1.1922690     0.2696200
  C       -3.2626170    -0.0361670    -0.0095020
  H        1.3994420    -1.7974010    -0.8317830
  H        1.6076040     2.0422160     0.8629880
  H       -0.6712930     2.1216380    -0.5070250
  H       -0.5746270    -2.0444360     0.5668450
  H        3.8716190    -1.3816710    -0.5776140
  H        4.1315670     1.1252340     0.4699550
  H       -3.1528190     2.0640850    -0.4925600
  H       -3.0466780    -2.1247140     0.4868240
  H       -4.3493910    -0.0663800    -0.0199320
units angstrom
no_reorient  #important for SAPT in psi4, default
symmetry c1  #important for SAPT in psi4, default
}

set PROPERTIES_ORIGIN ["COM"]
properties('MP2/aug-cc-pvtz', properties = ['dipole'])
--------------------------------------------------------------------------

    Molecular point group: c1
  Charge       = 0
  Multiplicity = 1
  Basis Set: AUG-CC-PVTZ
    Blend: AUG-CC-PVTZ
  Basis Set: (AUG-CC-PVTZ AUX)
    Blend: AUG-CC-PVTZ-JKFIT

    Orbital Energies [Eh]
    ---------------------

    Doubly Occupied:

       1A    -15.592124     2A    -11.261690     3A    -11.252124
       4A    -11.241857     5A    -11.240684     6A    -11.240464
       7A    -11.238360     8A    -11.237959     9A    -11.235068
      10A    -11.213873    11A    -11.203939    12A     -1.303172
      13A     -1.156392    14A     -1.065960    15A     -1.035485
      16A     -1.016317    17A     -0.976076    18A     -0.837607
      19A     -0.832625    20A     -0.785371    21A     -0.750964
      22A     -0.737455    23A     -0.682328    24A     -0.635807
      25A     -0.630195    26A     -0.591576    27A     -0.591247
      28A     -0.582384    29A     -0.575194    30A     -0.568235
      31A     -0.510054    32A     -0.504308    33A     -0.495434
      34A     -0.474154    35A     -0.377765    36A     -0.341421
      37A     -0.339333    38A     -0.295662

  @DF-RHF Final Energy:  -438.45255015196801

   => Energetics <=

    Nuclear Repulsion Energy =            540.6556476214923350
    One-Electron Energy =               -1664.9150722655494974
    Two-Electron Energy =                 685.8068744920891504
    Total Energy =                       -438.4525501519680120
  Basis Set: (AUG-CC-PVTZ AUX)
    Blend: AUG-CC-PVTZ-RI
    Molecular point group: c1

    Geometry (in Angstrom), charge = 0, multiplicity = 1:

       Center              X                  Y                   Z               Mass
    ------------   -----------------  -----------------  -----------------  -----------------
         N            1.782495284298    -0.959026499807    -0.381717297010    14.003074004430
         C            1.013201284298     0.107805500193     0.031779702990    12.000000000000
         C           -0.445587715702     0.054834500193     0.022967702990    12.000000000000
         C            1.771821984298     0.959261000193     0.379289502990    12.000000000000
         C           -1.190974715702     1.210289500193    -0.265422297010    12.000000000000
         C           -1.131127715702    -1.140809499807     0.298803702990    12.000000000000
         C            3.116985284298    -0.661781499807    -0.272578297010    12.000000000000
         C            3.214538284298     0.618746500193     0.245719702990    12.000000000000
         C           -2.584315715702     1.172458500193    -0.264380297010    12.000000000000
         C           -2.525187715702    -1.180693499807     0.274224702990    12.000000000000
         C           -3.257421715702    -0.024591499807    -0.004897297010    12.000000000000
         H            1.404637284298    -1.785825499807    -0.827178297010     1.007825032230
         H            1.612799284298     2.053791500193     0.867592702990     1.007825032230
         H           -0.666097715702     2.133213500193    -0.502420297010     1.007825032230
         H           -0.569431715702    -2.032860499807     0.571449702990     1.007825032230
         H            3.876814284298    -1.370095499807    -0.573009297010     1.007825032230
         H            4.136762284298     1.136809500193     0.474559702990     1.007825032230
         H           -3.147623715702     2.075660500193    -0.487955297010     1.007825032230
         H           -3.041482715702    -2.113138499807     0.491428702990     1.007825032230
         H           -4.344195715702    -0.054804499807    -0.015327297010     1.007825032230

  Basis Set: AUG-CC-PVTZ
    Blend: AUG-CC-PVTZ
  Basis Set: (AUG-CC-PVTZ AUX)
    Blend: AUG-CC-PVTZ-JKFIT
	 Reference Energy          =    -438.4525501519680120 [Eh]
	 Singles Energy            =      -0.0000000000000000 [Eh]
	 Same-Spin Energy          =      -0.4927809753810667 [Eh]
	 Opposite-Spin Energy      =      -1.5228256715282860 [Eh]
	 Correlation Energy        =      -2.0156066469093528 [Eh]
	 Total Energy              =    -440.4681567988773736 [Eh]

	 ================> DF-SCS-MP2 Energies <==================
	-----------------------------------------------------------
	 SCS Same-Spin Scale       =       0.3333333333333333 [-]
	 SCS Opposite-Spin Scale   =       1.2000000000000000 [-]
	 SCS Same-Spin Energy      =      -0.1642603251270222 [Eh]
	 SCS Opposite-Spin Energy  =      -1.8273908058339430 [Eh]
	 SCS Correlation Energy    =      -1.9916511309609652 [Eh]
	 SCS Total Energy          =    -440.4442012829289865 [Eh]
	-----------------------------------------------------------

  Dipole Moment: [D]
     X:    -0.5640      Y:    -1.2240      Z:    -0.6174     Total:     1.4823

*** Psi4 exiting successfully. Buy a developer a beer!
