                               Psi4 1.3.2 release

  ==> Input File <==

--------------------------------------------------------------------------
#psi4
#
memory 32 gb

molecule  {
0 1
  N        1.8552358    -0.9176626    -0.3667120
  C        1.0080060     0.0962300     0.0271750
  C       -0.4507830     0.0432590     0.0183630
  C        1.8938950     1.0905280     0.4329840
  C       -1.1961700     1.1987140    -0.2700270
  C       -1.1363230    -1.1523850     0.2941990
  C        3.1117900    -0.6733570    -0.2771830
  C        3.2093430     0.6071710     0.2411150
  C       -2.5895110     1.1608830    -0.2689850
  C       -2.5303830    -1.1922690     0.2696200
  C       -3.2626170    -0.0361670    -0.0095020
  H        1.3994420    -1.7974010    -0.8317830
  H        1.6076040     2.0422160     0.8629880
  H       -0.6712930     2.1216380    -0.5070250
  H       -0.5746270    -2.0444360     0.5668450
  H        3.8716190    -1.3816710    -0.5776140
  H        4.1315670     1.1252340     0.4699550
  H       -3.1528190     2.0640850    -0.4925600
  H       -3.0466780    -2.1247140     0.4868240
  H       -4.3493910    -0.0663800    -0.0199320
units angstrom
no_reorient  #important for SAPT in psi4, default
symmetry c1  #important for SAPT in psi4, default
}

set PROPERTIES_ORIGIN ["COM"]
properties('MP2/aug-cc-pvtz', properties = ['dipole'])
--------------------------------------------------------------------------

    Molecular point group: c1
  Charge       = 0
  Multiplicity = 1
  Basis Set: AUG-CC-PVTZ
    Blend: AUG-CC-PVTZ
  Basis Set: (AUG-CC-PVTZ AUX)
    Blend: AUG-CC-PVTZ-JKFIT

    Orbital Energies [Eh]
    ---------------------

    Doubly Occupied:

       1A    -15.616743     2A    -11.255762     3A    -11.254939
       4A    -11.251040     5A    -11.242123     6A    -11.240905
       7A    -11.240442     8A    -11.237802     9A    -11.237364
      10A    -11.212423    11A    -11.204732    12A     -1.317812
      13A     -1.157162    14A     -1.053510    15A     -1.032602
      16A     -1.016431    17A     -0.967918    18A     -0.837681
      19A     -0.832663    20A     -0.775799    21A     -0.767161
      22A     -0.738610    23A     -0.684207    24A     -0.639900
      25A     -0.629900    26A     -0.595500    27A     -0.590947
      28A     -0.583716    29A     -0.565598    30A     -0.546350
      31A     -0.534545    32A     -0.506648    33A     -0.501041
      34A     -0.493420    35A     -0.367845    36A     -0.343353
      37A     -0.341380    38A     -0.272067

  @DF-RHF Final Energy:  -438.49257626388481

   => Energetics <=

    Nuclear Repulsion Energy =            537.8384833243977710
    One-Electron Energy =               -1659.2860356817359389
    Two-Electron Energy =                 682.9549760934535243
    Total Energy =                       -438.4925762638847573
  Basis Set: (AUG-CC-PVTZ AUX)
    Blend: AUG-CC-PVTZ-RI
    Molecular point group: c1

    Geometry (in Angstrom), charge = 0, multiplicity = 1:

       Center              X                  Y                   Z               Mass
    ------------   -----------------  -----------------  -----------------  -----------------
         N            1.842128880271    -0.923249078426    -0.368916319547    14.003074004430
         C            0.994899080271     0.090643521574     0.024970680453    12.000000000000
         C           -0.463889919729     0.037672521574     0.016158680453    12.000000000000
         C            1.880788080271     1.084941521574     0.430779680453    12.000000000000
         C           -1.209276919729     1.193127521574    -0.272231319547    12.000000000000
         C           -1.149429919729    -1.157971478426     0.291994680453    12.000000000000
         C            3.098683080271    -0.678943478426    -0.279387319547    12.000000000000
         C            3.196236080271     0.601584521574     0.238910680453    12.000000000000
         C           -2.602617919729     1.155296521574    -0.271189319547    12.000000000000
         C           -2.543489919729    -1.197855478426     0.267415680453    12.000000000000
         C           -3.275723919729    -0.041753478426    -0.011706319547    12.000000000000
         H            1.386335080271    -1.802987478426    -0.833987319547     1.007825032230
         H            1.594497080271     2.036629521574     0.860783680453     1.007825032230
         H           -0.684399919729     2.116051521574    -0.509229319547     1.007825032230
         H           -0.587733919729    -2.050022478426     0.564640680453     1.007825032230
         H            3.858512080271    -1.387257478426    -0.579818319547     1.007825032230
         H            4.118460080271     1.119647521574     0.467750680453     1.007825032230
         H           -3.165925919729     2.058498521574    -0.494764319547     1.007825032230
         H           -3.059784919729    -2.130300478426     0.484619680453     1.007825032230
         H           -4.362497919729    -0.071966478426    -0.022136319547     1.007825032230

  Basis Set: AUG-CC-PVTZ
    Blend: AUG-CC-PVTZ
  Basis Set: (AUG-CC-PVTZ AUX)
    Blend: AUG-CC-PVTZ-JKFIT
	 Reference Energy          =    -438.4925762638848141 [Eh]
	 Singles Energy            =      -0.0000000000000000 [Eh]
	 Same-Spin Energy          =      -0.4965850406400836 [Eh]
	 Opposite-Spin Energy      =      -1.5261236317557803 [Eh]
	 Correlation Energy        =      -2.0227086723958640 [Eh]
	 Total Energy              =    -440.5152849362806933 [Eh]

	 ================> DF-SCS-MP2 Energies <==================
	-----------------------------------------------------------
	 SCS Same-Spin Scale       =       0.3333333333333333 [-]
	 SCS Opposite-Spin Scale   =       1.2000000000000000 [-]
	 SCS Same-Spin Energy      =      -0.1655283468800278 [Eh]
	 SCS Opposite-Spin Energy  =      -1.8313483581069363 [Eh]
	 SCS Correlation Energy    =      -1.9968767049869642 [Eh]
	 SCS Total Energy          =    -440.4894529688717739 [Eh]
	-----------------------------------------------------------

  Dipole Moment: [D]
     X:    -0.5503      Y:    -1.5368      Z:    -0.7273     Total:     1.7871

*** Psi4 exiting successfully. Buy a developer a beer!
