                               Psi4 1.4a3.dev225

  ==> Input File <==

--------------------------------------------------------------------------
#psi4
#
memory 32 gb

molecule  {
0 1
  N        1.7773000    -0.9706020    -0.3863220
  C        1.0080060     0.0962300     0.0271750
  C       -0.4507830     0.0432590     0.0183630
  C        1.9066218     1.1048123     0.4388139
  C       -1.1961700     1.1987140    -0.2700270
  C       -1.1363230    -1.1523850     0.2941990
  C        3.1117900    -0.6733570    -0.2771830
  C        3.2093430     0.6071710     0.2411150
  C       -2.5895110     1.1608830    -0.2689850
  C       -2.5303830    -1.1922690     0.2696200
  C       -3.2626170    -0.0361670    -0.0095020
  H        1.3994420    -1.7974010    -0.8317830
  H        1.6076040     2.0422160     0.8629880
  H       -0.6712930     2.1216380    -0.5070250
  H       -0.5746270    -2.0444360     0.5668450
  H        3.8716190    -1.3816710    -0.5776140
  H        4.1315670     1.1252340     0.4699550
  H       -3.1528190     2.0640850    -0.4925600
  H       -3.0466780    -2.1247140     0.4868240
  H       -4.3493910    -0.0663800    -0.0199320
units angstrom
no_reorient  #important for SAPT in psi4, default
symmetry c1  #important for SAPT in psi4, default
}

set PROPERTIES_ORIGIN ["COM"]
properties('MP2/aug-cc-pvtz', properties = ['dipole'])
--------------------------------------------------------------------------

    Molecular point group: c1
  Charge       = 0
  Multiplicity = 1
  Basis Set: AUG-CC-PVTZ
    Blend: AUG-CC-PVTZ
  Basis Set: (AUG-CC-PVTZ AUX)
    Blend: AUG-CC-PVTZ-JKFIT

    Orbital Energies [Eh]
    ---------------------

    Doubly Occupied:

       1A    -15.609981     2A    -11.264352     3A    -11.256118
       4A    -11.253358     5A    -11.242054     6A    -11.240750
       7A    -11.240507     8A    -11.237933     9A    -11.237661
      10A    -11.214520    11A    -11.213302    12A     -1.293720
      13A     -1.156174    14A     -1.048047    15A     -1.043690
      16A     -1.016849    17A     -0.957676    18A     -0.838266
      19A     -0.832168    20A     -0.789522    21A     -0.765768
      22A     -0.735139    23A     -0.679743    24A     -0.633391
      25A     -0.629542    26A     -0.594308    27A     -0.588931
      28A     -0.583245    29A     -0.568593    30A     -0.548171
      31A     -0.539898    32A     -0.504639    33A     -0.500439
      34A     -0.493971    35A     -0.362712    36A     -0.351430
      37A     -0.341397    38A     -0.271171

  @DF-RHF Final Energy:  -438.50753436947349

   => Energetics <=

    Nuclear Repulsion Energy =            536.4825349253493414
    One-Electron Energy =               -1656.6218729189802161
    Two-Electron Energy =                 681.6318036241572145
    Total Energy =                       -438.5075343694735466
  Basis Set: (AUG-CC-PVTZ AUX)
    Blend: AUG-CC-PVTZ-RI
    Molecular point group: c1

    Geometry (in Angstrom), charge = 0, multiplicity = 1:

       Center              X                  Y                   Z               Mass
    ------------   -----------------  -----------------  -----------------  -----------------
         N            1.770753478805    -0.972205191942    -0.387095995397    14.003074004430
         C            1.001459478805     0.094626808058     0.026401004603    12.000000000000
         C           -0.457329521195     0.041655808058     0.017589004603    12.000000000000
         C            1.900075278805     1.103209108058     0.438039904603    12.000000000000
         C           -1.202716521195     1.197110808058    -0.270800995397    12.000000000000
         C           -1.142869521195    -1.153988191942     0.293425004603    12.000000000000
         C            3.105243478805    -0.674960191942    -0.277956995397    12.000000000000
         C            3.202796478805     0.605567808058     0.240341004603    12.000000000000
         C           -2.596057521195     1.159279808058    -0.269758995397    12.000000000000
         C           -2.536929521195    -1.193872191942     0.268846004603    12.000000000000
         C           -3.269163521195    -0.037770191942    -0.010275995397    12.000000000000
         H            1.392895478805    -1.799004191942    -0.832556995397     1.007825032230
         H            1.601057478805     2.040612808058     0.862214004603     1.007825032230
         H           -0.677839521195     2.120034808058    -0.507798995397     1.007825032230
         H           -0.581173521195    -2.046039191942     0.566071004603     1.007825032230
         H            3.865072478805    -1.383274191942    -0.578387995397     1.007825032230
         H            4.125020478805     1.123630808058     0.469181004603     1.007825032230
         H           -3.159365521195     2.062481808058    -0.493333995397     1.007825032230
         H           -3.053224521195    -2.126317191942     0.486050004603     1.007825032230
         H           -4.355937521195    -0.067983191942    -0.020705995397     1.007825032230

  Basis Set: AUG-CC-PVTZ
    Blend: AUG-CC-PVTZ
  Basis Set: (AUG-CC-PVTZ AUX)
    Blend: AUG-CC-PVTZ-JKFIT
	 Reference Energy          =    -438.5075343694734897 [Eh]
	 Singles Energy            =      -0.0000000000000000 [Eh]
	 Same-Spin Energy          =      -0.4955828111654337 [Eh]
	 Opposite-Spin Energy      =      -1.5258095430511309 [Eh]
	 Correlation Energy        =      -2.0213923542165646 [Eh]
	 Total Energy              =    -440.5289267236900628 [Eh]

	 ================> DF-SCS-MP2 Energies <==================
	-----------------------------------------------------------
	 SCS Same-Spin Scale       =       0.3333333333333333 [-]
	 SCS Opposite-Spin Scale   =       1.2000000000000000 [-]
	 SCS Same-Spin Energy      =      -0.1651942703884779 [Eh]
	 SCS Opposite-Spin Energy  =      -1.8309714516613571 [Eh]
	 SCS Correlation Energy    =      -1.9961657220498350 [Eh]
	 SCS Total Energy          =    -440.5037000915233421 [Eh]
	-----------------------------------------------------------

  Dipole Moment: [D]
     X:    -0.4366      Y:    -1.3280      Z:    -0.6502     Total:     1.5417

*** Psi4 exiting successfully. Buy a developer a beer!
