                               Psi4 1.3.2 release

  ==> Input File <==

--------------------------------------------------------------------------
#psi4
#
memory 32 gb

molecule  {
0 1
  N        1.8026261    -1.0560848    -0.4211926
  C        1.0080060     0.0962300     0.0271750
  C       -0.4507830     0.0432590     0.0183630
  C        1.8938950     1.0905280     0.4329840
  C       -1.1961700     1.1987140    -0.2700270
  C       -1.1363230    -1.1523850     0.2941990
  C        3.1117900    -0.6733570    -0.2771830
  C        3.2093430     0.6071710     0.2411150
  C       -2.5895110     1.1608830    -0.2689850
  C       -2.5303830    -1.1922690     0.2696200
  C       -3.2626170    -0.0361670    -0.0095020
  H        1.3994420    -1.7974010    -0.8317830
  H        1.6076040     2.0422160     0.8629880
  H       -0.6712930     2.1216380    -0.5070250
  H       -0.5746270    -2.0444360     0.5668450
  H        3.8716190    -1.3816710    -0.5776140
  H        4.1315670     1.1252340     0.4699550
  H       -3.1528190     2.0640850    -0.4925600
  H       -3.0466780    -2.1247140     0.4868240
  H       -4.3493910    -0.0663800    -0.0199320
units angstrom
no_reorient  #important for SAPT in psi4, default
symmetry c1  #important for SAPT in psi4, default
}

set PROPERTIES_ORIGIN ["COM"]
properties('MP2/aug-cc-pvtz', properties = ['dipole'])
--------------------------------------------------------------------------

    Molecular point group: c1
  Charge       = 0
  Multiplicity = 1
  Basis Set: AUG-CC-PVTZ
    Blend: AUG-CC-PVTZ
  Basis Set: (AUG-CC-PVTZ AUX)
    Blend: AUG-CC-PVTZ-JKFIT

    Orbital Energies [Eh]
    ---------------------

    Doubly Occupied:

       1A    -15.601185     2A    -11.268297     3A    -11.264569
       4A    -11.252623     5A    -11.241074     6A    -11.240034
       7A    -11.239170     8A    -11.236986     9A    -11.236648
      10A    -11.222274    11A    -11.215131    12A     -1.277255
      13A     -1.155377    14A     -1.059107    15A     -1.042441
      16A     -1.016226    17A     -0.952538    18A     -0.841612
      19A     -0.831247    20A     -0.803564    21A     -0.757403
      22A     -0.732645    23A     -0.678476    24A     -0.632828
      25A     -0.629127    26A     -0.606092    27A     -0.588737
      28A     -0.568262    29A     -0.561382    30A     -0.551550
      31A     -0.538055    32A     -0.502102    33A     -0.499920
      34A     -0.493598    35A     -0.368443    36A     -0.352127
      37A     -0.340601    38A     -0.271596

  @DF-RHF Final Energy:  -438.49587440125129

   => Energetics <=

    Nuclear Repulsion Energy =            534.8971421580596370
    One-Electron Energy =               -1653.4454282491033155
    Two-Electron Energy =                 680.0524116897925069
    Total Energy =                       -438.4958744012512852
  Basis Set: (AUG-CC-PVTZ AUX)
    Blend: AUG-CC-PVTZ-RI
    Molecular point group: c1

    Geometry (in Angstrom), charge = 0, multiplicity = 1:

       Center              X                  Y                   Z               Mass
    ------------   -----------------  -----------------  -----------------  -----------------
         N            1.794668264665    -1.048123442384    -0.418064724016    14.003074004430
         C            1.000048164665     0.104191357616     0.030302875984    12.000000000000
         C           -0.458740835335     0.051220357616     0.021490875984    12.000000000000
         C            1.885937164665     1.098489357616     0.436111875984    12.000000000000
         C           -1.204127835335     1.206675357616    -0.266899124016    12.000000000000
         C           -1.144280835335    -1.144423642384     0.297326875984    12.000000000000
         C            3.103832164665    -0.665395642384    -0.274055124016    12.000000000000
         C            3.201385164665     0.615132357616     0.244242875984    12.000000000000
         C           -2.597468835335     1.168844357616    -0.265857124016    12.000000000000
         C           -2.538340835335    -1.184307642384     0.272747875984    12.000000000000
         C           -3.270574835335    -0.028205642384    -0.006374124016    12.000000000000
         H            1.391484164665    -1.789439642384    -0.828655124016     1.007825032230
         H            1.599646164665     2.050177357616     0.866115875984     1.007825032230
         H           -0.679250835335     2.129599357616    -0.503897124016     1.007825032230
         H           -0.582584835335    -2.036474642384     0.569972875984     1.007825032230
         H            3.863661164665    -1.373709642384    -0.574486124016     1.007825032230
         H            4.123609164665     1.133195357616     0.473082875984     1.007825032230
         H           -3.160776835335     2.072046357616    -0.489432124016     1.007825032230
         H           -3.054635835335    -2.116752642384     0.489951875984     1.007825032230
         H           -4.357348835335    -0.058418642384    -0.016804124016     1.007825032230

  Basis Set: AUG-CC-PVTZ
    Blend: AUG-CC-PVTZ
  Basis Set: (AUG-CC-PVTZ AUX)
    Blend: AUG-CC-PVTZ-JKFIT
	 Reference Energy          =    -438.4958744012512852 [Eh]
	 Singles Energy            =      -0.0000000000000000 [Eh]
	 Same-Spin Energy          =      -0.4945118853869152 [Eh]
	 Opposite-Spin Energy      =      -1.5258498782162624 [Eh]
	 Correlation Energy        =      -2.0203617636031774 [Eh]
	 Total Energy              =    -440.5162361648544902 [Eh]

	 ================> DF-SCS-MP2 Energies <==================
	-----------------------------------------------------------
	 SCS Same-Spin Scale       =       0.3333333333333333 [-]
	 SCS Opposite-Spin Scale   =       1.2000000000000000 [-]
	 SCS Same-Spin Energy      =      -0.1648372951289717 [Eh]
	 SCS Opposite-Spin Energy  =      -1.8310198538595148 [Eh]
	 SCS Correlation Energy    =      -1.9958571489884864 [Eh]
	 SCS Total Energy          =    -440.4917315502397628 [Eh]
	-----------------------------------------------------------

  Dipole Moment: [D]
     X:    -0.3972      Y:    -1.0951      Z:    -0.5615     Total:     1.2931

*** Psi4 exiting successfully. Buy a developer a beer!
