                               Psi4 1.3.2 release

  ==> Input File <==

--------------------------------------------------------------------------
#psi4
#
memory 32 gb

molecule  {
0 1
  N        1.7773000    -0.9706020    -0.3863220
  C        0.9352515     0.1560028     0.0511803
  C       -0.4507830     0.0432590     0.0183630
  C        1.8938950     1.0905280     0.4329840
  C       -1.1961700     1.1987140    -0.2700270
  C       -1.1363230    -1.1523850     0.2941990
  C        3.1117900    -0.6733570    -0.2771830
  C        3.2093430     0.6071710     0.2411150
  C       -2.5895110     1.1608830    -0.2689850
  C       -2.5303830    -1.1922690     0.2696200
  C       -3.2626170    -0.0361670    -0.0095020
  H        1.3994420    -1.7974010    -0.8317830
  H        1.6076040     2.0422160     0.8629880
  H       -0.6712930     2.1216380    -0.5070250
  H       -0.5746270    -2.0444360     0.5668450
  H        3.8716190    -1.3816710    -0.5776140
  H        4.1315670     1.1252340     0.4699550
  H       -3.1528190     2.0640850    -0.4925600
  H       -3.0466780    -2.1247140     0.4868240
  H       -4.3493910    -0.0663800    -0.0199320
units angstrom
no_reorient  #important for SAPT in psi4, default
symmetry c1  #important for SAPT in psi4, default
}

set PROPERTIES_ORIGIN ["COM"]
properties('MP2/aug-cc-pvtz', properties = ['dipole'])
--------------------------------------------------------------------------

    Molecular point group: c1
  Charge       = 0
  Multiplicity = 1
  Basis Set: AUG-CC-PVTZ
    Blend: AUG-CC-PVTZ
  Basis Set: (AUG-CC-PVTZ AUX)
    Blend: AUG-CC-PVTZ-JKFIT

    Orbital Energies [Eh]
    ---------------------

    Doubly Occupied:

       1A    -15.602199     2A    -11.264258     3A    -11.263427
       4A    -11.248855     5A    -11.242277     6A    -11.240918
       7A    -11.240298     8A    -11.237575     9A    -11.237096
      10A    -11.221325    11A    -11.212951    12A     -1.270308
      13A     -1.158977    14A     -1.058347    15A     -1.038856
      16A     -1.016713    17A     -0.956685    18A     -0.847306
      19A     -0.833284    20A     -0.782054    21A     -0.755780
      22A     -0.736485    23A     -0.680238    24A     -0.636315
      25A     -0.631395    26A     -0.592819    27A     -0.589444
      28A     -0.573473    29A     -0.562024    30A     -0.543618
      31A     -0.539850    32A     -0.507796    33A     -0.502350
      34A     -0.493081    35A     -0.371255    36A     -0.347378
      37A     -0.341478    38A     -0.269518

  @DF-RHF Final Energy:  -438.49390151834587

   => Energetics <=

    Nuclear Repulsion Energy =            536.5523220410547083
    One-Electron Energy =               -1656.7964383745338637
    Two-Electron Energy =                 681.7502148151334040
    Total Energy =                       -438.4939015183458650
  Basis Set: (AUG-CC-PVTZ AUX)
    Blend: AUG-CC-PVTZ-RI
    Molecular point group: c1

    Geometry (in Angstrom), charge = 0, multiplicity = 1:

       Center              X                  Y                   Z               Mass
    ------------   -----------------  -----------------  -----------------  -----------------
         N            1.777923049725    -0.976020447756    -0.388620420263    14.003074004430
         C            0.935874549725     0.150584352244     0.048881879737    12.000000000000
         C           -0.450159950275     0.037840552244     0.016064579737    12.000000000000
         C            1.894518049725     1.085109552244     0.430685579737    12.000000000000
         C           -1.195546950275     1.193295552244    -0.272325420263    12.000000000000
         C           -1.135699950275    -1.157803447756     0.291900579737    12.000000000000
         C            3.112413049725    -0.678775447756    -0.279481420263    12.000000000000
         C            3.209966049725     0.601752552244     0.238816579737    12.000000000000
         C           -2.588887950275     1.155464552244    -0.271283420263    12.000000000000
         C           -2.529759950275    -1.197687447756     0.267321579737    12.000000000000
         C           -3.261993950275    -0.041585447756    -0.011800420263    12.000000000000
         H            1.400065049725    -1.802819447756    -0.834081420263     1.007825032230
         H            1.608227049725     2.036797552244     0.860689579737     1.007825032230
         H           -0.670669950275     2.116219552244    -0.509323420263     1.007825032230
         H           -0.574003950275    -2.049854447756     0.564546579737     1.007825032230
         H            3.872242049725    -1.387089447756    -0.579912420263     1.007825032230
         H            4.132190049725     1.119815552244     0.467656579737     1.007825032230
         H           -3.152195950275     2.058666552244    -0.494858420263     1.007825032230
         H           -3.046054950275    -2.130132447756     0.484525579737     1.007825032230
         H           -4.348767950275    -0.071798447756    -0.022230420263     1.007825032230

  Basis Set: AUG-CC-PVTZ
    Blend: AUG-CC-PVTZ
  Basis Set: (AUG-CC-PVTZ AUX)
    Blend: AUG-CC-PVTZ-JKFIT
	 Reference Energy          =    -438.4939015183458650 [Eh]
	 Singles Energy            =      -0.0000000000000000 [Eh]
	 Same-Spin Energy          =      -0.4965868565552462 [Eh]
	 Opposite-Spin Energy      =      -1.5283117060161038 [Eh]
	 Correlation Energy        =      -2.0248985625713498 [Eh]
	 Total Energy              =    -440.5188000809172308 [Eh]

	 ================> DF-SCS-MP2 Energies <==================
	-----------------------------------------------------------
	 SCS Same-Spin Scale       =       0.3333333333333333 [-]
	 SCS Opposite-Spin Scale   =       1.2000000000000000 [-]
	 SCS Same-Spin Energy      =      -0.1655289521850821 [Eh]
	 SCS Opposite-Spin Energy  =      -1.8339740472193244 [Eh]
	 SCS Correlation Energy    =      -1.9995029994044065 [Eh]
	 SCS Total Energy          =    -440.4934045177502639 [Eh]
	-----------------------------------------------------------

  Dipole Moment: [D]
     X:    -0.4342      Y:    -1.2343      Z:    -0.6018     Total:     1.4402

*** Psi4 exiting successfully. Buy a developer a beer!
