                               Psi4 1.3.2 release

  ==> Input File <==

--------------------------------------------------------------------------
#psi4
#
memory 32 gb

molecule  {
0 1
  N        1.7773000    -0.9706020    -0.3863220
  C        1.0080060     0.0962300     0.0271750
  C       -0.4507830     0.0432590     0.0183630
  C        1.8938950     1.0905280     0.4329840
  C       -1.1961700     1.1987140    -0.2700270
  C       -1.1363230    -1.1523850     0.2941990
  C        3.1117900    -0.6733570    -0.2771830
  C        3.2334347     0.6055402     0.2400461
  C       -2.5895110     1.1608830    -0.2689850
  C       -2.5303830    -1.1922690     0.2696200
  C       -3.2626170    -0.0361670    -0.0095020
  H        1.3994420    -1.7974010    -0.8317830
  H        1.6076040     2.0422160     0.8629880
  H       -0.6712930     2.1216380    -0.5070250
  H       -0.5746270    -2.0444360     0.5668450
  H        3.8716190    -1.3816710    -0.5776140
  H        4.1315670     1.1252340     0.4699550
  H       -3.1528190     2.0640850    -0.4925600
  H       -3.0466780    -2.1247140     0.4868240
  H       -4.3493910    -0.0663800    -0.0199320
units angstrom
no_reorient  #important for SAPT in psi4, default
symmetry c1  #important for SAPT in psi4, default
}

set PROPERTIES_ORIGIN ["COM"]
properties('MP2/aug-cc-pvtz', properties = ['dipole'])
--------------------------------------------------------------------------

    Molecular point group: c1
  Charge       = 0
  Multiplicity = 1
  Basis Set: AUG-CC-PVTZ
    Blend: AUG-CC-PVTZ
  Basis Set: (AUG-CC-PVTZ AUX)
    Blend: AUG-CC-PVTZ-JKFIT

    Orbital Energies [Eh]
    ---------------------

    Doubly Occupied:

       1A    -15.607739     2A    -11.262528     3A    -11.257882
       4A    -11.253393     5A    -11.242143     6A    -11.240823
       7A    -11.240649     8A    -11.238096     9A    -11.237818
      10A    -11.215313    11A    -11.213830    12A     -1.293074
      13A     -1.156274    14A     -1.048451    15A     -1.040173
      16A     -1.016775    17A     -0.959686    18A     -0.837539
      19A     -0.832446    20A     -0.788939    21A     -0.766037
      22A     -0.735151    23A     -0.679899    24A     -0.633326
      25A     -0.629700    26A     -0.595317    27A     -0.589556
      28A     -0.582644    29A     -0.568778    30A     -0.554383
      31A     -0.531039    32A     -0.504668    33A     -0.500680
      34A     -0.494482    35A     -0.363669    36A     -0.347531
      37A     -0.341422    38A     -0.274664

  @DF-RHF Final Energy:  -438.50854482955077

   => Energetics <=

    Nuclear Repulsion Energy =            536.3891401476089413
    One-Electron Energy =               -1656.4423361000267505
    Two-Electron Energy =                 681.5446511228670943
    Total Energy =                       -438.5085448295507149
  Basis Set: (AUG-CC-PVTZ AUX)
    Blend: AUG-CC-PVTZ-RI
    Molecular point group: c1

    Geometry (in Angstrom), charge = 0, multiplicity = 1:

       Center              X                  Y                   Z               Mass
    ------------   -----------------  -----------------  -----------------  -----------------
         N            1.769800270834    -0.970870345161    -0.386517372519    14.003074004430
         C            1.000506270834     0.095961654839     0.026979627481    12.000000000000
         C           -0.458282729166     0.042990654839     0.018167627481    12.000000000000
         C            1.886395270834     1.090259654839     0.432788627481    12.000000000000
         C           -1.203669729166     1.198445654839    -0.270222372519    12.000000000000
         C           -1.143822729166    -1.152653345161     0.294003627481    12.000000000000
         C            3.104290270834    -0.673625345161    -0.277378372519    12.000000000000
         C            3.225934970834     0.605271854839     0.239850727481    12.000000000000
         C           -2.597010729166     1.160614654839    -0.269180372519    12.000000000000
         C           -2.537882729166    -1.192537345161     0.269424627481    12.000000000000
         C           -3.270116729166    -0.036435345161    -0.009697372519    12.000000000000
         H            1.391942270834    -1.797669345161    -0.831978372519     1.007825032230
         H            1.600104270834     2.041947654839     0.862792627481     1.007825032230
         H           -0.678792729166     2.121369654839    -0.507220372519     1.007825032230
         H           -0.582126729166    -2.044704345161     0.566649627481     1.007825032230
         H            3.864119270834    -1.381939345161    -0.577809372519     1.007825032230
         H            4.124067270834     1.124965654839     0.469759627481     1.007825032230
         H           -3.160318729166     2.063816654839    -0.492755372519     1.007825032230
         H           -3.054177729166    -2.124982345161     0.486628627481     1.007825032230
         H           -4.356890729166    -0.066648345161    -0.020127372519     1.007825032230

  Basis Set: AUG-CC-PVTZ
    Blend: AUG-CC-PVTZ
  Basis Set: (AUG-CC-PVTZ AUX)
    Blend: AUG-CC-PVTZ-JKFIT
	 Reference Energy          =    -438.5085448295507717 [Eh]
	 Singles Energy            =      -0.0000000000000000 [Eh]
	 Same-Spin Energy          =      -0.4949404496948416 [Eh]
	 Opposite-Spin Energy      =      -1.5251771619189547 [Eh]
	 Correlation Energy        =      -2.0201176116137964 [Eh]
	 Total Energy              =    -440.5286624411645562 [Eh]

	 ================> DF-SCS-MP2 Energies <==================
	-----------------------------------------------------------
	 SCS Same-Spin Scale       =       0.3333333333333333 [-]
	 SCS Opposite-Spin Scale   =       1.2000000000000000 [-]
	 SCS Same-Spin Energy      =      -0.1649801498982805 [Eh]
	 SCS Opposite-Spin Energy  =      -1.8302125943027456 [Eh]
	 SCS Correlation Energy    =      -1.9951927442010262 [Eh]
	 SCS Total Energy          =    -440.5037375737517777 [Eh]
	-----------------------------------------------------------

  Dipole Moment: [D]
     X:    -0.4699      Y:    -1.3187      Z:    -0.6464     Total:     1.5419

*** Psi4 exiting successfully. Buy a developer a beer!
