                               Psi4 1.3.2 release

  ==> Input File <==

--------------------------------------------------------------------------
#psi4
#
memory 32 gb

molecule  {
0 1
  N        1.7773000    -0.9706020    -0.3863220
  C        1.0086468     0.0714663     0.0331295
  C       -0.4507830     0.0432590     0.0183630
  C        1.8938950     1.0905280     0.4329840
  C       -1.1961700     1.1987140    -0.2700270
  C       -1.1363230    -1.1523850     0.2941990
  C        3.1117900    -0.6733570    -0.2771830
  C        3.2093430     0.6071710     0.2411150
  C       -2.5895110     1.1608830    -0.2689850
  C       -2.5303830    -1.1922690     0.2696200
  C       -3.2626170    -0.0361670    -0.0095020
  H        1.3994420    -1.7974010    -0.8317830
  H        1.6076040     2.0422160     0.8629880
  H       -0.6712930     2.1216380    -0.5070250
  H       -0.5746270    -2.0444360     0.5668450
  H        3.8716190    -1.3816710    -0.5776140
  H        4.1315670     1.1252340     0.4699550
  H       -3.1528190     2.0640850    -0.4925600
  H       -3.0466780    -2.1247140     0.4868240
  H       -4.3493910    -0.0663800    -0.0199320
units angstrom
no_reorient  #important for SAPT in psi4, default
symmetry c1  #important for SAPT in psi4, default
}

set PROPERTIES_ORIGIN ["COM"]
properties('MP2/aug-cc-pvtz', properties = ['dipole'])
--------------------------------------------------------------------------

    Molecular point group: c1
  Charge       = 0
  Multiplicity = 1
  Basis Set: AUG-CC-PVTZ
    Blend: AUG-CC-PVTZ
  Basis Set: (AUG-CC-PVTZ AUX)
    Blend: AUG-CC-PVTZ-JKFIT

    Orbital Energies [Eh]
    ---------------------

    Doubly Occupied:

       1A    -15.610355     2A    -11.262708     3A    -11.255217
       4A    -11.253379     5A    -11.241980     6A    -11.241002
       7A    -11.240357     8A    -11.238355     9A    -11.237900
      10A    -11.214303    11A    -11.213003    12A     -1.298993
      13A     -1.156324    14A     -1.047872    15A     -1.043429
      16A     -1.016924    17A     -0.959020    18A     -0.837730
      19A     -0.832420    20A     -0.789948    21A     -0.766208
      22A     -0.735625    23A     -0.679956    24A     -0.633710
      25A     -0.629778    26A     -0.594198    27A     -0.589165
      28A     -0.584981    29A     -0.570933    30A     -0.548544
      31A     -0.535961    32A     -0.505076    33A     -0.500690
      34A     -0.493538    35A     -0.362399    36A     -0.350616
      37A     -0.341483    38A     -0.271980

  @DF-RHF Final Energy:  -438.50813326930592

   => Energetics <=

    Nuclear Repulsion Energy =            536.9021215536175760
    One-Electron Energy =               -1657.4483904450614773
    Two-Electron Energy =                 682.0381356221380429
    Total Energy =                       -438.5081332693059721
  Basis Set: (AUG-CC-PVTZ AUX)
    Blend: AUG-CC-PVTZ-RI
    Molecular point group: c1

    Geometry (in Angstrom), charge = 0, multiplicity = 1:

       Center              X                  Y                   Z               Mass
    ------------   -----------------  -----------------  -----------------  -----------------
         N            1.771767167578    -0.968930120023    -0.387106445970    14.003074004430
         C            1.003113967578     0.073138179977     0.032345054030    12.000000000000
         C           -0.456315832422     0.044930879977     0.017578554030    12.000000000000
         C            1.888362167578     1.092199879977     0.432199554030    12.000000000000
         C           -1.201702832422     1.200385879977    -0.270811445970    12.000000000000
         C           -1.141855832422    -1.150713120023     0.293414554030    12.000000000000
         C            3.106257167578    -0.671685120023    -0.277967445970    12.000000000000
         C            3.203810167578     0.608842879977     0.240330554030    12.000000000000
         C           -2.595043832422     1.162554879977    -0.269769445970    12.000000000000
         C           -2.535915832422    -1.190597120023     0.268835554030    12.000000000000
         C           -3.268149832422    -0.034495120023    -0.010286445970    12.000000000000
         H            1.393909167578    -1.795729120023    -0.832567445970     1.007825032230
         H            1.602071167578     2.043887879977     0.862203554030     1.007825032230
         H           -0.676825832422     2.123309879977    -0.507809445970     1.007825032230
         H           -0.580159832422    -2.042764120023     0.566060554030     1.007825032230
         H            3.866086167578    -1.379999120023    -0.578398445970     1.007825032230
         H            4.126034167578     1.126905879977     0.469170554030     1.007825032230
         H           -3.158351832422     2.065756879977    -0.493344445970     1.007825032230
         H           -3.052210832422    -2.123042120023     0.486039554030     1.007825032230
         H           -4.354923832422    -0.064708120023    -0.020716445970     1.007825032230

  Basis Set: AUG-CC-PVTZ
    Blend: AUG-CC-PVTZ
  Basis Set: (AUG-CC-PVTZ AUX)
    Blend: AUG-CC-PVTZ-JKFIT
	 Reference Energy          =    -438.5081332693059153 [Eh]
	 Singles Energy            =      -0.0000000000000000 [Eh]
	 Same-Spin Energy          =      -0.4954783898577477 [Eh]
	 Opposite-Spin Energy      =      -1.5254523954582662 [Eh]
	 Correlation Energy        =      -2.0209307853160139 [Eh]
	 Total Energy              =    -440.5290640546219265 [Eh]

	 ================> DF-SCS-MP2 Energies <==================
	-----------------------------------------------------------
	 SCS Same-Spin Scale       =       0.3333333333333333 [-]
	 SCS Opposite-Spin Scale   =       1.2000000000000000 [-]
	 SCS Same-Spin Energy      =      -0.1651594632859159 [Eh]
	 SCS Opposite-Spin Energy  =      -1.8305428745499193 [Eh]
	 SCS Correlation Energy    =      -1.9957023378358352 [Eh]
	 SCS Total Energy          =    -440.5038356071417525 [Eh]
	-----------------------------------------------------------

  Dipole Moment: [D]
     X:    -0.4461      Y:    -1.3448      Z:    -0.6647     Total:     1.5651

*** Psi4 exiting successfully. Buy a developer a beer!
