                               Psi4 1.3.2 release

  ==> Input File <==

--------------------------------------------------------------------------
#psi4
#
memory 32 gb

molecule  {
0 1
  N        1.8926712    -0.8905306    -0.3530809
  C        1.0080060     0.0962300     0.0271750
  C       -0.4507830     0.0432590     0.0183630
  C        1.8938950     1.0905280     0.4329840
  C       -1.1961700     1.1987140    -0.2700270
  C       -1.1363230    -1.1523850     0.2941990
  C        3.1117900    -0.6733570    -0.2771830
  C        3.2093430     0.6071710     0.2411150
  C       -2.5895110     1.1608830    -0.2689850
  C       -2.5303830    -1.1922690     0.2696200
  C       -3.2626170    -0.0361670    -0.0095020
  H        1.3994420    -1.7974010    -0.8317830
  H        1.6076040     2.0422160     0.8629880
  H       -0.6712930     2.1216380    -0.5070250
  H       -0.5746270    -2.0444360     0.5668450
  H        3.8716190    -1.3816710    -0.5776140
  H        4.1315670     1.1252340     0.4699550
  H       -3.1528190     2.0640850    -0.4925600
  H       -3.0466780    -2.1247140     0.4868240
  H       -4.3493910    -0.0663800    -0.0199320
units angstrom
no_reorient  #important for SAPT in psi4, default
symmetry c1  #important for SAPT in psi4, default
}

set PROPERTIES_ORIGIN ["COM"]
properties('MP2/aug-cc-pvtz', properties = ['dipole'])
--------------------------------------------------------------------------

    Molecular point group: c1
  Charge       = 0
  Multiplicity = 1
  Basis Set: AUG-CC-PVTZ
    Blend: AUG-CC-PVTZ
  Basis Set: (AUG-CC-PVTZ AUX)
    Blend: AUG-CC-PVTZ-JKFIT

    Orbital Energies [Eh]
    ---------------------

    Doubly Occupied:

       1A    -15.620925     2A    -11.256523     3A    -11.252344
       4A    -11.248492     5A    -11.242078     6A    -11.240932
       7A    -11.240278     8A    -11.237683     9A    -11.237074
      10A    -11.212245    11A    -11.200760    12A     -1.332653
      13A     -1.157571    14A     -1.056949    15A     -1.028272
      16A     -1.016043    17A     -0.972257    18A     -0.838078
      19A     -0.832713    20A     -0.777270    21A     -0.760893
      22A     -0.740598    23A     -0.686779    24A     -0.643421
      25A     -0.630172    26A     -0.600497    27A     -0.593183
      28A     -0.588196    29A     -0.554845    30A     -0.544881
      31A     -0.531186    32A     -0.507342    33A     -0.501058
      34A     -0.492500    35A     -0.370310    36A     -0.341783
      37A     -0.340131    38A     -0.271097

  @DF-RHF Final Energy:  -438.47229751172938

   => Energetics <=

    Nuclear Repulsion Energy =            538.4401324217694764
    One-Electron Energy =               -1660.4248377065355271
    Two-Electron Energy =                 683.5124077730366707
    Total Energy =                       -438.4722975117293799
  Basis Set: (AUG-CC-PVTZ AUX)
    Blend: AUG-CC-PVTZ-RI
    Molecular point group: c1

    Geometry (in Angstrom), charge = 0, multiplicity = 1:

       Center              X                  Y                   Z               Mass
    ------------   -----------------  -----------------  -----------------  -----------------
         N            1.875900354532    -0.898772576515    -0.356619340143    14.003074004430
         C            0.991235154532     0.087988023485     0.023636559857    12.000000000000
         C           -0.467553845468     0.035017023485     0.014824559857    12.000000000000
         C            1.877124154532     1.082286023485     0.429445559857    12.000000000000
         C           -1.212940845468     1.190472023485    -0.273565440143    12.000000000000
         C           -1.153093845468    -1.160626976515     0.290660559857    12.000000000000
         C            3.095019154532    -0.681598976515    -0.280721440143    12.000000000000
         C            3.192572154532     0.598929023485     0.237576559857    12.000000000000
         C           -2.606281845468     1.152641023485    -0.272523440143    12.000000000000
         C           -2.547153845468    -1.200510976515     0.266081559857    12.000000000000
         C           -3.279387845468    -0.044408976515    -0.013040440143    12.000000000000
         H            1.382671154532    -1.805642976515    -0.835321440143     1.007825032230
         H            1.590833154532     2.033974023485     0.859449559857     1.007825032230
         H           -0.688063845468     2.113396023485    -0.510563440143     1.007825032230
         H           -0.591397845468    -2.052677976515     0.563306559857     1.007825032230
         H            3.854848154532    -1.389912976515    -0.581152440143     1.007825032230
         H            4.114796154532     1.116992023485     0.466416559857     1.007825032230
         H           -3.169589845468     2.055843023485    -0.496098440143     1.007825032230
         H           -3.063448845468    -2.132955976515     0.483285559857     1.007825032230
         H           -4.366161845468    -0.074621976515    -0.023470440143     1.007825032230

  Basis Set: AUG-CC-PVTZ
    Blend: AUG-CC-PVTZ
  Basis Set: (AUG-CC-PVTZ AUX)
    Blend: AUG-CC-PVTZ-JKFIT
	 Reference Energy          =    -438.4722975117293799 [Eh]
	 Singles Energy            =      -0.0000000000000000 [Eh]
	 Same-Spin Energy          =      -0.4973805847426390 [Eh]
	 Opposite-Spin Energy      =      -1.5269835863079739 [Eh]
	 Correlation Energy        =      -2.0243641710506131 [Eh]
	 Total Energy              =    -440.4966616827799726 [Eh]

	 ================> DF-SCS-MP2 Energies <==================
	-----------------------------------------------------------
	 SCS Same-Spin Scale       =       0.3333333333333333 [-]
	 SCS Opposite-Spin Scale   =       1.2000000000000000 [-]
	 SCS Same-Spin Energy      =      -0.1657935282475463 [Eh]
	 SCS Opposite-Spin Energy  =      -1.8323803035695687 [Eh]
	 SCS Correlation Energy    =      -1.9981738318171149 [Eh]
	 SCS Total Energy          =    -440.4704713435464782 [Eh]
	-----------------------------------------------------------

  Dipole Moment: [D]
     X:    -0.5733      Y:    -1.6362      Z:    -0.7641     Total:     1.8946

*** Psi4 exiting successfully. Buy a developer a beer!
