                               Psi4 1.3.2 release

  ==> Input File <==

--------------------------------------------------------------------------
#psi4
#
memory 32 gb

molecule  {
0 1
  N        1.7584811    -0.8839185    -0.3503151
  C        1.0080060     0.0962300     0.0271750
  C       -0.4507830     0.0432590     0.0183630
  C        1.8938950     1.0905280     0.4329840
  C       -1.1961700     1.1987140    -0.2700270
  C       -1.1363230    -1.1523850     0.2941990
  C        3.1117900    -0.6733570    -0.2771830
  C        3.2093430     0.6071710     0.2411150
  C       -2.5895110     1.1608830    -0.2689850
  C       -2.5303830    -1.1922690     0.2696200
  C       -3.2626170    -0.0361670    -0.0095020
  H        1.3994420    -1.7974010    -0.8317830
  H        1.6076040     2.0422160     0.8629880
  H       -0.6712930     2.1216380    -0.5070250
  H       -0.5746270    -2.0444360     0.5668450
  H        3.8716190    -1.3816710    -0.5776140
  H        4.1315670     1.1252340     0.4699550
  H       -3.1528190     2.0640850    -0.4925600
  H       -3.0466780    -2.1247140     0.4868240
  H       -4.3493910    -0.0663800    -0.0199320
units angstrom
no_reorient  #important for SAPT in psi4, default
symmetry c1  #important for SAPT in psi4, default
}

set PROPERTIES_ORIGIN ["COM"]
properties('MP2/aug-cc-pvtz', properties = ['dipole'])
--------------------------------------------------------------------------

    Molecular point group: c1
  Charge       = 0
  Multiplicity = 1
  Basis Set: AUG-CC-PVTZ
    Blend: AUG-CC-PVTZ
  Basis Set: (AUG-CC-PVTZ AUX)
    Blend: AUG-CC-PVTZ-JKFIT

    Orbital Energies [Eh]
    ---------------------

    Doubly Occupied:

       1A    -15.615207     2A    -11.255847     3A    -11.254411
       4A    -11.249404     5A    -11.243405     6A    -11.242209
       7A    -11.241732     8A    -11.239473     9A    -11.239141
      10A    -11.212124    11A    -11.204157    12A     -1.317796
      13A     -1.157488    14A     -1.050506    15A     -1.034768
      16A     -1.017308    17A     -0.968784    18A     -0.838771
      19A     -0.833645    20A     -0.772549    21A     -0.770762
      22A     -0.738309    23A     -0.682529    24A     -0.639094
      25A     -0.630878    26A     -0.596666    27A     -0.590783
      28A     -0.586906    29A     -0.563593    30A     -0.547841
      31A     -0.532591    32A     -0.506894    33A     -0.501708
      34A     -0.494975    35A     -0.362440    36A     -0.345900
      37A     -0.342401    38A     -0.274902

  @DF-RHF Final Energy:  -438.49365096673358

   => Energetics <=

    Nuclear Repulsion Energy =            538.8832227471108354
    One-Electron Energy =               -1661.3579575695741823
    Two-Electron Energy =                 683.9810838557295938
    Total Energy =                       -438.4936509667336395
  Basis Set: (AUG-CC-PVTZ AUX)
    Blend: AUG-CC-PVTZ-RI
    Molecular point group: c1

    Geometry (in Angstrom), charge = 0, multiplicity = 1:

       Center              X                  Y                   Z               Mass
    ------------   -----------------  -----------------  -----------------  -----------------
         N            1.754843881027    -0.892807624492    -0.354124238086    14.003074004430
         C            1.004368781027     0.087340875508     0.023365861914    12.000000000000
         C           -0.454420218973     0.034369875508     0.014553861914    12.000000000000
         C            1.890257781027     1.081638875508     0.429174861914    12.000000000000
         C           -1.199807218973     1.189824875508    -0.273836138086    12.000000000000
         C           -1.139960218973    -1.161274124492     0.290389861914    12.000000000000
         C            3.108152781027    -0.682246124492    -0.280992138086    12.000000000000
         C            3.205705781027     0.598281875508     0.237305861914    12.000000000000
         C           -2.593148218973     1.151993875508    -0.272794138086    12.000000000000
         C           -2.534020218973    -1.201158124492     0.265810861914    12.000000000000
         C           -3.266254218973    -0.045056124492    -0.013311138086    12.000000000000
         H            1.395804781027    -1.806290124492    -0.835592138086     1.007825032230
         H            1.603966781027     2.033326875508     0.859178861914     1.007825032230
         H           -0.674930218973     2.112748875508    -0.510834138086     1.007825032230
         H           -0.578264218973    -2.053325124492     0.563035861914     1.007825032230
         H            3.867981781027    -1.390560124492    -0.581423138086     1.007825032230
         H            4.127929781027     1.116344875508     0.466145861914     1.007825032230
         H           -3.156456218973     2.055195875508    -0.496369138086     1.007825032230
         H           -3.050315218973    -2.133603124492     0.483014861914     1.007825032230
         H           -4.353028218973    -0.075269124492    -0.023741138086     1.007825032230

  Basis Set: AUG-CC-PVTZ
    Blend: AUG-CC-PVTZ
  Basis Set: (AUG-CC-PVTZ AUX)
    Blend: AUG-CC-PVTZ-JKFIT
	 Reference Energy          =    -438.4936509667335827 [Eh]
	 Singles Energy            =      -0.0000000000000000 [Eh]
	 Same-Spin Energy          =      -0.4964391574576660 [Eh]
	 Opposite-Spin Energy      =      -1.5261315618300282 [Eh]
	 Correlation Energy        =      -2.0225707192876943 [Eh]
	 Total Energy              =    -440.5162216860212538 [Eh]

	 ================> DF-SCS-MP2 Energies <==================
	-----------------------------------------------------------
	 SCS Same-Spin Scale       =       0.3333333333333333 [-]
	 SCS Opposite-Spin Scale   =       1.2000000000000000 [-]
	 SCS Same-Spin Energy      =      -0.1654797191525553 [Eh]
	 SCS Opposite-Spin Energy  =      -1.8313578741960337 [Eh]
	 SCS Correlation Energy    =      -1.9968375933485891 [Eh]
	 SCS Total Energy          =    -440.4904885600821558 [Eh]
	-----------------------------------------------------------

  Dipole Moment: [D]
     X:    -0.5629      Y:    -1.5133      Z:    -0.7198     Total:     1.7678

*** Psi4 exiting successfully. Buy a developer a beer!
