                               Psi4 1.3.2 release

  ==> Input File <==

--------------------------------------------------------------------------
#psi4
#
memory 32 gb

molecule  {
0 1
  N        1.7773000    -0.9706020    -0.3863220
  C        1.0080060     0.0962300     0.0271750
  C       -0.4507830     0.0432590     0.0183630
  C        2.0211633     1.2333705     0.4912832
  C       -1.1961700     1.1987140    -0.2700270
  C       -1.1363230    -1.1523850     0.2941990
  C        3.1117900    -0.6733570    -0.2771830
  C        3.2093430     0.6071710     0.2411150
  C       -2.5895110     1.1608830    -0.2689850
  C       -2.5303830    -1.1922690     0.2696200
  C       -3.2626170    -0.0361670    -0.0095020
  H        1.3994420    -1.7974010    -0.8317830
  H        1.6076040     2.0422160     0.8629880
  H       -0.6712930     2.1216380    -0.5070250
  H       -0.5746270    -2.0444360     0.5668450
  H        3.8716190    -1.3816710    -0.5776140
  H        4.1315670     1.1252340     0.4699550
  H       -3.1528190     2.0640850    -0.4925600
  H       -3.0466780    -2.1247140     0.4868240
  H       -4.3493910    -0.0663800    -0.0199320
units angstrom
no_reorient  #important for SAPT in psi4, default
symmetry c1  #important for SAPT in psi4, default
}

set PROPERTIES_ORIGIN ["COM"]
properties('MP2/aug-cc-pvtz', properties = ['dipole'])
--------------------------------------------------------------------------

    Molecular point group: c1
  Charge       = 0
  Multiplicity = 1
  Basis Set: AUG-CC-PVTZ
    Blend: AUG-CC-PVTZ
  Basis Set: (AUG-CC-PVTZ AUX)
    Blend: AUG-CC-PVTZ-JKFIT

    Orbital Energies [Eh]
    ---------------------

    Doubly Occupied:

       1A    -15.624471     2A    -11.280192     3A    -11.254386
       4A    -11.251260     5A    -11.242647     6A    -11.241275
       7A    -11.241107     8A    -11.238367     9A    -11.238013
      10A    -11.222825    11A    -11.217679    12A     -1.291845
      13A     -1.156666    14A     -1.050005    15A     -1.043632
      16A     -1.017636    17A     -0.947682    18A     -0.844571
      19A     -0.832258    20A     -0.798317    21A     -0.773063
      22A     -0.734318    23A     -0.679799    24A     -0.638850
      25A     -0.628464    26A     -0.603394    27A     -0.589939
      28A     -0.584330    29A     -0.574689    30A     -0.564613
      31A     -0.522053    32A     -0.505295    33A     -0.497969
      34A     -0.473886    35A     -0.364994    36A     -0.356223
      37A     -0.342085    38A     -0.254185

  @DF-RHF Final Energy:  -438.46036216884414

   => Energetics <=

    Nuclear Repulsion Energy =            533.5319427874859457
    One-Electron Energy =               -1650.5386431437109422
    Two-Electron Energy =                 678.5463381873807975
    Total Energy =                       -438.4603621688440853
  Basis Set: (AUG-CC-PVTZ AUX)
    Blend: AUG-CC-PVTZ-RI
    Molecular point group: c1

    Geometry (in Angstrom), charge = 0, multiplicity = 1:

       Center              X                  Y                   Z               Mass
    ------------   -----------------  -----------------  -----------------  -----------------
         N            1.761146542463    -0.982987750611    -0.391496751674    14.003074004430
         C            0.991852542463     0.083844249389     0.022000248326    12.000000000000
         C           -0.466936457537     0.030873249389     0.013188248326    12.000000000000
         C            2.005009842463     1.220984749389     0.486108448326    12.000000000000
         C           -1.212323457537     1.186328249389    -0.275201751674    12.000000000000
         C           -1.152476457537    -1.164770750611     0.289024248326    12.000000000000
         C            3.095636542463    -0.685742750611    -0.282357751674    12.000000000000
         C            3.193189542463     0.594785249389     0.235940248326    12.000000000000
         C           -2.605664457537     1.148497249389    -0.274159751674    12.000000000000
         C           -2.546536457537    -1.204654750611     0.264445248326    12.000000000000
         C           -3.278770457537    -0.048552750611    -0.014676751674    12.000000000000
         H            1.383288542463    -1.809786750611    -0.836957751674     1.007825032230
         H            1.591450542463     2.029830249389     0.857813248326     1.007825032230
         H           -0.687446457537     2.109252249389    -0.512199751674     1.007825032230
         H           -0.590780457537    -2.056821750611     0.561670248326     1.007825032230
         H            3.855465542463    -1.394056750611    -0.582788751674     1.007825032230
         H            4.115413542463     1.112848249389     0.464780248326     1.007825032230
         H           -3.168972457537     2.051699249389    -0.497734751674     1.007825032230
         H           -3.062831457537    -2.137099750611     0.481649248326     1.007825032230
         H           -4.365544457537    -0.078765750611    -0.025106751674     1.007825032230

  Basis Set: AUG-CC-PVTZ
    Blend: AUG-CC-PVTZ
  Basis Set: (AUG-CC-PVTZ AUX)
    Blend: AUG-CC-PVTZ-JKFIT
	 Reference Energy          =    -438.4603621688441422 [Eh]
	 Singles Energy            =      -0.0000000000000000 [Eh]
	 Same-Spin Energy          =      -0.4988148412012668 [Eh]
	 Opposite-Spin Energy      =      -1.5316081803619235 [Eh]
	 Correlation Energy        =      -2.0304230215631902 [Eh]
	 Total Energy              =    -440.4907851904073368 [Eh]

	 ================> DF-SCS-MP2 Energies <==================
	-----------------------------------------------------------
	 SCS Same-Spin Scale       =       0.3333333333333333 [-]
	 SCS Opposite-Spin Scale   =       1.2000000000000000 [-]
	 SCS Same-Spin Energy      =      -0.1662716137337556 [Eh]
	 SCS Opposite-Spin Energy  =      -1.8379298164343081 [Eh]
	 SCS Correlation Energy    =      -2.0042014301680635 [Eh]
	 SCS Total Energy          =    -440.4645635990121946 [Eh]
	-----------------------------------------------------------

  Dipole Moment: [D]
     X:    -0.2638      Y:    -1.3991      Z:    -0.6697     Total:     1.5734

*** Psi4 exiting successfully. Buy a developer a beer!
