                               Psi4 1.4a3.dev225

  ==> Input File <==

--------------------------------------------------------------------------
#psi4
#
memory 32 gb

molecule  {
0 1
  N        1.7773000    -0.9706020    -0.3863220
  C        0.9968466     0.1117055     0.0331732
  C       -0.4507830     0.0432590     0.0183630
  C        1.8938950     1.0905280     0.4329840
  C       -1.1961700     1.1987140    -0.2700270
  C       -1.1363230    -1.1523850     0.2941990
  C        3.1117900    -0.6733570    -0.2771830
  C        3.2093430     0.6071710     0.2411150
  C       -2.5895110     1.1608830    -0.2689850
  C       -2.5303830    -1.1922690     0.2696200
  C       -3.2626170    -0.0361670    -0.0095020
  H        1.3994420    -1.7974010    -0.8317830
  H        1.6076040     2.0422160     0.8629880
  H       -0.6712930     2.1216380    -0.5070250
  H       -0.5746270    -2.0444360     0.5668450
  H        3.8716190    -1.3816710    -0.5776140
  H        4.1315670     1.1252340     0.4699550
  H       -3.1528190     2.0640850    -0.4925600
  H       -3.0466780    -2.1247140     0.4868240
  H       -4.3493910    -0.0663800    -0.0199320
units angstrom
no_reorient  #important for SAPT in psi4, default
symmetry c1  #important for SAPT in psi4, default
}

set PROPERTIES_ORIGIN ["COM"]
properties('MP2/aug-cc-pvtz', properties = ['dipole'])
--------------------------------------------------------------------------

    Molecular point group: c1
  Charge       = 0
  Multiplicity = 1
  Basis Set: AUG-CC-PVTZ
    Blend: AUG-CC-PVTZ
  Basis Set: (AUG-CC-PVTZ AUX)
    Blend: AUG-CC-PVTZ-JKFIT

    Orbital Energies [Eh]
    ---------------------

    Doubly Occupied:

       1A    -15.606737     2A    -11.262030     3A    -11.258233
       4A    -11.252569     5A    -11.242056     6A    -11.240652
       7A    -11.240506     8A    -11.237810     9A    -11.237508
      10A    -11.214533    11A    -11.212958    12A     -1.288634
      13A     -1.156471    14A     -1.050523    15A     -1.042157
      16A     -1.016738    17A     -0.958934    18A     -0.839257
      19A     -0.832306    20A     -0.787016    21A     -0.762943
      22A     -0.735586    23A     -0.679948    24A     -0.633504
      25A     -0.629908    26A     -0.592680    27A     -0.588617
      28A     -0.581068    29A     -0.567651    30A     -0.549076
      31A     -0.537996    32A     -0.504267    33A     -0.501958
      34A     -0.494552    35A     -0.364974    36A     -0.349594
      37A     -0.341314    38A     -0.273378

  @DF-RHF Final Energy:  -438.50791726613920

   => Energetics <=

    Nuclear Repulsion Energy =            536.7561574038843446
    One-Electron Energy =               -1657.1948690084254849
    Two-Electron Energy =                 681.9307943384019381
    Total Energy =                       -438.5079172661392022
  Basis Set: (AUG-CC-PVTZ AUX)
    Blend: AUG-CC-PVTZ-RI
    Molecular point group: c1

    Geometry (in Angstrom), charge = 0, multiplicity = 1:

       Center              X                  Y                   Z               Mass
    ------------   -----------------  -----------------  -----------------  -----------------
         N            1.772756885455    -0.972305101430    -0.387110111219    14.003074004430
         C            0.992303485455     0.110002398570     0.032385088781    12.000000000000
         C           -0.455326114545     0.041555898570     0.017574888781    12.000000000000
         C            1.889351885455     1.088824898570     0.432195888781    12.000000000000
         C           -1.200713114545     1.197010898570    -0.270815111219    12.000000000000
         C           -1.140866114545    -1.154088101430     0.293410888781    12.000000000000
         C            3.107246885455    -0.675060101430    -0.277971111219    12.000000000000
         C            3.204799885455     0.605467898570     0.240326888781    12.000000000000
         C           -2.594054114545     1.159179898570    -0.269773111219    12.000000000000
         C           -2.534926114545    -1.193972101430     0.268831888781    12.000000000000
         C           -3.267160114545    -0.037870101430    -0.010290111219    12.000000000000
         H            1.394898885455    -1.799104101430    -0.832571111219     1.007825032230
         H            1.603060885455     2.040512898570     0.862199888781     1.007825032230
         H           -0.675836114545     2.119934898570    -0.507813111219     1.007825032230
         H           -0.579170114545    -2.046139101430     0.566056888781     1.007825032230
         H            3.867075885455    -1.383374101430    -0.578402111219     1.007825032230
         H            4.127023885455     1.123530898570     0.469166888781     1.007825032230
         H           -3.157362114545     2.062381898570    -0.493348111219     1.007825032230
         H           -3.051221114545    -2.126417101430     0.486035888781     1.007825032230
         H           -4.353934114545    -0.068083101430    -0.020720111219     1.007825032230

  Basis Set: AUG-CC-PVTZ
    Blend: AUG-CC-PVTZ
  Basis Set: (AUG-CC-PVTZ AUX)
    Blend: AUG-CC-PVTZ-JKFIT
	 Reference Energy          =    -438.5079172661392022 [Eh]
	 Singles Energy            =      -0.0000000000000000 [Eh]
	 Same-Spin Energy          =      -0.4953381684566815 [Eh]
	 Opposite-Spin Energy      =      -1.5256806506047196 [Eh]
	 Correlation Energy        =      -2.0210188190614011 [Eh]
	 Total Energy              =    -440.5289360852005984 [Eh]

	 ================> DF-SCS-MP2 Energies <==================
	-----------------------------------------------------------
	 SCS Same-Spin Scale       =       0.3333333333333333 [-]
	 SCS Opposite-Spin Scale   =       1.2000000000000000 [-]
	 SCS Same-Spin Energy      =      -0.1651127228188938 [Eh]
	 SCS Opposite-Spin Energy  =      -1.8308167807256635 [Eh]
	 SCS Correlation Energy    =      -1.9959295035445572 [Eh]
	 SCS Total Energy          =    -440.5038467696837756 [Eh]
	-----------------------------------------------------------

  Dipole Moment: [D]
     X:    -0.4501      Y:    -1.2970      Z:    -0.6358     Total:     1.5130

*** Psi4 exiting successfully. Buy a developer a beer!
