                               Psi4 1.3.2 release

  ==> Input File <==

--------------------------------------------------------------------------
#psi4
#
memory 32 gb

molecule  {
0 1
  N        1.7773000    -0.9706020    -0.3863220
  C        1.0080060     0.0962300     0.0271750
  C       -0.4507830     0.0432590     0.0183630
  C        1.9128400     1.1324364     0.4509423
  C       -1.1961700     1.1987140    -0.2700270
  C       -1.1363230    -1.1523850     0.2941990
  C        3.1117900    -0.6733570    -0.2771830
  C        3.2093430     0.6071710     0.2411150
  C       -2.5895110     1.1608830    -0.2689850
  C       -2.5303830    -1.1922690     0.2696200
  C       -3.2626170    -0.0361670    -0.0095020
  H        1.3994420    -1.7974010    -0.8317830
  H        1.6076040     2.0422160     0.8629880
  H       -0.6712930     2.1216380    -0.5070250
  H       -0.5746270    -2.0444360     0.5668450
  H        3.8716190    -1.3816710    -0.5776140
  H        4.1315670     1.1252340     0.4699550
  H       -3.1528190     2.0640850    -0.4925600
  H       -3.0466780    -2.1247140     0.4868240
  H       -4.3493910    -0.0663800    -0.0199320
units angstrom
no_reorient  #important for SAPT in psi4, default
symmetry c1  #important for SAPT in psi4, default
}

set PROPERTIES_ORIGIN ["COM"]
properties('MP2/aug-cc-pvtz', properties = ['dipole'])
--------------------------------------------------------------------------

    Molecular point group: c1
  Charge       = 0
  Multiplicity = 1
  Basis Set: AUG-CC-PVTZ
    Blend: AUG-CC-PVTZ
  Basis Set: (AUG-CC-PVTZ AUX)
    Blend: AUG-CC-PVTZ-JKFIT

    Orbital Energies [Eh]
    ---------------------

    Doubly Occupied:

       1A    -15.611997     2A    -11.268126     3A    -11.255696
       4A    -11.253326     5A    -11.242115     6A    -11.240817
       7A    -11.240558     8A    -11.237984     9A    -11.237709
      10A    -11.216034    11A    -11.214878    12A     -1.292688
      13A     -1.156226    14A     -1.047165    15A     -1.042499
      16A     -1.016871    17A     -0.956017    18A     -0.838955
      19A     -0.832144    20A     -0.790316    21A     -0.768341
      22A     -0.734808    23A     -0.679434    24A     -0.633742
      25A     -0.629376    26A     -0.596092    27A     -0.589052
      28A     -0.583665    29A     -0.567518    30A     -0.553409
      31A     -0.537103    32A     -0.504707    33A     -0.499422
      34A     -0.492914    35A     -0.362009    36A     -0.351135
      37A     -0.341485    38A     -0.269079

  @DF-RHF Final Energy:  -438.50379325207837

   => Energetics <=

    Nuclear Repulsion Energy =            535.8850056800087032
    One-Electron Energy =               -1655.4067782451720632
    Two-Electron Energy =                 681.0179793130848793
    Total Energy =                       -438.5037932520783670
  Basis Set: (AUG-CC-PVTZ AUX)
    Blend: AUG-CC-PVTZ-RI
    Molecular point group: c1

    Geometry (in Angstrom), charge = 0, multiplicity = 1:

       Center              X                  Y                   Z               Mass
    ------------   -----------------  -----------------  -----------------  -----------------
         N            1.770231939873    -0.974522107385    -0.388113240385    14.003074004430
         C            1.000937939873     0.092309892615     0.025383759615    12.000000000000
         C           -0.457851060127     0.039338892615     0.016571759615    12.000000000000
         C            1.905771939873     1.128516292615     0.449151059615    12.000000000000
         C           -1.203238060127     1.194793892615    -0.271818240385    12.000000000000
         C           -1.143391060127    -1.156305107385     0.292407759615    12.000000000000
         C            3.104721939873    -0.677277107385    -0.278974240385    12.000000000000
         C            3.202274939873     0.603250892615     0.239323759615    12.000000000000
         C           -2.596579060127     1.156962892615    -0.270776240385    12.000000000000
         C           -2.537451060127    -1.196189107385     0.267828759615    12.000000000000
         C           -3.269685060127    -0.040087107385    -0.011293240385    12.000000000000
         H            1.392373939873    -1.801321107385    -0.833574240385     1.007825032230
         H            1.600535939873     2.038295892615     0.861196759615     1.007825032230
         H           -0.678361060127     2.117717892615    -0.508816240385     1.007825032230
         H           -0.581695060127    -2.048356107385     0.565053759615     1.007825032230
         H            3.864550939873    -1.385591107385    -0.579405240385     1.007825032230
         H            4.124498939873     1.121313892615     0.468163759615     1.007825032230
         H           -3.159887060127     2.060164892615    -0.494351240385     1.007825032230
         H           -3.053746060127    -2.128634107385     0.485032759615     1.007825032230
         H           -4.356459060127    -0.070300107385    -0.021723240385     1.007825032230

  Basis Set: AUG-CC-PVTZ
    Blend: AUG-CC-PVTZ
  Basis Set: (AUG-CC-PVTZ AUX)
    Blend: AUG-CC-PVTZ-JKFIT
	 Reference Energy          =    -438.5037932520783670 [Eh]
	 Singles Energy            =      -0.0000000000000000 [Eh]
	 Same-Spin Energy          =      -0.4958680628180491 [Eh]
	 Opposite-Spin Energy      =      -1.5264305436834853 [Eh]
	 Correlation Energy        =      -2.0222986065015345 [Eh]
	 Total Energy              =    -440.5260918585798890 [Eh]

	 ================> DF-SCS-MP2 Energies <==================
	-----------------------------------------------------------
	 SCS Same-Spin Scale       =       0.3333333333333333 [-]
	 SCS Opposite-Spin Scale   =       1.2000000000000000 [-]
	 SCS Same-Spin Energy      =      -0.1652893542726830 [Eh]
	 SCS Opposite-Spin Energy  =      -1.8317166524201822 [Eh]
	 SCS Correlation Energy    =      -1.9970060066928652 [Eh]
	 SCS Total Energy          =    -440.5007992587712238 [Eh]
	-----------------------------------------------------------

  Dipole Moment: [D]
     X:    -0.4216      Y:    -1.3456      Z:    -0.6561     Total:     1.5552

*** Psi4 exiting successfully. Buy a developer a beer!
