                               Psi4 1.4a3.dev225

  ==> Input File <==

--------------------------------------------------------------------------
#psi4
#
memory 32 gb

molecule  {
0 1
  N        1.7773000    -0.9706020    -0.3863220
  C        1.0080060     0.0962300     0.0271750
  C       -0.4507830     0.0432590     0.0183630
  C        1.9257121     1.1262386     0.4475588
  C       -1.1961700     1.1987140    -0.2700270
  C       -1.1363230    -1.1523850     0.2941990
  C        3.1117900    -0.6733570    -0.2771830
  C        3.2093430     0.6071710     0.2411150
  C       -2.5895110     1.1608830    -0.2689850
  C       -2.5303830    -1.1922690     0.2696200
  C       -3.2626170    -0.0361670    -0.0095020
  H        1.3994420    -1.7974010    -0.8317830
  H        1.6076040     2.0422160     0.8629880
  H       -0.6712930     2.1216380    -0.5070250
  H       -0.5746270    -2.0444360     0.5668450
  H        3.8716190    -1.3816710    -0.5776140
  H        4.1315670     1.1252340     0.4699550
  H       -3.1528190     2.0640850    -0.4925600
  H       -3.0466780    -2.1247140     0.4868240
  H       -4.3493910    -0.0663800    -0.0199320
units angstrom
no_reorient  #important for SAPT in psi4, default
symmetry c1  #important for SAPT in psi4, default
}

set PROPERTIES_ORIGIN ["COM"]
properties('MP2/aug-cc-pvtz', properties = ['dipole'])
--------------------------------------------------------------------------

    Molecular point group: c1
  Charge       = 0
  Multiplicity = 1
  Basis Set: AUG-CC-PVTZ
    Blend: AUG-CC-PVTZ
  Basis Set: (AUG-CC-PVTZ AUX)
    Blend: AUG-CC-PVTZ-JKFIT

    Orbital Energies [Eh]
    ---------------------

    Doubly Occupied:

       1A    -15.612526     2A    -11.267544     3A    -11.255352
       4A    -11.253553     5A    -11.242126     6A    -11.240807
       7A    -11.240568     8A    -11.237949     9A    -11.237671
      10A    -11.215697    11A    -11.213839    12A     -1.293175
      13A     -1.156218    14A     -1.046926    15A     -1.044846
      16A     -1.016959    17A     -0.955506    18A     -0.838999
      19A     -0.832115    20A     -0.790983    21A     -0.766881
      22A     -0.734910    23A     -0.679570    24A     -0.633782
      25A     -0.629301    26A     -0.595599    27A     -0.589083
      28A     -0.583582    29A     -0.567664    30A     -0.551415
      31A     -0.538664    32A     -0.504727    33A     -0.499758
      34A     -0.493009    35A     -0.361822    36A     -0.353198
      37A     -0.341491    38A     -0.267954

  @DF-RHF Final Energy:  -438.50377659174740

   => Energetics <=

    Nuclear Repulsion Energy =            535.9705010751021064
    One-Electron Energy =               -1655.5770198396380692
    Two-Electron Energy =                 681.1027421727884530
    Total Energy =                       -438.5037765917473962
  Basis Set: (AUG-CC-PVTZ AUX)
    Blend: AUG-CC-PVTZ-RI
    Molecular point group: c1

    Geometry (in Angstrom), charge = 0, multiplicity = 1:

       Center              X                  Y                   Z               Mass
    ------------   -----------------  -----------------  -----------------  -----------------
         N            1.769152318554    -0.974002279462    -0.387829456175    14.003074004430
         C            0.999858318554     0.092829720538     0.025667543825    12.000000000000
         C           -0.458930681446     0.039858720538     0.016855543825    12.000000000000
         C            1.917564418554     1.122838320538     0.446051343825    12.000000000000
         C           -1.204317681446     1.195313720538    -0.271534456175    12.000000000000
         C           -1.144470681446    -1.155785279462     0.292691543825    12.000000000000
         C            3.103642318554    -0.676757279462    -0.278690456175    12.000000000000
         C            3.201195318554     0.603770720538     0.239607543825    12.000000000000
         C           -2.597658681446     1.157482720538    -0.270492456175    12.000000000000
         C           -2.538530681446    -1.195669279462     0.268112543825    12.000000000000
         C           -3.270764681446    -0.039567279462    -0.011009456175    12.000000000000
         H            1.391294318554    -1.800801279462    -0.833290456175     1.007825032230
         H            1.599456318554     2.038815720538     0.861480543825     1.007825032230
         H           -0.679440681446     2.118237720538    -0.508532456175     1.007825032230
         H           -0.582774681446    -2.047836279462     0.565337543825     1.007825032230
         H            3.863471318554    -1.385071279462    -0.579121456175     1.007825032230
         H            4.123419318554     1.121833720538     0.468447543825     1.007825032230
         H           -3.160966681446     2.060684720538    -0.494067456175     1.007825032230
         H           -3.054825681446    -2.128114279462     0.485316543825     1.007825032230
         H           -4.357538681446    -0.069780279462    -0.021439456175     1.007825032230

  Basis Set: AUG-CC-PVTZ
    Blend: AUG-CC-PVTZ
  Basis Set: (AUG-CC-PVTZ AUX)
    Blend: AUG-CC-PVTZ-JKFIT
	 Reference Energy          =    -438.5037765917473962 [Eh]
	 Singles Energy            =      -0.0000000000000000 [Eh]
	 Same-Spin Energy          =      -0.4960908809610234 [Eh]
	 Opposite-Spin Energy      =      -1.5265921677201704 [Eh]
	 Correlation Energy        =      -2.0226830486811940 [Eh]
	 Total Energy              =    -440.5264596404285840 [Eh]

	 ================> DF-SCS-MP2 Energies <==================
	-----------------------------------------------------------
	 SCS Same-Spin Scale       =       0.3333333333333333 [-]
	 SCS Opposite-Spin Scale   =       1.2000000000000000 [-]
	 SCS Same-Spin Energy      =      -0.1653636269870078 [Eh]
	 SCS Opposite-Spin Energy  =      -1.8319106012642044 [Eh]
	 SCS Correlation Energy    =      -1.9972742282512121 [Eh]
	 SCS Total Energy          =    -440.5010508199986248 [Eh]
	-----------------------------------------------------------

  Dipole Moment: [D]
     X:    -0.4135      Y:    -1.3411      Z:    -0.6541     Total:     1.5483

*** Psi4 exiting successfully. Buy a developer a beer!
