                               Psi4 1.3.2 release

  ==> Input File <==

--------------------------------------------------------------------------
#psi4
#
memory 32 gb

molecule  {
0 1
  N        1.7773000    -0.9706020    -0.3863220
  C        1.0080060     0.0962300     0.0271750
  C       -0.4507830     0.0432590     0.0183630
  C        1.8850195     1.0691809     0.4243235
  C       -1.1961700     1.1987140    -0.2700270
  C       -1.1363230    -1.1523850     0.2941990
  C        3.1117900    -0.6733570    -0.2771830
  C        3.2093430     0.6071710     0.2411150
  C       -2.5895110     1.1608830    -0.2689850
  C       -2.5303830    -1.1922690     0.2696200
  C       -3.2626170    -0.0361670    -0.0095020
  H        1.3994420    -1.7974010    -0.8317830
  H        1.6076040     2.0422160     0.8629880
  H       -0.6712930     2.1216380    -0.5070250
  H       -0.5746270    -2.0444360     0.5668450
  H        3.8716190    -1.3816710    -0.5776140
  H        4.1315670     1.1252340     0.4699550
  H       -3.1528190     2.0640850    -0.4925600
  H       -3.0466780    -2.1247140     0.4868240
  H       -4.3493910    -0.0663800    -0.0199320
units angstrom
no_reorient  #important for SAPT in psi4, default
symmetry c1  #important for SAPT in psi4, default
}

set PROPERTIES_ORIGIN ["COM"]
properties('MP2/aug-cc-pvtz', properties = ['dipole'])
--------------------------------------------------------------------------

    Molecular point group: c1
  Charge       = 0
  Multiplicity = 1
  Basis Set: AUG-CC-PVTZ
    Blend: AUG-CC-PVTZ
  Basis Set: (AUG-CC-PVTZ AUX)
    Blend: AUG-CC-PVTZ-JKFIT

    Orbital Energies [Eh]
    ---------------------

    Doubly Occupied:

       1A    -15.606441     2A    -11.258962     3A    -11.257106
       4A    -11.253198     5A    -11.241985     6A    -11.240691
       7A    -11.240467     8A    -11.237942     9A    -11.237668
      10A    -11.213023    11A    -11.211780    12A     -1.295137
      13A     -1.156145    14A     -1.050067    15A     -1.043028
      16A     -1.016760    17A     -0.961037    18A     -0.837511
      19A     -0.832285    20A     -0.788230    21A     -0.762942
      22A     -0.735639    23A     -0.680211    24A     -0.633331
      25A     -0.629755    26A     -0.592695    27A     -0.588857
      28A     -0.582251    29A     -0.570449    30A     -0.551840
      31A     -0.531926    32A     -0.504530    33A     -0.501391
      34A     -0.494691    35A     -0.364339    36A     -0.349785
      37A     -0.341281    38A     -0.275603

  @DF-RHF Final Energy:  -438.50887811157503

   => Energetics <=

    Nuclear Repulsion Energy =            537.3151667874267332
    One-Electron Energy =               -1658.3061299406454054
    Two-Electron Energy =                 682.4820850416435860
    Total Energy =                       -438.5088781115750862
  Basis Set: (AUG-CC-PVTZ AUX)
    Blend: AUG-CC-PVTZ-RI
    Molecular point group: c1

    Geometry (in Angstrom), charge = 0, multiplicity = 1:

       Center              X                  Y                   Z               Mass
    ------------   -----------------  -----------------  -----------------  -----------------
         N            1.772565327968    -0.969216680428    -0.385880642443    14.003074004430
         C            1.003271327968     0.097615319572     0.027616357557    12.000000000000
         C           -0.455517672032     0.044644319572     0.018804357557    12.000000000000
         C            1.880284827968     1.070566219572     0.424764857557    12.000000000000
         C           -1.200904672032     1.200099319572    -0.269585642443    12.000000000000
         C           -1.141057672032    -1.150999680428     0.294640357557    12.000000000000
         C            3.107055327968    -0.671971680428    -0.276741642443    12.000000000000
         C            3.204608327968     0.608556319572     0.241556357557    12.000000000000
         C           -2.594245672032     1.162268319572    -0.268543642443    12.000000000000
         C           -2.535117672032    -1.190883680428     0.270061357557    12.000000000000
         C           -3.267351672032    -0.034781680428    -0.009060642443    12.000000000000
         H            1.394707327968    -1.796015680428    -0.831341642443     1.007825032230
         H            1.602869327968     2.043601319572     0.863429357557     1.007825032230
         H           -0.676027672032     2.123023319572    -0.506583642443     1.007825032230
         H           -0.579361672032    -2.043050680428     0.567286357557     1.007825032230
         H            3.866884327968    -1.380285680428    -0.577172642443     1.007825032230
         H            4.126832327968     1.126619319572     0.470396357557     1.007825032230
         H           -3.157553672032     2.065470319572    -0.492118642443     1.007825032230
         H           -3.051412672032    -2.123328680428     0.487265357557     1.007825032230
         H           -4.354125672032    -0.064994680428    -0.019490642443     1.007825032230

  Basis Set: AUG-CC-PVTZ
    Blend: AUG-CC-PVTZ
  Basis Set: (AUG-CC-PVTZ AUX)
    Blend: AUG-CC-PVTZ-JKFIT
	 Reference Energy          =    -438.5088781115750294 [Eh]
	 Singles Energy            =      -0.0000000000000000 [Eh]
	 Same-Spin Energy          =      -0.4949876659914413 [Eh]
	 Opposite-Spin Energy      =      -1.5249019276578850 [Eh]
	 Correlation Energy        =      -2.0198895936493262 [Eh]
	 Total Energy              =    -440.5287677052243680 [Eh]

	 ================> DF-SCS-MP2 Energies <==================
	-----------------------------------------------------------
	 SCS Same-Spin Scale       =       0.3333333333333333 [-]
	 SCS Opposite-Spin Scale   =       1.2000000000000000 [-]
	 SCS Same-Spin Energy      =      -0.1649958886638138 [Eh]
	 SCS Opposite-Spin Energy  =      -1.8298823131894619 [Eh]
	 SCS Correlation Energy    =      -1.9948782018532758 [Eh]
	 SCS Total Energy          =    -440.5037563134283118 [Eh]
	-----------------------------------------------------------

  Dipole Moment: [D]
     X:    -0.4645      Y:    -1.3073      Z:    -0.6444     Total:     1.5297

*** Psi4 exiting successfully. Buy a developer a beer!
