                               Psi4 1.4a3.dev225

  ==> Input File <==

--------------------------------------------------------------------------
#psi4
#
memory 32 gb

molecule  {
0 1
  N        1.7773000    -0.9706020    -0.3863220
  C        1.0080060     0.0962300     0.0271750
  C       -0.4507830     0.0432590     0.0183630
  C        1.8938950     1.0905280     0.4329840
  C       -1.1961700     1.1987140    -0.2700270
  C       -1.1363230    -1.1523850     0.2941990
  C        3.1117900    -0.6733570    -0.2771830
  C        3.2093430     0.6071710     0.2411150
  C       -2.5895110     1.1608830    -0.2689850
  C       -2.5303830    -1.1922690     0.2696200
  C       -3.2626170    -0.0361670    -0.0095020
  H        1.3919769    -1.8137356    -0.8405837
  H        1.6076040     2.0422160     0.8629880
  H       -0.6712930     2.1216380    -0.5070250
  H       -0.5746270    -2.0444360     0.5668450
  H        3.8716190    -1.3816710    -0.5776140
  H        4.1315670     1.1252340     0.4699550
  H       -3.1528190     2.0640850    -0.4925600
  H       -3.0466780    -2.1247140     0.4868240
  H       -4.3493910    -0.0663800    -0.0199320
units angstrom
no_reorient  #important for SAPT in psi4, default
symmetry c1  #important for SAPT in psi4, default
}

set PROPERTIES_ORIGIN ["COM"]
properties('MP2/aug-cc-pvtz', properties = ['dipole'])
--------------------------------------------------------------------------

    Molecular point group: c1
  Charge       = 0
  Multiplicity = 1
  Basis Set: AUG-CC-PVTZ
    Blend: AUG-CC-PVTZ
  Basis Set: (AUG-CC-PVTZ AUX)
    Blend: AUG-CC-PVTZ-JKFIT

    Orbital Energies [Eh]
    ---------------------

    Doubly Occupied:

       1A    -15.610065     2A    -11.262026     3A    -11.256546
       4A    -11.253168     5A    -11.241979     6A    -11.240680
       7A    -11.240429     8A    -11.237880     9A    -11.237611
      10A    -11.213820    11A    -11.212723    12A     -1.292713
      13A     -1.156078    14A     -1.048299    15A     -1.041537
      16A     -1.016668    17A     -0.959135    18A     -0.837585
      19A     -0.832156    20A     -0.784669    21A     -0.764668
      22A     -0.735049    23A     -0.679735    24A     -0.633190
      25A     -0.629496    26A     -0.592650    27A     -0.588217
      28A     -0.582715    29A     -0.568976    30A     -0.549325
      31A     -0.536817    32A     -0.504525    33A     -0.500744
      34A     -0.494294    35A     -0.363336    36A     -0.349972
      37A     -0.341302    38A     -0.273295

  @DF-RHF Final Energy:  -438.50773551159978

   => Energetics <=

    Nuclear Repulsion Energy =            536.7153113946955045
    One-Electron Energy =               -1657.1179491026155119
    Two-Electron Energy =                 681.8949021963201176
    Total Energy =                       -438.5077355115997761
  Basis Set: (AUG-CC-PVTZ AUX)
    Blend: AUG-CC-PVTZ-RI
    Molecular point group: c1

    Geometry (in Angstrom), charge = 0, multiplicity = 1:

       Center              X                  Y                   Z               Mass
    ------------   -----------------  -----------------  -----------------  -----------------
         N            1.771873498343    -0.970892062539    -0.386545031270    14.003074004430
         C            1.002579498343     0.095939937461     0.026951968730    12.000000000000
         C           -0.456209501657     0.042968937461     0.018139968730    12.000000000000
         C            1.888468498343     1.090237937461     0.432760968730    12.000000000000
         C           -1.201596501657     1.198423937461    -0.270250031270    12.000000000000
         C           -1.141749501657    -1.152675062539     0.293975968730    12.000000000000
         C            3.106363498343    -0.673647062539    -0.277406031270    12.000000000000
         C            3.203916498343     0.606880937461     0.240891968730    12.000000000000
         C           -2.594937501657     1.160592937461    -0.269208031270    12.000000000000
         C           -2.535809501657    -1.192559062539     0.269396968730    12.000000000000
         C           -3.268043501657    -0.036457062539    -0.009725031270    12.000000000000
         H            1.386550398343    -1.814025662539    -0.840806731270     1.007825032230
         H            1.602177498343     2.041925937461     0.862764968730     1.007825032230
         H           -0.676719501657     2.121347937461    -0.507248031270     1.007825032230
         H           -0.580053501657    -2.044726062539     0.566621968730     1.007825032230
         H            3.866192498343    -1.381961062539    -0.577837031270     1.007825032230
         H            4.126140498343     1.124943937461     0.469731968730     1.007825032230
         H           -3.158245501657     2.063794937461    -0.492783031270     1.007825032230
         H           -3.052104501657    -2.125004062539     0.486600968730     1.007825032230
         H           -4.354817501657    -0.066670062539    -0.020155031270     1.007825032230

  Basis Set: AUG-CC-PVTZ
    Blend: AUG-CC-PVTZ
  Basis Set: (AUG-CC-PVTZ AUX)
    Blend: AUG-CC-PVTZ-JKFIT
	 Reference Energy          =    -438.5077355115997761 [Eh]
	 Singles Energy            =      -0.0000000000000000 [Eh]
	 Same-Spin Energy          =      -0.4954337312406628 [Eh]
	 Opposite-Spin Energy      =      -1.5257223886605498 [Eh]
	 Correlation Energy        =      -2.0211561199012125 [Eh]
	 Total Energy              =    -440.5288916315009828 [Eh]

	 ================> DF-SCS-MP2 Energies <==================
	-----------------------------------------------------------
	 SCS Same-Spin Scale       =       0.3333333333333333 [-]
	 SCS Opposite-Spin Scale   =       1.2000000000000000 [-]
	 SCS Same-Spin Energy      =      -0.1651445770802209 [Eh]
	 SCS Opposite-Spin Energy  =      -1.8308668663926597 [Eh]
	 SCS Correlation Energy    =      -1.9960114434728806 [Eh]
	 SCS Total Energy          =    -440.5037469550726428 [Eh]
	-----------------------------------------------------------

  Dipole Moment: [D]
     X:    -0.4555      Y:    -1.3363      Z:    -0.6571     Total:     1.5572

*** Psi4 exiting successfully. Buy a developer a beer!
