                               Psi4 1.4a3.dev225

  ==> Input File <==

--------------------------------------------------------------------------
#psi4
#
memory 32 gb

molecule  {
0 1
  N        1.7773000    -0.9706020    -0.3863220
  C        0.9801076     0.1349187     0.0421705
  C       -0.4507830     0.0432590     0.0183630
  C        1.8938950     1.0905280     0.4329840
  C       -1.1961700     1.1987140    -0.2700270
  C       -1.1363230    -1.1523850     0.2941990
  C        3.1117900    -0.6733570    -0.2771830
  C        3.2093430     0.6071710     0.2411150
  C       -2.5895110     1.1608830    -0.2689850
  C       -2.5303830    -1.1922690     0.2696200
  C       -3.2626170    -0.0361670    -0.0095020
  H        1.3994420    -1.7974010    -0.8317830
  H        1.6076040     2.0422160     0.8629880
  H       -0.6712930     2.1216380    -0.5070250
  H       -0.5746270    -2.0444360     0.5668450
  H        3.8716190    -1.3816710    -0.5776140
  H        4.1315670     1.1252340     0.4699550
  H       -3.1528190     2.0640850    -0.4925600
  H       -3.0466780    -2.1247140     0.4868240
  H       -4.3493910    -0.0663800    -0.0199320
units angstrom
no_reorient  #important for SAPT in psi4, default
symmetry c1  #important for SAPT in psi4, default
}

set PROPERTIES_ORIGIN ["COM"]
properties('MP2/aug-cc-pvtz', properties = ['dipole'])
--------------------------------------------------------------------------

    Molecular point group: c1
  Charge       = 0
  Multiplicity = 1
  Basis Set: AUG-CC-PVTZ
    Blend: AUG-CC-PVTZ
  Basis Set: (AUG-CC-PVTZ AUX)
    Blend: AUG-CC-PVTZ-JKFIT

    Orbital Energies [Eh]
    ---------------------

    Doubly Occupied:

       1A    -15.604323     2A    -11.262064     3A    -11.260523
       4A    -11.251664     5A    -11.242168     6A    -11.240796
       7A    -11.240396     8A    -11.237725     9A    -11.237275
      10A    -11.216010    11A    -11.212633    12A     -1.280925
      13A     -1.157026    14A     -1.053014    15A     -1.041110
      16A     -1.016720    17A     -0.958530    18A     -0.841460
      19A     -0.832485    20A     -0.785008    21A     -0.760016
      22A     -0.735833    23A     -0.680017    24A     -0.634092
      25A     -0.630281    26A     -0.592338    27A     -0.588777
      28A     -0.577320    29A     -0.565373    30A     -0.547919
      31A     -0.539253    32A     -0.504556    33A     -0.502924
      34A     -0.494416    35A     -0.367372    36A     -0.348692
      37A     -0.341322    38A     -0.273209

  @DF-RHF Final Energy:  -438.50485236977744

   => Energetics <=

    Nuclear Repulsion Energy =            536.6535314432811674
    One-Electron Energy =               -1657.0056332158217174
    Two-Electron Energy =                 681.8472494027632820
    Total Energy =                       -438.5048523697773817
  Basis Set: (AUG-CC-PVTZ AUX)
    Blend: AUG-CC-PVTZ-RI
    Molecular point group: c1

    Geometry (in Angstrom), charge = 0, multiplicity = 1:

       Center              X                  Y                   Z               Mass
    ------------   -----------------  -----------------  -----------------  -----------------
         N            1.774160835181    -0.974252061569    -0.387864741535    14.003074004430
         C            0.976968435181     0.131268638431     0.040627758465    12.000000000000
         C           -0.453922164819     0.039608938431     0.016820258465    12.000000000000
         C            1.890755835181     1.086877938431     0.431441258465    12.000000000000
         C           -1.199309164819     1.195063938431    -0.271569741535    12.000000000000
         C           -1.139462164819    -1.156035061569     0.292656258465    12.000000000000
         C            3.108650835181    -0.677007061569    -0.278725741535    12.000000000000
         C            3.206203835181     0.603520938431     0.239572258465    12.000000000000
         C           -2.592650164819     1.157232938431    -0.270527741535    12.000000000000
         C           -2.533522164819    -1.195919061569     0.268077258465    12.000000000000
         C           -3.265756164819    -0.039817061569    -0.011044741535    12.000000000000
         H            1.396302835181    -1.801051061569    -0.833325741535     1.007825032230
         H            1.604464835181     2.038565938431     0.861445258465     1.007825032230
         H           -0.674432164819     2.117987938431    -0.508567741535     1.007825032230
         H           -0.577766164819    -2.048086061569     0.565302258465     1.007825032230
         H            3.868479835181    -1.385321061569    -0.579156741535     1.007825032230
         H            4.128427835181     1.121583938431     0.468412258465     1.007825032230
         H           -3.155958164819     2.060434938431    -0.494102741535     1.007825032230
         H           -3.049817164819    -2.128364061569     0.485281258465     1.007825032230
         H           -4.352530164819    -0.070030061569    -0.021474741535     1.007825032230

  Basis Set: AUG-CC-PVTZ
    Blend: AUG-CC-PVTZ
  Basis Set: (AUG-CC-PVTZ AUX)
    Blend: AUG-CC-PVTZ-JKFIT
	 Reference Energy          =    -438.5048523697774385 [Eh]
	 Singles Energy            =      -0.0000000000000000 [Eh]
	 Same-Spin Energy          =      -0.4954961838447675 [Eh]
	 Opposite-Spin Energy      =      -1.5262578375656815 [Eh]
	 Correlation Energy        =      -2.0217540214104490 [Eh]
	 Total Energy              =    -440.5266063911878973 [Eh]

	 ================> DF-SCS-MP2 Energies <==================
	-----------------------------------------------------------
	 SCS Same-Spin Scale       =       0.3333333333333333 [-]
	 SCS Opposite-Spin Scale   =       1.2000000000000000 [-]
	 SCS Same-Spin Energy      =      -0.1651653946149225 [Eh]
	 SCS Opposite-Spin Energy  =      -1.8315094050788177 [Eh]
	 SCS Correlation Energy    =      -1.9966747996937402 [Eh]
	 SCS Total Energy          =    -440.5015271694711601 [Eh]
	-----------------------------------------------------------

  Dipole Moment: [D]
     X:    -0.4547      Y:    -1.2642      Z:    -0.6185     Total:     1.4791

*** Psi4 exiting successfully. Buy a developer a beer!
