                               Psi4 1.3.2 release

  ==> Input File <==

--------------------------------------------------------------------------
#psi4
#
memory 32 gb

molecule  {
0 1
  N        1.7773000    -0.9706020    -0.3863220
  C        1.0080060     0.0962300     0.0271750
  C       -0.4507830     0.0432590     0.0183630
  C        1.8938950     1.0905280     0.4329840
  C       -1.1961700     1.1987140    -0.2700270
  C       -1.1363230    -1.1523850     0.2941990
  C        3.2090885    -0.6516847    -0.2692256
  C        3.2093430     0.6071710     0.2411150
  C       -2.5895110     1.1608830    -0.2689850
  C       -2.5303830    -1.1922690     0.2696200
  C       -3.2626170    -0.0361670    -0.0095020
  H        1.3994420    -1.7974010    -0.8317830
  H        1.6076040     2.0422160     0.8629880
  H       -0.6712930     2.1216380    -0.5070250
  H       -0.5746270    -2.0444360     0.5668450
  H        3.8716190    -1.3816710    -0.5776140
  H        4.1315670     1.1252340     0.4699550
  H       -3.1528190     2.0640850    -0.4925600
  H       -3.0466780    -2.1247140     0.4868240
  H       -4.3493910    -0.0663800    -0.0199320
units angstrom
no_reorient  #important for SAPT in psi4, default
symmetry c1  #important for SAPT in psi4, default
}

set PROPERTIES_ORIGIN ["COM"]
properties('MP2/aug-cc-pvtz', properties = ['dipole'])
--------------------------------------------------------------------------

    Molecular point group: c1
  Charge       = 0
  Multiplicity = 1
  Basis Set: AUG-CC-PVTZ
    Blend: AUG-CC-PVTZ
  Basis Set: (AUG-CC-PVTZ AUX)
    Blend: AUG-CC-PVTZ-JKFIT

    Orbital Energies [Eh]
    ---------------------

    Doubly Occupied:

       1A    -15.599373     2A    -11.268944     3A    -11.254952
       4A    -11.254207     5A    -11.243347     6A    -11.242232
       7A    -11.241917     8A    -11.240233     9A    -11.239798
      10A    -11.217980    11A    -11.210508    12A     -1.268874
      13A     -1.156801    14A     -1.047302    15A     -1.041681
      16A     -1.018004    17A     -0.961242    18A     -0.842452
      19A     -0.832794    20A     -0.782231    21A     -0.761503
      22A     -0.735423    23A     -0.679917    24A     -0.634870
      25A     -0.628805    26A     -0.595156    27A     -0.590624
      28A     -0.572607    29A     -0.559558    30A     -0.551056
      31A     -0.538265    32A     -0.504551    33A     -0.501800
      34A     -0.495447    35A     -0.363395    36A     -0.350020
      37A     -0.342448    38A     -0.278151

  @DF-RHF Final Energy:  -438.49798845525754

   => Energetics <=

    Nuclear Repulsion Energy =            535.1990507418596508
    One-Electron Energy =               -1654.0971397836294727
    Two-Electron Energy =                 680.4001005865121670
    Total Energy =                       -438.4979884552575413
  Basis Set: (AUG-CC-PVTZ AUX)
    Blend: AUG-CC-PVTZ-RI
    Molecular point group: c1

    Geometry (in Angstrom), charge = 0, multiplicity = 1:

       Center              X                  Y                   Z               Mass
    ------------   -----------------  -----------------  -----------------  -----------------
         N            1.763660198743    -0.972824845480    -0.387274435151    14.003074004430
         C            0.994366198743     0.094007154520     0.026222564849    12.000000000000
         C           -0.464422801257     0.041036154520     0.017410564849    12.000000000000
         C            1.880255198743     1.088305154520     0.432031564849    12.000000000000
         C           -1.209809801257     1.196491154520    -0.270979435151    12.000000000000
         C           -1.149962801257    -1.154607845480     0.293246564849    12.000000000000
         C            3.195448698743    -0.653907545480    -0.270178035151    12.000000000000
         C            3.195703198743     0.604948154520     0.240162564849    12.000000000000
         C           -2.603150801257     1.158660154520    -0.269937435151    12.000000000000
         C           -2.544022801257    -1.194491845480     0.268667564849    12.000000000000
         C           -3.276256801257    -0.038389845480    -0.010454435151    12.000000000000
         H            1.385802198743    -1.799623845480    -0.832735435151     1.007825032230
         H            1.593964198743     2.039993154520     0.862035564849     1.007825032230
         H           -0.684932801257     2.119415154520    -0.507977435151     1.007825032230
         H           -0.588266801257    -2.046658845480     0.565892564849     1.007825032230
         H            3.857979198743    -1.383893845480    -0.578566435151     1.007825032230
         H            4.117927198743     1.123011154520     0.469002564849     1.007825032230
         H           -3.166458801257     2.061862154520    -0.493512435151     1.007825032230
         H           -3.060317801257    -2.126936845480     0.485871564849     1.007825032230
         H           -4.363030801257    -0.068602845480    -0.020884435151     1.007825032230

  Basis Set: AUG-CC-PVTZ
    Blend: AUG-CC-PVTZ
  Basis Set: (AUG-CC-PVTZ AUX)
    Blend: AUG-CC-PVTZ-JKFIT
	 Reference Energy          =    -438.4979884552575413 [Eh]
	 Singles Energy            =      -0.0000000000000000 [Eh]
	 Same-Spin Energy          =      -0.4947368818567094 [Eh]
	 Opposite-Spin Energy      =      -1.5262450550531563 [Eh]
	 Correlation Energy        =      -2.0209819369098656 [Eh]
	 Total Energy              =    -440.5189703921674322 [Eh]

	 ================> DF-SCS-MP2 Energies <==================
	-----------------------------------------------------------
	 SCS Same-Spin Scale       =       0.3333333333333333 [-]
	 SCS Opposite-Spin Scale   =       1.2000000000000000 [-]
	 SCS Same-Spin Energy      =      -0.1649122939522364 [Eh]
	 SCS Opposite-Spin Energy  =      -1.8314940660637875 [Eh]
	 SCS Correlation Energy    =      -1.9964063600160240 [Eh]
	 SCS Total Energy          =    -440.4943948152735516 [Eh]
	-----------------------------------------------------------

  Dipole Moment: [D]
     X:    -0.4748      Y:    -1.2157      Z:    -0.6050     Total:     1.4385

*** Psi4 exiting successfully. Buy a developer a beer!
