                               Psi4 1.3.2 release

  ==> Input File <==

--------------------------------------------------------------------------
#psi4
#
memory 32 gb

molecule  {
0 1
  N        1.7773000    -0.9706020    -0.3863220
  C        1.0088436     0.0466836     0.0390360
  C       -0.4507830     0.0432590     0.0183630
  C        1.8938950     1.0905280     0.4329840
  C       -1.1961700     1.1987140    -0.2700270
  C       -1.1363230    -1.1523850     0.2941990
  C        3.1117900    -0.6733570    -0.2771830
  C        3.2093430     0.6071710     0.2411150
  C       -2.5895110     1.1608830    -0.2689850
  C       -2.5303830    -1.1922690     0.2696200
  C       -3.2626170    -0.0361670    -0.0095020
  H        1.3994420    -1.7974010    -0.8317830
  H        1.6076040     2.0422160     0.8629880
  H       -0.6712930     2.1216380    -0.5070250
  H       -0.5746270    -2.0444360     0.5668450
  H        3.8716190    -1.3816710    -0.5776140
  H        4.1315670     1.1252340     0.4699550
  H       -3.1528190     2.0640850    -0.4925600
  H       -3.0466780    -2.1247140     0.4868240
  H       -4.3493910    -0.0663800    -0.0199320
units angstrom
no_reorient  #important for SAPT in psi4, default
symmetry c1  #important for SAPT in psi4, default
}

set PROPERTIES_ORIGIN ["COM"]
properties('MP2/aug-cc-pvtz', properties = ['dipole'])
--------------------------------------------------------------------------

    Molecular point group: c1
  Charge       = 0
  Multiplicity = 1
  Basis Set: AUG-CC-PVTZ
    Blend: AUG-CC-PVTZ
  Basis Set: (AUG-CC-PVTZ AUX)
    Blend: AUG-CC-PVTZ-JKFIT

    Orbital Energies [Eh]
    ---------------------

    Doubly Occupied:

       1A    -15.612412     2A    -11.263389     3A    -11.253786
       4A    -11.253611     5A    -11.241977     6A    -11.241322
       7A    -11.240255     8A    -11.238866     9A    -11.238105
      10A    -11.214751    11A    -11.213120    12A     -1.303952
      13A     -1.156533    14A     -1.047452    15A     -1.043477
      16A     -1.017099    17A     -0.958812    18A     -0.837726
      19A     -0.832615    20A     -0.791400    21A     -0.767352
      22A     -0.735918    23A     -0.680007    24A     -0.634325
      25A     -0.629932    26A     -0.595360    27A     -0.589784
      28A     -0.586300    29A     -0.572453    30A     -0.547354
      31A     -0.534900    32A     -0.505587    33A     -0.500727
      34A     -0.492228    35A     -0.361742    36A     -0.350797
      37A     -0.341652    38A     -0.270470

  @DF-RHF Final Energy:  -438.50619195425452

   => Energetics <=

    Nuclear Repulsion Energy =            536.9705169324632834
    One-Electron Energy =               -1657.5583189695344117
    Two-Electron Energy =                 682.0816100828164963
    Total Energy =                       -438.5061919542545184
  Basis Set: (AUG-CC-PVTZ AUX)
    Blend: AUG-CC-PVTZ-RI
    Molecular point group: c1

    Geometry (in Angstrom), charge = 0, multiplicity = 1:

       Center              X                  Y                   Z               Mass
    ------------   -----------------  -----------------  -----------------  -----------------
         N            1.771750661377    -0.966851521250    -0.387601841696    14.003074004430
         C            1.003294261377     0.050434078750     0.037756158304    12.000000000000
         C           -0.456332338623     0.047009478750     0.017083158304    12.000000000000
         C            1.888345661377     1.094278478750     0.431704158304    12.000000000000
         C           -1.201719338623     1.202464478750    -0.271306841696    12.000000000000
         C           -1.141872338623    -1.148634521250     0.292919158304    12.000000000000
         C            3.106240661377    -0.669606521250    -0.278462841696    12.000000000000
         C            3.203793661377     0.610921478750     0.239835158304    12.000000000000
         C           -2.595060338623     1.164633478750    -0.270264841696    12.000000000000
         C           -2.535932338623    -1.188518521250     0.268340158304    12.000000000000
         C           -3.268166338623    -0.032416521250    -0.010781841696    12.000000000000
         H            1.393892661377    -1.793650521250    -0.833062841696     1.007825032230
         H            1.602054661377     2.045966478750     0.861708158304     1.007825032230
         H           -0.676842338623     2.125388478750    -0.508304841696     1.007825032230
         H           -0.580176338623    -2.040685521250     0.565565158304     1.007825032230
         H            3.866069661377    -1.377920521250    -0.578893841696     1.007825032230
         H            4.126017661377     1.128984478750     0.468675158304     1.007825032230
         H           -3.158368338623     2.067835478750    -0.493839841696     1.007825032230
         H           -3.052227338623    -2.120963521250     0.485544158304     1.007825032230
         H           -4.354940338623    -0.062629521250    -0.021211841696     1.007825032230

  Basis Set: AUG-CC-PVTZ
    Blend: AUG-CC-PVTZ
  Basis Set: (AUG-CC-PVTZ AUX)
    Blend: AUG-CC-PVTZ-JKFIT
	 Reference Energy          =    -438.5061919542545184 [Eh]
	 Singles Energy            =      -0.0000000000000000 [Eh]
	 Same-Spin Energy          =      -0.4957212249050049 [Eh]
	 Opposite-Spin Energy      =      -1.5256303707062044 [Eh]
	 Correlation Energy        =      -2.0213515956112094 [Eh]
	 Total Energy              =    -440.5275435498657544 [Eh]

	 ================> DF-SCS-MP2 Energies <==================
	-----------------------------------------------------------
	 SCS Same-Spin Scale       =       0.3333333333333333 [-]
	 SCS Opposite-Spin Scale   =       1.2000000000000000 [-]
	 SCS Same-Spin Energy      =      -0.1652404083016683 [Eh]
	 SCS Opposite-Spin Energy  =      -1.8307564448474452 [Eh]
	 SCS Correlation Energy    =      -1.9959968531491135 [Eh]
	 SCS Total Energy          =    -440.5021888074036269 [Eh]
	-----------------------------------------------------------

  Dipole Moment: [D]
     X:    -0.4427      Y:    -1.3698      Z:    -0.6817     Total:     1.5928

*** Psi4 exiting successfully. Buy a developer a beer!
