                               Psi4 1.4a3.dev225

  ==> Input File <==

--------------------------------------------------------------------------
#psi4
#
memory 32 gb

molecule  {
0 1
  N        1.7773000    -0.9706020    -0.3863220
  C        1.0080060     0.0962300     0.0271750
  C       -0.4507830     0.0432590     0.0183630
  C        1.8938950     1.0905280     0.4329840
  C       -1.2067810     1.2151625    -0.2741324
  C       -1.1363230    -1.1523850     0.2941990
  C        3.1117900    -0.6733570    -0.2771830
  C        3.2093430     0.6071710     0.2411150
  C       -2.5895110     1.1608830    -0.2689850
  C       -2.5303830    -1.1922690     0.2696200
  C       -3.2626170    -0.0361670    -0.0095020
  H        1.3994420    -1.7974010    -0.8317830
  H        1.6076040     2.0422160     0.8629880
  H       -0.6712930     2.1216380    -0.5070250
  H       -0.5746270    -2.0444360     0.5668450
  H        3.8716190    -1.3816710    -0.5776140
  H        4.1315670     1.1252340     0.4699550
  H       -3.1528190     2.0640850    -0.4925600
  H       -3.0466780    -2.1247140     0.4868240
  H       -4.3493910    -0.0663800    -0.0199320
units angstrom
no_reorient  #important for SAPT in psi4, default
symmetry c1  #important for SAPT in psi4, default
}

set PROPERTIES_ORIGIN ["COM"]
properties('MP2/aug-cc-pvtz', properties = ['dipole'])
--------------------------------------------------------------------------

    Molecular point group: c1
  Charge       = 0
  Multiplicity = 1
  Basis Set: AUG-CC-PVTZ
    Blend: AUG-CC-PVTZ
  Basis Set: (AUG-CC-PVTZ AUX)
    Blend: AUG-CC-PVTZ-JKFIT

    Orbital Energies [Eh]
    ---------------------

    Doubly Occupied:

       1A    -15.608389     2A    -11.262317     3A    -11.256877
       4A    -11.255253     5A    -11.242034     6A    -11.240322
       7A    -11.239760     8A    -11.238013     9A    -11.237499
      10A    -11.214140    11A    -11.213051    12A     -1.294270
      13A     -1.154924    14A     -1.047965    15A     -1.042905
      16A     -1.018124    17A     -0.958698    18A     -0.838758
      19A     -0.831195    20A     -0.788603    21A     -0.765259
      22A     -0.734598    23A     -0.681034    24A     -0.632528
      25A     -0.629916    26A     -0.594644    27A     -0.589451
      28A     -0.582071    29A     -0.569066    30A     -0.549978
      31A     -0.537406    32A     -0.504922    33A     -0.500523
      34A     -0.493277    35A     -0.362467    36A     -0.350352
      37A     -0.342571    38A     -0.272722

  @DF-RHF Final Energy:  -438.50830087412288

   => Energetics <=

    Nuclear Repulsion Energy =            536.5507119839505776
    One-Electron Energy =               -1656.7662553015047706
    Two-Electron Energy =                 681.7072424434313689
    Total Energy =                       -438.5083008741228241
  Basis Set: (AUG-CC-PVTZ AUX)
    Blend: AUG-CC-PVTZ-RI
    Molecular point group: c1

    Geometry (in Angstrom), charge = 0, multiplicity = 1:

       Center              X                  Y                   Z               Mass
    ------------   -----------------  -----------------  -----------------  -----------------
         N            1.772710889516    -0.972386709835    -0.386262692231    14.003074004430
         C            1.003416889516     0.094445290165     0.027234307769    12.000000000000
         C           -0.455372110484     0.041474290165     0.018422307769    12.000000000000
         C            1.889305889516     1.088743290165     0.433043307769    12.000000000000
         C           -1.211370110484     1.213377790165    -0.274073092231    12.000000000000
         C           -1.140912110484    -1.154169709835     0.294258307769    12.000000000000
         C            3.107200889516    -0.675141709835    -0.277123692231    12.000000000000
         C            3.204753889516     0.605386290165     0.241174307769    12.000000000000
         C           -2.594100110484     1.159098290165    -0.268925692231    12.000000000000
         C           -2.534972110484    -1.194053709835     0.269679307769    12.000000000000
         C           -3.267206110484    -0.037951709835    -0.009442692231    12.000000000000
         H            1.394852889516    -1.799185709835    -0.831723692231     1.007825032230
         H            1.603014889516     2.040431290165     0.863047307769     1.007825032230
         H           -0.675882110484     2.119853290165    -0.506965692231     1.007825032230
         H           -0.579216110484    -2.046220709835     0.566904307769     1.007825032230
         H            3.867029889516    -1.383455709835    -0.577554692231     1.007825032230
         H            4.126977889516     1.123449290165     0.470014307769     1.007825032230
         H           -3.157408110484     2.062300290165    -0.492500692231     1.007825032230
         H           -3.051267110484    -2.126498709835     0.486883307769     1.007825032230
         H           -4.353980110484    -0.068164709835    -0.019872692231     1.007825032230

  Basis Set: AUG-CC-PVTZ
    Blend: AUG-CC-PVTZ
  Basis Set: (AUG-CC-PVTZ AUX)
    Blend: AUG-CC-PVTZ-JKFIT
	 Reference Energy          =    -438.5083008741228809 [Eh]
	 Singles Energy            =      -0.0000000000000000 [Eh]
	 Same-Spin Energy          =      -0.4952488781945901 [Eh]
	 Opposite-Spin Energy      =      -1.5253603634675295 [Eh]
	 Correlation Energy        =      -2.0206092416621195 [Eh]
	 Total Energy              =    -440.5289101157849814 [Eh]

	 ================> DF-SCS-MP2 Energies <==================
	-----------------------------------------------------------
	 SCS Same-Spin Scale       =       0.3333333333333333 [-]
	 SCS Opposite-Spin Scale   =       1.2000000000000000 [-]
	 SCS Same-Spin Energy      =      -0.1650829593981967 [Eh]
	 SCS Opposite-Spin Energy  =      -1.8304324361610353 [Eh]
	 SCS Correlation Energy    =      -1.9955153955592320 [Eh]
	 SCS Total Energy          =    -440.5038162696820905 [Eh]
	-----------------------------------------------------------

  Dipole Moment: [D]
     X:    -0.4300      Y:    -1.3191      Z:    -0.6474     Total:     1.5310

*** Psi4 exiting successfully. Buy a developer a beer!
