                               Psi4 1.3.2 release

  ==> Input File <==

--------------------------------------------------------------------------
#psi4
#
memory 32 gb

molecule  {
0 1
  N        1.7773000    -0.9706020    -0.3863220
  C        1.0080060     0.0962300     0.0271750
  C       -0.4507830     0.0432590     0.0183630
  C        1.8938950     1.0905280     0.4329840
  C       -1.1961700     1.1987140    -0.2700270
  C       -1.1363230    -1.1523850     0.2941990
  C        3.1117900    -0.6733570    -0.2771830
  C        3.2093430     0.6071710     0.2411150
  C       -2.5895110     1.1608830    -0.2689850
  C       -2.5303830    -1.1922690     0.2696200
  C       -3.2626170    -0.0361670    -0.0095020
  H        1.3994420    -1.7974010    -0.8317830
  H        1.6076040     2.0422160     0.8629880
  H       -0.6712930     2.1216380    -0.5070250
  H       -0.5746270    -2.0444360     0.5668450
  H        3.8013520    -1.3161680    -0.5498309
  H        4.1315670     1.1252340     0.4699550
  H       -3.1528190     2.0640850    -0.4925600
  H       -3.0466780    -2.1247140     0.4868240
  H       -4.3493910    -0.0663800    -0.0199320
units angstrom
no_reorient  #important for SAPT in psi4, default
symmetry c1  #important for SAPT in psi4, default
}

set PROPERTIES_ORIGIN ["COM"]
properties('MP2/aug-cc-pvtz', properties = ['dipole'])
--------------------------------------------------------------------------

    Molecular point group: c1
  Charge       = 0
  Multiplicity = 1
  Basis Set: AUG-CC-PVTZ
    Blend: AUG-CC-PVTZ
  Basis Set: (AUG-CC-PVTZ AUX)
    Blend: AUG-CC-PVTZ-JKFIT

    Orbital Energies [Eh]
    ---------------------

    Doubly Occupied:

       1A    -15.607622     2A    -11.261899     3A    -11.253078
       4A    -11.244968     5A    -11.241951     6A    -11.240652
       7A    -11.240412     8A    -11.237867     9A    -11.237596
      10A    -11.213428    11A    -11.212335    12A     -1.293899
      13A     -1.156120    14A     -1.049295    15A     -1.042822
      16A     -1.016698    17A     -0.963860    18A     -0.841232
      19A     -0.832204    20A     -0.789216    21A     -0.769378
      22A     -0.741495    23A     -0.683960    24A     -0.637367
      25A     -0.629563    26A     -0.593375    27A     -0.589067
      28A     -0.587646    29A     -0.569033    30A     -0.549079
      31A     -0.540718    32A     -0.504628    33A     -0.500698
      34A     -0.494319    35A     -0.363307    36A     -0.349790
      37A     -0.341271    38A     -0.273320

  @DF-RHF Final Energy:  -438.50272369599537

   => Energetics <=

    Nuclear Repulsion Energy =            537.3814427654014025
    One-Electron Energy =               -1658.3779994553024153
    Two-Electron Energy =                 682.4938329939055848
    Total Energy =                       -438.5027236959953143
  Basis Set: (AUG-CC-PVTZ AUX)
    Blend: AUG-CC-PVTZ-RI
    Molecular point group: c1

    Geometry (in Angstrom), charge = 0, multiplicity = 1:

       Center              X                  Y                   Z               Mass
    ------------   -----------------  -----------------  -----------------  -----------------
         N            1.772315881644    -0.971468535347    -0.386802731470    14.003074004430
         C            1.003021881644     0.095363464653     0.026694268530    12.000000000000
         C           -0.455767118356     0.042392464653     0.017882268530    12.000000000000
         C            1.888910881644     1.089661464653     0.432503268530    12.000000000000
         C           -1.201154118356     1.197847464653    -0.270507731470    12.000000000000
         C           -1.141307118356    -1.153251535347     0.293718268530    12.000000000000
         C            3.106805881644    -0.674223535347    -0.277663731470    12.000000000000
         C            3.204358881644     0.606304464653     0.240634268530    12.000000000000
         C           -2.594495118356     1.160016464653    -0.269465731470    12.000000000000
         C           -2.535367118356    -1.193135535347     0.269139268530    12.000000000000
         C           -3.267601118356    -0.037033535347    -0.009982731470    12.000000000000
         H            1.394457881644    -1.798267535347    -0.832263731470     1.007825032230
         H            1.602619881644     2.041349464653     0.862507268530     1.007825032230
         H           -0.676277118356     2.120771464653    -0.507505731470     1.007825032230
         H           -0.579611118356    -2.045302535347     0.566364268530     1.007825032230
         H            3.796367881644    -1.317034535347    -0.550311631470     1.007825032230
         H            4.126582881644     1.124367464653     0.469474268530     1.007825032230
         H           -3.157803118356     2.063218464653    -0.493040731470     1.007825032230
         H           -3.051662118356    -2.125580535347     0.486343268530     1.007825032230
         H           -4.354375118356    -0.067246535347    -0.020412731470     1.007825032230

  Basis Set: AUG-CC-PVTZ
    Blend: AUG-CC-PVTZ
  Basis Set: (AUG-CC-PVTZ AUX)
    Blend: AUG-CC-PVTZ-JKFIT
	 Reference Energy          =    -438.5027236959953711 [Eh]
	 Singles Energy            =      -0.0000000000000000 [Eh]
	 Same-Spin Energy          =      -0.4950984183987409 [Eh]
	 Opposite-Spin Energy      =      -1.5247899649092012 [Eh]
	 Correlation Energy        =      -2.0198883833079422 [Eh]
	 Total Energy              =    -440.5226120793033147 [Eh]

	 ================> DF-SCS-MP2 Energies <==================
	-----------------------------------------------------------
	 SCS Same-Spin Scale       =       0.3333333333333333 [-]
	 SCS Opposite-Spin Scale   =       1.2000000000000000 [-]
	 SCS Same-Spin Energy      =      -0.1650328061329136 [Eh]
	 SCS Opposite-Spin Energy  =      -1.8297479578910414 [Eh]
	 SCS Correlation Energy    =      -1.9947807640239550 [Eh]
	 SCS Total Energy          =    -440.4975044600193428 [Eh]
	-----------------------------------------------------------

  Dipole Moment: [D]
     X:    -0.4484      Y:    -1.3210      Z:    -0.6485     Total:     1.5384

*** Psi4 exiting successfully. Buy a developer a beer!
