                               Psi4 1.3.2 release

  ==> Input File <==

--------------------------------------------------------------------------
#psi4
#
memory 32 gb

molecule  {
0 1
  N        1.7773000    -0.9706020    -0.3863220
  C        1.0080060     0.0962300     0.0271750
  C       -0.4507830     0.0432590     0.0183630
  C        1.8938950     1.0905280     0.4329840
  C       -1.1961700     1.1987140    -0.2700270
  C       -1.1363230    -1.1523850     0.2941990
  C        3.1117900    -0.6733570    -0.2771830
  C        3.2163871     0.6996357     0.2785404
  C       -2.5895110     1.1608830    -0.2689850
  C       -2.5303830    -1.1922690     0.2696200
  C       -3.2626170    -0.0361670    -0.0095020
  H        1.3994420    -1.7974010    -0.8317830
  H        1.6076040     2.0422160     0.8629880
  H       -0.6712930     2.1216380    -0.5070250
  H       -0.5746270    -2.0444360     0.5668450
  H        3.8716190    -1.3816710    -0.5776140
  H        4.1315670     1.1252340     0.4699550
  H       -3.1528190     2.0640850    -0.4925600
  H       -3.0466780    -2.1247140     0.4868240
  H       -4.3493910    -0.0663800    -0.0199320
units angstrom
no_reorient  #important for SAPT in psi4, default
symmetry c1  #important for SAPT in psi4, default
}

set PROPERTIES_ORIGIN ["COM"]
properties('MP2/aug-cc-pvtz', properties = ['dipole'])
--------------------------------------------------------------------------

    Molecular point group: c1
  Charge       = 0
  Multiplicity = 1
  Basis Set: AUG-CC-PVTZ
    Blend: AUG-CC-PVTZ
  Basis Set: (AUG-CC-PVTZ AUX)
    Blend: AUG-CC-PVTZ-JKFIT

    Orbital Energies [Eh]
    ---------------------

    Doubly Occupied:

       1A    -15.617773     2A    -11.268465     3A    -11.259927
       4A    -11.253432     5A    -11.241531     6A    -11.240154
       7A    -11.239717     8A    -11.236830     9A    -11.236594
      10A    -11.219170    11A    -11.215539    12A     -1.293597
      13A     -1.155393    14A     -1.051829    15A     -1.040058
      16A     -1.016257    17A     -0.952707    18A     -0.835896
      19A     -0.832163    20A     -0.800467    21A     -0.767046
      22A     -0.734589    23A     -0.679490    24A     -0.633157
      25A     -0.630095    26A     -0.602168    27A     -0.589657
      28A     -0.582021    29A     -0.569568    30A     -0.562839
      31A     -0.516000    32A     -0.503800    33A     -0.502183
      34A     -0.494463    35A     -0.364656    36A     -0.351804
      37A     -0.340873    38A     -0.263783

  @DF-RHF Final Energy:  -438.49336080861258

   => Energetics <=

    Nuclear Repulsion Energy =            535.6990106570488024
    One-Electron Energy =               -1654.9933572180705141
    Two-Electron Energy =                 680.8009857524091331
    Total Energy =                       -438.4933608086125787
  Basis Set: (AUG-CC-PVTZ AUX)
    Blend: AUG-CC-PVTZ-RI
    Molecular point group: c1

    Geometry (in Angstrom), charge = 0, multiplicity = 1:

       Center              X                  Y                   Z               Mass
    ------------   -----------------  -----------------  -----------------  -----------------
         N            1.771230103759    -0.978762414661    -0.389746003973    14.003074004430
         C            1.001936103759     0.088069585339     0.023750996027    12.000000000000
         C           -0.456852896241     0.035098585339     0.014938996027    12.000000000000
         C            1.887825103759     1.082367585339     0.429559996027    12.000000000000
         C           -1.202239896241     1.190553585339    -0.273451003973    12.000000000000
         C           -1.142392896241    -1.160545414661     0.290774996027    12.000000000000
         C            3.105720103759    -0.681517414661    -0.280607003973    12.000000000000
         C            3.210317203759     0.691475285339     0.275116396027    12.000000000000
         C           -2.595580896241     1.152722585339    -0.272409003973    12.000000000000
         C           -2.536452896241    -1.200429414661     0.266195996027    12.000000000000
         C           -3.268686896241    -0.044327414661    -0.012926003973    12.000000000000
         H            1.393372103759    -1.805561414661    -0.835207003973     1.007825032230
         H            1.601534103759     2.034055585339     0.859563996027     1.007825032230
         H           -0.677362896241     2.113477585339    -0.510449003973     1.007825032230
         H           -0.580696896241    -2.052596414661     0.563420996027     1.007825032230
         H            3.865549103759    -1.389831414661    -0.581038003973     1.007825032230
         H            4.125497103759     1.117073585339     0.466530996027     1.007825032230
         H           -3.158888896241     2.055924585339    -0.495984003973     1.007825032230
         H           -3.052747896241    -2.132874414661     0.483399996027     1.007825032230
         H           -4.355460896241    -0.074540414661    -0.023356003973     1.007825032230

  Basis Set: AUG-CC-PVTZ
    Blend: AUG-CC-PVTZ
  Basis Set: (AUG-CC-PVTZ AUX)
    Blend: AUG-CC-PVTZ-JKFIT
	 Reference Energy          =    -438.4933608086125787 [Eh]
	 Singles Energy            =      -0.0000000000000000 [Eh]
	 Same-Spin Energy          =      -0.4968733514884971 [Eh]
	 Opposite-Spin Energy      =      -1.5282340110987835 [Eh]
	 Correlation Energy        =      -2.0251073625872804 [Eh]
	 Total Energy              =    -440.5184681711998564 [Eh]

	 ================> DF-SCS-MP2 Energies <==================
	-----------------------------------------------------------
	 SCS Same-Spin Scale       =       0.3333333333333333 [-]
	 SCS Opposite-Spin Scale   =       1.2000000000000000 [-]
	 SCS Same-Spin Energy      =      -0.1656244504961657 [Eh]
	 SCS Opposite-Spin Energy  =      -1.8338808133185402 [Eh]
	 SCS Correlation Energy    =      -1.9995052638147059 [Eh]
	 SCS Total Energy          =    -440.4928660724272618 [Eh]
	-----------------------------------------------------------

  Dipole Moment: [D]
     X:    -0.4446      Y:    -1.3318      Z:    -0.6543     Total:     1.5490

*** Psi4 exiting successfully. Buy a developer a beer!
