                               Psi4 1.3.2 release

  ==> Input File <==

--------------------------------------------------------------------------
#psi4
#
memory 32 gb

molecule  {
0 1
  N        1.7773000    -0.9706020    -0.3863220
  C        1.0080060     0.0962300     0.0271750
  C       -0.4507830     0.0432590     0.0183630
  C        1.8765526     1.0480307     0.4147919
  C       -1.1961700     1.1987140    -0.2700270
  C       -1.1363230    -1.1523850     0.2941990
  C        3.1117900    -0.6733570    -0.2771830
  C        3.2093430     0.6071710     0.2411150
  C       -2.5895110     1.1608830    -0.2689850
  C       -2.5303830    -1.1922690     0.2696200
  C       -3.2626170    -0.0361670    -0.0095020
  H        1.3994420    -1.7974010    -0.8317830
  H        1.6076040     2.0422160     0.8629880
  H       -0.6712930     2.1216380    -0.5070250
  H       -0.5746270    -2.0444360     0.5668450
  H        3.8716190    -1.3816710    -0.5776140
  H        4.1315670     1.1252340     0.4699550
  H       -3.1528190     2.0640850    -0.4925600
  H       -3.0466780    -2.1247140     0.4868240
  H       -4.3493910    -0.0663800    -0.0199320
units angstrom
no_reorient  #important for SAPT in psi4, default
symmetry c1  #important for SAPT in psi4, default
}

set PROPERTIES_ORIGIN ["COM"]
properties('MP2/aug-cc-pvtz', properties = ['dipole'])
--------------------------------------------------------------------------

    Molecular point group: c1
  Charge       = 0
  Multiplicity = 1
  Basis Set: AUG-CC-PVTZ
    Blend: AUG-CC-PVTZ
  Basis Set: (AUG-CC-PVTZ AUX)
    Blend: AUG-CC-PVTZ-JKFIT

    Orbital Energies [Eh]
    ---------------------

    Doubly Occupied:

       1A    -15.604642     2A    -11.257610     3A    -11.255780
       4A    -11.253170     5A    -11.241975     6A    -11.240678
       7A    -11.240479     8A    -11.237971     9A    -11.237691
      10A    -11.212254    11A    -11.210721    12A     -1.296307
      13A     -1.156157    14A     -1.051373    15A     -1.043126
      16A     -1.016755    17A     -0.962978    18A     -0.837287
      19A     -0.832383    20A     -0.788124    21A     -0.760739
      22A     -0.736013    23A     -0.680582    24A     -0.633601
      25A     -0.629781    26A     -0.592056    27A     -0.589003
      28A     -0.581398    29A     -0.571721    30A     -0.554935
      31A     -0.525724    32A     -0.504472    33A     -0.501797
      34A     -0.494875    35A     -0.365376    36A     -0.349367
      37A     -0.341237    38A     -0.277849

  @DF-RHF Final Energy:  -438.50705668445408

   => Energetics <=

    Nuclear Repulsion Energy =            537.8092371416666992
    One-Electron Energy =               -1659.2966150097302034
    Two-Electron Energy =                 682.9803211836093624
    Total Energy =                       -438.5070566844541418
  Basis Set: (AUG-CC-PVTZ AUX)
    Blend: AUG-CC-PVTZ-RI
    Molecular point group: c1

    Geometry (in Angstrom), charge = 0, multiplicity = 1:

       Center              X                  Y                   Z               Mass
    ------------   -----------------  -----------------  -----------------  -----------------
         N            1.773275472059    -0.967442750237    -0.385081198797    14.003074004430
         C            1.003981472059     0.099389249763     0.028415801203    12.000000000000
         C           -0.454807527941     0.046418249763     0.019603801203    12.000000000000
         C            1.872528072059     1.051189949763     0.416032701203    12.000000000000
         C           -1.200194527941     1.201873249763    -0.268786198797    12.000000000000
         C           -1.140347527941    -1.149225750237     0.295439801203    12.000000000000
         C            3.107765472059    -0.670197750237    -0.275942198797    12.000000000000
         C            3.205318472059     0.610330249763     0.242355801203    12.000000000000
         C           -2.593535527941     1.164042249763    -0.267744198797    12.000000000000
         C           -2.534407527941    -1.189109750237     0.270860801203    12.000000000000
         C           -3.266641527941    -0.033007750237    -0.008261198797    12.000000000000
         H            1.395417472059    -1.794241750237    -0.830542198797     1.007825032230
         H            1.603579472059     2.045375249763     0.864228801203     1.007825032230
         H           -0.675317527941     2.124797249763    -0.505784198797     1.007825032230
         H           -0.578651527941    -2.041276750237     0.568085801203     1.007825032230
         H            3.867594472059    -1.378511750237    -0.576373198797     1.007825032230
         H            4.127542472059     1.128393249763     0.471195801203     1.007825032230
         H           -3.156843527941     2.067244249763    -0.491319198797     1.007825032230
         H           -3.050702527941    -2.121554750237     0.488064801203     1.007825032230
         H           -4.353415527941    -0.063220750237    -0.018691198797     1.007825032230

  Basis Set: AUG-CC-PVTZ
    Blend: AUG-CC-PVTZ
  Basis Set: (AUG-CC-PVTZ AUX)
    Blend: AUG-CC-PVTZ-JKFIT
	 Reference Energy          =    -438.5070566844540849 [Eh]
	 Singles Energy            =      -0.0000000000000000 [Eh]
	 Same-Spin Energy          =      -0.4947504012767674 [Eh]
	 Opposite-Spin Energy      =      -1.5245480900027737 [Eh]
	 Correlation Energy        =      -2.0192984912795411 [Eh]
	 Total Energy              =    -440.5263551757336131 [Eh]

	 ================> DF-SCS-MP2 Energies <==================
	-----------------------------------------------------------
	 SCS Same-Spin Scale       =       0.3333333333333333 [-]
	 SCS Opposite-Spin Scale   =       1.2000000000000000 [-]
	 SCS Same-Spin Energy      =      -0.1649168004255891 [Eh]
	 SCS Opposite-Spin Energy  =      -1.8294577080033283 [Eh]
	 SCS Correlation Energy    =      -1.9943745084289175 [Eh]
	 SCS Total Energy          =    -440.5014311928829898 [Eh]
	-----------------------------------------------------------

  Dipole Moment: [D]
     X:    -0.4768      Y:    -1.2976      Z:    -0.6412     Total:     1.5239

*** Psi4 exiting successfully. Buy a developer a beer!
