                               Psi4 1.3.2 release

  ==> Input File <==

--------------------------------------------------------------------------
#psi4
#
memory 32 gb

molecule  {
0 1
  N        1.7773000    -0.9706020    -0.3863220
  C        0.8964122     0.2509846     0.0871569
  C       -0.4507830     0.0432590     0.0183630
  C        1.8938950     1.0905280     0.4329840
  C       -1.1961700     1.1987140    -0.2700270
  C       -1.1363230    -1.1523850     0.2941990
  C        3.1117900    -0.6733570    -0.2771830
  C        3.2093430     0.6071710     0.2411150
  C       -2.5895110     1.1608830    -0.2689850
  C       -2.5303830    -1.1922690     0.2696200
  C       -3.2626170    -0.0361670    -0.0095020
  H        1.3994420    -1.7974010    -0.8317830
  H        1.6076040     2.0422160     0.8629880
  H       -0.6712930     2.1216380    -0.5070250
  H       -0.5746270    -2.0444360     0.5668450
  H        3.8716190    -1.3816710    -0.5776140
  H        4.1315670     1.1252340     0.4699550
  H       -3.1528190     2.0640850    -0.4925600
  H       -3.0466780    -2.1247140     0.4868240
  H       -4.3493910    -0.0663800    -0.0199320
units angstrom
no_reorient  #important for SAPT in psi4, default
symmetry c1  #important for SAPT in psi4, default
}

set PROPERTIES_ORIGIN ["COM"]
properties('MP2/aug-cc-pvtz', properties = ['dipole'])
--------------------------------------------------------------------------

    Molecular point group: c1
  Charge       = 0
  Multiplicity = 1
  Basis Set: AUG-CC-PVTZ
    Blend: AUG-CC-PVTZ
  Basis Set: (AUG-CC-PVTZ AUX)
    Blend: AUG-CC-PVTZ-JKFIT

    Orbital Energies [Eh]
    ---------------------

    Doubly Occupied:

       1A    -15.589856     2A    -11.269665     3A    -11.265242
       4A    -11.248800     5A    -11.243619     6A    -11.242415
       7A    -11.240455     8A    -11.238197     9A    -11.237131
      10A    -11.224928    11A    -11.210394    12A     -1.250684
      13A     -1.161283    14A     -1.066070    15A     -1.037473
      16A     -1.017491    17A     -0.957089    18A     -0.854048
      19A     -0.834088    20A     -0.779674    21A     -0.750762
      22A     -0.732889    23A     -0.680277    24A     -0.639691
      25A     -0.632791    26A     -0.597237    27A     -0.590145
      28A     -0.566762    29A     -0.556032    30A     -0.542599
      31A     -0.529744    32A     -0.511555    33A     -0.500984
      34A     -0.485646    35A     -0.379410    36A     -0.345029
      37A     -0.342175    38A     -0.270239

  @DF-RHF Final Energy:  -438.46665177975950

   => Energetics <=

    Nuclear Repulsion Energy =            536.2342041869040941
    One-Electron Energy =               -1656.1565740967719194
    Two-Electron Energy =                 681.4557181301083801
    Total Energy =                       -438.4666517797595588
  Basis Set: (AUG-CC-PVTZ AUX)
    Blend: AUG-CC-PVTZ-RI
    Molecular point group: c1

    Geometry (in Angstrom), charge = 0, multiplicity = 1:

       Center              X                  Y                   Z               Mass
    ------------   -----------------  -----------------  -----------------  -----------------
         N            1.781180617355    -0.983986853874    -0.391637884728    14.003074004430
         C            0.900292817355     0.237599746126     0.081841015272    12.000000000000
         C           -0.446902382645     0.029874146126     0.013047115272    12.000000000000
         C            1.897775617355     1.077143146126     0.427668115272    12.000000000000
         C           -1.192289382645     1.185329146126    -0.275342884728    12.000000000000
         C           -1.132442382645    -1.165769853874     0.288883115272    12.000000000000
         C            3.115670617355    -0.686741853874    -0.282498884728    12.000000000000
         C            3.213223617355     0.593786146126     0.235799115272    12.000000000000
         C           -2.585630382645     1.147498146126    -0.274300884728    12.000000000000
         C           -2.526502382645    -1.205653853874     0.264304115272    12.000000000000
         C           -3.258736382645    -0.049551853874    -0.014817884728    12.000000000000
         H            1.403322617355    -1.810785853874    -0.837098884728     1.007825032230
         H            1.611484617355     2.028831146126     0.857672115272     1.007825032230
         H           -0.667412382645     2.108253146126    -0.512340884728     1.007825032230
         H           -0.570746382645    -2.057820853874     0.561529115272     1.007825032230
         H            3.875499617355    -1.395055853874    -0.582929884728     1.007825032230
         H            4.135447617355     1.111849146126     0.464639115272     1.007825032230
         H           -3.148938382645     2.050700146126    -0.497875884728     1.007825032230
         H           -3.042797382645    -2.138098853874     0.481508115272     1.007825032230
         H           -4.345510382645    -0.079764853874    -0.025247884728     1.007825032230

  Basis Set: AUG-CC-PVTZ
    Blend: AUG-CC-PVTZ
  Basis Set: (AUG-CC-PVTZ AUX)
    Blend: AUG-CC-PVTZ-JKFIT
	 Reference Energy          =    -438.4666517797595020 [Eh]
	 Singles Energy            =      -0.0000000000000000 [Eh]
	 Same-Spin Energy          =      -0.4970032221944892 [Eh]
	 Opposite-Spin Energy      =      -1.5301758612564482 [Eh]
	 Correlation Energy        =      -2.0271790834509376 [Eh]
	 Total Energy              =    -440.4938308632104622 [Eh]

	 ================> DF-SCS-MP2 Energies <==================
	-----------------------------------------------------------
	 SCS Same-Spin Scale       =       0.3333333333333333 [-]
	 SCS Opposite-Spin Scale   =       1.2000000000000000 [-]
	 SCS Same-Spin Energy      =      -0.1656677407314964 [Eh]
	 SCS Opposite-Spin Energy  =      -1.8362110335077377 [Eh]
	 SCS Correlation Energy    =      -2.0018787742392341 [Eh]
	 SCS Total Energy          =    -440.4685305539987326 [Eh]
	-----------------------------------------------------------

  Dipole Moment: [D]
     X:    -0.5781      Y:    -1.0971      Z:    -0.5324     Total:     1.3495

*** Psi4 exiting successfully. Buy a developer a beer!
