                               Psi4 1.4a3.dev225

  ==> Input File <==

--------------------------------------------------------------------------
#psi4
#
memory 32 gb

molecule  {
0 1
  N        1.7773000    -0.9706020    -0.3863220
  C        1.0080060     0.0962300     0.0271750
  C       -0.4707695     0.0425333     0.0182423
  C        1.8938950     1.0905280     0.4329840
  C       -1.1961700     1.1987140    -0.2700270
  C       -1.1363230    -1.1523850     0.2941990
  C        3.1117900    -0.6733570    -0.2771830
  C        3.2093430     0.6071710     0.2411150
  C       -2.5895110     1.1608830    -0.2689850
  C       -2.5303830    -1.1922690     0.2696200
  C       -3.2626170    -0.0361670    -0.0095020
  H        1.3994420    -1.7974010    -0.8317830
  H        1.6076040     2.0422160     0.8629880
  H       -0.6712930     2.1216380    -0.5070250
  H       -0.5746270    -2.0444360     0.5668450
  H        3.8716190    -1.3816710    -0.5776140
  H        4.1315670     1.1252340     0.4699550
  H       -3.1528190     2.0640850    -0.4925600
  H       -3.0466780    -2.1247140     0.4868240
  H       -4.3493910    -0.0663800    -0.0199320
units angstrom
no_reorient  #important for SAPT in psi4, default
symmetry c1  #important for SAPT in psi4, default
}

set PROPERTIES_ORIGIN ["COM"]
properties('MP2/aug-cc-pvtz', properties = ['dipole'])
--------------------------------------------------------------------------

    Molecular point group: c1
  Charge       = 0
  Multiplicity = 1
  Basis Set: AUG-CC-PVTZ
    Blend: AUG-CC-PVTZ
  Basis Set: (AUG-CC-PVTZ AUX)
    Blend: AUG-CC-PVTZ-JKFIT

    Orbital Energies [Eh]
    ---------------------

    Doubly Occupied:

       1A    -15.607856     2A    -11.262790     3A    -11.255796
       4A    -11.252757     5A    -11.242152     6A    -11.240931
       7A    -11.239787     8A    -11.237878     9A    -11.237001
      10A    -11.213263    11A    -11.212082    12A     -1.293275
      13A     -1.158260    14A     -1.047407    15A     -1.042100
      16A     -1.018107    17A     -0.959266    18A     -0.836020
      19A     -0.833575    20A     -0.788224    21A     -0.764332
      22A     -0.734819    23A     -0.679527    24A     -0.633278
      25A     -0.630549    26A     -0.593725    27A     -0.589656
      28A     -0.581814    29A     -0.568453    30A     -0.548956
      31A     -0.536416    32A     -0.505497    33A     -0.499425
      34A     -0.496154    35A     -0.362929    36A     -0.349722
      37A     -0.341889    38A     -0.274536

  @DF-RHF Final Energy:  -438.50902788920791

   => Energetics <=

    Nuclear Repulsion Energy =            536.8396111060179692
    One-Electron Energy =               -1657.3568653111447020
    Two-Electron Energy =                 682.0082263159189324
    Total Energy =                       -438.5090278892079141
  Basis Set: (AUG-CC-PVTZ AUX)
    Blend: AUG-CC-PVTZ-RI
    Molecular point group: c1

    Geometry (in Angstrom), charge = 0, multiplicity = 1:

       Center              X                  Y                   Z               Mass
    ------------   -----------------  -----------------  -----------------  -----------------
         N            1.773497240591    -0.970946258591    -0.386596900874    14.003074004430
         C            1.004203240591     0.095885741409     0.026900099126    12.000000000000
         C           -0.474572259409     0.042189041409     0.017967399126    12.000000000000
         C            1.890092240591     1.090183741409     0.432709099126    12.000000000000
         C           -1.199972759409     1.198369741409    -0.270301900874    12.000000000000
         C           -1.140125759409    -1.152729258591     0.293924099126    12.000000000000
         C            3.107987240591    -0.673701258591    -0.277457900874    12.000000000000
         C            3.205540240591     0.606826741409     0.240840099126    12.000000000000
         C           -2.593313759409     1.160538741409    -0.269259900874    12.000000000000
         C           -2.534185759409    -1.192613258591     0.269345099126    12.000000000000
         C           -3.266419759409    -0.036511258591    -0.009776900874    12.000000000000
         H            1.395639240591    -1.797745258591    -0.832057900874     1.007825032230
         H            1.603801240591     2.041871741409     0.862713099126     1.007825032230
         H           -0.675095759409     2.121293741409    -0.507299900874     1.007825032230
         H           -0.578429759409    -2.044780258591     0.566570099126     1.007825032230
         H            3.867816240591    -1.382015258591    -0.577888900874     1.007825032230
         H            4.127764240591     1.124889741409     0.469680099126     1.007825032230
         H           -3.156621759409     2.063740741409    -0.492834900874     1.007825032230
         H           -3.050480759409    -2.125058258591     0.486549099126     1.007825032230
         H           -4.353193759409    -0.066724258591    -0.020206900874     1.007825032230

  Basis Set: AUG-CC-PVTZ
    Blend: AUG-CC-PVTZ
  Basis Set: (AUG-CC-PVTZ AUX)
    Blend: AUG-CC-PVTZ-JKFIT
	 Reference Energy          =    -438.5090278892079141 [Eh]
	 Singles Energy            =      -0.0000000000000000 [Eh]
	 Same-Spin Energy          =      -0.4949815658442255 [Eh]
	 Opposite-Spin Energy      =      -1.5249284412504602 [Eh]
	 Correlation Energy        =      -2.0199100070946856 [Eh]
	 Total Energy              =    -440.5289378963025797 [Eh]

	 ================> DF-SCS-MP2 Energies <==================
	-----------------------------------------------------------
	 SCS Same-Spin Scale       =       0.3333333333333333 [-]
	 SCS Opposite-Spin Scale   =       1.2000000000000000 [-]
	 SCS Same-Spin Energy      =      -0.1649938552814085 [Eh]
	 SCS Opposite-Spin Energy  =      -1.8299141295005521 [Eh]
	 SCS Correlation Energy    =      -1.9949079847819606 [Eh]
	 SCS Total Energy          =    -440.5039358739898603 [Eh]
	-----------------------------------------------------------

  Dipole Moment: [D]
     X:    -0.5203      Y:    -1.3221      Z:    -0.6490     Total:     1.5621

*** Psi4 exiting successfully. Buy a developer a beer!
