                               Psi4 1.3.2 release

  ==> Input File <==

--------------------------------------------------------------------------
#psi4
#
memory 32 gb

molecule  {
0 1
  N        1.7773000    -0.9706020    -0.3863220
  C        0.9881550     0.0835107     0.0223589
  C       -0.4507830     0.0432590     0.0183630
  C        1.8938950     1.0905280     0.4329840
  C       -1.1961700     1.1987140    -0.2700270
  C       -1.1363230    -1.1523850     0.2941990
  C        3.1117900    -0.6733570    -0.2771830
  C        3.2093430     0.6071710     0.2411150
  C       -2.5895110     1.1608830    -0.2689850
  C       -2.5303830    -1.1922690     0.2696200
  C       -3.2626170    -0.0361670    -0.0095020
  H        1.3994420    -1.7974010    -0.8317830
  H        1.6076040     2.0422160     0.8629880
  H       -0.6712930     2.1216380    -0.5070250
  H       -0.5746270    -2.0444360     0.5668450
  H        3.8716190    -1.3816710    -0.5776140
  H        4.1315670     1.1252340     0.4699550
  H       -3.1528190     2.0640850    -0.4925600
  H       -3.0466780    -2.1247140     0.4868240
  H       -4.3493910    -0.0663800    -0.0199320
units angstrom
no_reorient  #important for SAPT in psi4, default
symmetry c1  #important for SAPT in psi4, default
}

set PROPERTIES_ORIGIN ["COM"]
properties('MP2/aug-cc-pvtz', properties = ['dipole'])
--------------------------------------------------------------------------

    Molecular point group: c1
  Charge       = 0
  Multiplicity = 1
  Basis Set: AUG-CC-PVTZ
    Blend: AUG-CC-PVTZ
  Basis Set: (AUG-CC-PVTZ AUX)
    Blend: AUG-CC-PVTZ-JKFIT

    Orbital Energies [Eh]
    ---------------------

    Doubly Occupied:

       1A    -15.609926     2A    -11.263148     3A    -11.256965
       4A    -11.252138     5A    -11.242007     6A    -11.240867
       7A    -11.240403     8A    -11.238113     9A    -11.237747
      10A    -11.215852    11A    -11.214020    12A     -1.293635
      13A     -1.157010    14A     -1.050264    15A     -1.042089
      16A     -1.016859    17A     -0.958148    18A     -0.840133
      19A     -0.832710    20A     -0.787983    21A     -0.764008
      22A     -0.736534    23A     -0.680084    24A     -0.634453
      25A     -0.630206    26A     -0.592329    27A     -0.588389
      28A     -0.585340    29A     -0.569062    30A     -0.547375
      31A     -0.536947    32A     -0.505832    33A     -0.501398
      34A     -0.493767    35A     -0.364120    36A     -0.349959
      37A     -0.341499    38A     -0.270333

  @DF-RHF Final Energy:  -438.50659500721036

   => Energetics <=

    Nuclear Repulsion Energy =            536.8422790124787980
    One-Electron Energy =               -1657.3344449193937180
    Two-Electron Energy =                 681.9855708997047259
    Total Energy =                       -438.5065950072103078
  Basis Set: (AUG-CC-PVTZ AUX)
    Blend: AUG-CC-PVTZ-RI
    Molecular point group: c1

    Geometry (in Angstrom), charge = 0, multiplicity = 1:

       Center              X                  Y                   Z               Mass
    ------------   -----------------  -----------------  -----------------  -----------------
         N            1.773485875803    -0.969940319680    -0.386203083708    14.003074004430
         C            0.984340875803     0.084172380320     0.022477816292    12.000000000000
         C           -0.454597124197     0.043920680320     0.018481916292    12.000000000000
         C            1.890080875803     1.091189680320     0.433102916292    12.000000000000
         C           -1.199984124197     1.199375680320    -0.269908083708    12.000000000000
         C           -1.140137124197    -1.151723319680     0.294317916292    12.000000000000
         C            3.107975875803    -0.672695319680    -0.277064083708    12.000000000000
         C            3.205528875803     0.607832680320     0.241233916292    12.000000000000
         C           -2.593325124197     1.161544680320    -0.268866083708    12.000000000000
         C           -2.534197124197    -1.191607319680     0.269738916292    12.000000000000
         C           -3.266431124197    -0.035505319680    -0.009383083708    12.000000000000
         H            1.395627875803    -1.796739319680    -0.831664083708     1.007825032230
         H            1.603789875803     2.042877680320     0.863106916292     1.007825032230
         H           -0.675107124197     2.122299680320    -0.506906083708     1.007825032230
         H           -0.578441124197    -2.043774319680     0.566963916292     1.007825032230
         H            3.867804875803    -1.381009319680    -0.577495083708     1.007825032230
         H            4.127752875803     1.125895680320     0.470073916292     1.007825032230
         H           -3.156633124197     2.064746680320    -0.492441083708     1.007825032230
         H           -3.050492124197    -2.124052319680     0.486942916292     1.007825032230
         H           -4.353205124197    -0.065718319680    -0.019813083708     1.007825032230

  Basis Set: AUG-CC-PVTZ
    Blend: AUG-CC-PVTZ
  Basis Set: (AUG-CC-PVTZ AUX)
    Blend: AUG-CC-PVTZ-JKFIT
	 Reference Energy          =    -438.5065950072103647 [Eh]
	 Singles Energy            =      -0.0000000000000000 [Eh]
	 Same-Spin Energy          =      -0.4959100930042560 [Eh]
	 Opposite-Spin Energy      =      -1.5262531200271758 [Eh]
	 Correlation Energy        =      -2.0221632130314320 [Eh]
	 Total Energy              =    -440.5287582202417980 [Eh]

	 ================> DF-SCS-MP2 Energies <==================
	-----------------------------------------------------------
	 SCS Same-Spin Scale       =       0.3333333333333333 [-]
	 SCS Opposite-Spin Scale   =       1.2000000000000000 [-]
	 SCS Same-Spin Energy      =      -0.1653033643347520 [Eh]
	 SCS Opposite-Spin Energy  =      -1.8315037440326110 [Eh]
	 SCS Correlation Energy    =      -1.9968071083673629 [Eh]
	 SCS Total Energy          =    -440.5034021155777282 [Eh]
	-----------------------------------------------------------

  Dipole Moment: [D]
     X:    -0.4170      Y:    -1.3345      Z:    -0.6546     Total:     1.5437

*** Psi4 exiting successfully. Buy a developer a beer!
