                               Psi4 1.3.2 release

  ==> Input File <==

--------------------------------------------------------------------------
#psi4
#
memory 32 gb

molecule  {
0 1
  N        1.7891545    -1.0134268    -0.4041370
  C        1.0080060     0.0962300     0.0271750
  C       -0.4507830     0.0432590     0.0183630
  C        1.8938950     1.0905280     0.4329840
  C       -1.1961700     1.1987140    -0.2700270
  C       -1.1363230    -1.1523850     0.2941990
  C        3.1117900    -0.6733570    -0.2771830
  C        3.2093430     0.6071710     0.2411150
  C       -2.5895110     1.1608830    -0.2689850
  C       -2.5303830    -1.1922690     0.2696200
  C       -3.2626170    -0.0361670    -0.0095020
  H        1.3994420    -1.7974010    -0.8317830
  H        1.6076040     2.0422160     0.8629880
  H       -0.6712930     2.1216380    -0.5070250
  H       -0.5746270    -2.0444360     0.5668450
  H        3.8716190    -1.3816710    -0.5776140
  H        4.1315670     1.1252340     0.4699550
  H       -3.1528190     2.0640850    -0.4925600
  H       -3.0466780    -2.1247140     0.4868240
  H       -4.3493910    -0.0663800    -0.0199320
units angstrom
no_reorient  #important for SAPT in psi4, default
symmetry c1  #important for SAPT in psi4, default
}

set PROPERTIES_ORIGIN ["COM"]
properties('MP2/aug-cc-pvtz', properties = ['dipole'])
--------------------------------------------------------------------------

    Molecular point group: c1
  Charge       = 0
  Multiplicity = 1
  Basis Set: AUG-CC-PVTZ
    Blend: AUG-CC-PVTZ
  Basis Set: (AUG-CC-PVTZ AUX)
    Blend: AUG-CC-PVTZ-JKFIT

    Orbital Energies [Eh]
    ---------------------

    Doubly Occupied:

       1A    -15.604725     2A    -11.265251     3A    -11.260517
       4A    -11.252843     5A    -11.241495     6A    -11.240324
       7A    -11.239778     8A    -11.237383     9A    -11.237103
      10A    -11.217885    11A    -11.214209    12A     -1.284908
      13A     -1.155697    14A     -1.053284    15A     -1.043159
      16A     -1.016486    17A     -0.955422    18A     -0.839028
      19A     -0.831661    20A     -0.796673    21A     -0.761118
      22A     -0.733977    23A     -0.679015    24A     -0.631434
      25A     -0.630081    26A     -0.600326    27A     -0.589077
      28A     -0.575896    29A     -0.565098    30A     -0.550536
      31A     -0.538138    32A     -0.503345    33A     -0.500385
      34A     -0.494009    35A     -0.365478    36A     -0.351509
      37A     -0.340928    38A     -0.272496

  @DF-RHF Final Energy:  -438.50571390460806

   => Energetics <=

    Nuclear Repulsion Energy =            535.8487954300873071
    One-Electron Energy =               -1655.3676629691162816
    Two-Electron Energy =                 681.0131536344210872
    Total Energy =                       -438.5057139046080010
  Basis Set: (AUG-CC-PVTZ AUX)
    Blend: AUG-CC-PVTZ-RI
    Molecular point group: c1

    Geometry (in Angstrom), charge = 0, multiplicity = 1:

       Center              X                  Y                   Z               Mass
    ------------   -----------------  -----------------  -----------------  -----------------
         N            1.782515174471    -1.009640521164    -0.402678411691    14.003074004430
         C            1.001366674471     0.100016278836     0.028633588309    12.000000000000
         C           -0.457422325529     0.047045278836     0.019821588309    12.000000000000
         C            1.887255674471     1.094314278836     0.434442588309    12.000000000000
         C           -1.202809325529     1.202500278836    -0.268568411691    12.000000000000
         C           -1.142962325529    -1.148598721164     0.295657588309    12.000000000000
         C            3.105150674471    -0.669570721164    -0.275724411691    12.000000000000
         C            3.202703674471     0.610957278836     0.242573588309    12.000000000000
         C           -2.596150325529     1.164669278836    -0.267526411691    12.000000000000
         C           -2.537022325529    -1.188482721164     0.271078588309    12.000000000000
         C           -3.269256325529    -0.032380721164    -0.008043411691    12.000000000000
         H            1.392802674471    -1.793614721164    -0.830324411691     1.007825032230
         H            1.600964674471     2.046002278836     0.864446588309     1.007825032230
         H           -0.677932325529     2.125424278836    -0.505566411691     1.007825032230
         H           -0.581266325529    -2.040649721164     0.568303588309     1.007825032230
         H            3.864979674471    -1.377884721164    -0.576155411691     1.007825032230
         H            4.124927674471     1.129020278836     0.471413588309     1.007825032230
         H           -3.159458325529     2.067871278836    -0.491101411691     1.007825032230
         H           -3.053317325529    -2.120927721164     0.488282588309     1.007825032230
         H           -4.356030325529    -0.062593721164    -0.018473411691     1.007825032230

  Basis Set: AUG-CC-PVTZ
    Blend: AUG-CC-PVTZ
  Basis Set: (AUG-CC-PVTZ AUX)
    Blend: AUG-CC-PVTZ-JKFIT
	 Reference Energy          =    -438.5057139046080579 [Eh]
	 Singles Energy            =      -0.0000000000000000 [Eh]
	 Same-Spin Energy          =      -0.4948183504495913 [Eh]
	 Opposite-Spin Energy      =      -1.5254195396421009 [Eh]
	 Correlation Energy        =      -2.0202378900916922 [Eh]
	 Total Energy              =    -440.5259517946997221 [Eh]

	 ================> DF-SCS-MP2 Energies <==================
	-----------------------------------------------------------
	 SCS Same-Spin Scale       =       0.3333333333333333 [-]
	 SCS Opposite-Spin Scale   =       1.2000000000000000 [-]
	 SCS Same-Spin Energy      =      -0.1649394501498637 [Eh]
	 SCS Opposite-Spin Energy  =      -1.8305034475705209 [Eh]
	 SCS Correlation Energy    =      -1.9954428977203846 [Eh]
	 SCS Total Energy          =    -440.5011568023284667 [Eh]
	-----------------------------------------------------------

  Dipole Moment: [D]
     X:    -0.4177      Y:    -1.2095      Z:    -0.6053     Total:     1.4155

*** Psi4 exiting successfully. Buy a developer a beer!
