                               Psi4 1.3.2 release

  ==> Input File <==

--------------------------------------------------------------------------
#psi4
#
memory 32 gb

molecule  {
0 1
  N        1.7773000    -0.9706020    -0.3863220
  C        1.0080060     0.0962300     0.0271750
  C       -0.4507830     0.0432590     0.0183630
  C        1.8938950     1.0905280     0.4329840
  C       -1.1961700     1.1987140    -0.2700270
  C       -1.1363230    -1.1523850     0.2941990
  C        3.1117900    -0.6733570    -0.2771830
  C        3.2000809     0.5864505     0.2314015
  C       -2.5895110     1.1608830    -0.2689850
  C       -2.5303830    -1.1922690     0.2696200
  C       -3.2626170    -0.0361670    -0.0095020
  H        1.3994420    -1.7974010    -0.8317830
  H        1.6076040     2.0422160     0.8629880
  H       -0.6712930     2.1216380    -0.5070250
  H       -0.5746270    -2.0444360     0.5668450
  H        3.8716190    -1.3816710    -0.5776140
  H        4.1315670     1.1252340     0.4699550
  H       -3.1528190     2.0640850    -0.4925600
  H       -3.0466780    -2.1247140     0.4868240
  H       -4.3493910    -0.0663800    -0.0199320
units angstrom
no_reorient  #important for SAPT in psi4, default
symmetry c1  #important for SAPT in psi4, default
}

set PROPERTIES_ORIGIN ["COM"]
properties('MP2/aug-cc-pvtz', properties = ['dipole'])
--------------------------------------------------------------------------

    Molecular point group: c1
  Charge       = 0
  Multiplicity = 1
  Basis Set: AUG-CC-PVTZ
    Blend: AUG-CC-PVTZ
  Basis Set: (AUG-CC-PVTZ AUX)
    Blend: AUG-CC-PVTZ-JKFIT

    Orbital Energies [Eh]
    ---------------------

    Doubly Occupied:

       1A    -15.606226     2A    -11.262502     3A    -11.253164
       4A    -11.253121     5A    -11.242085     6A    -11.240821
       7A    -11.240584     8A    -11.238136     9A    -11.237855
      10A    -11.212748    11A    -11.211629    12A     -1.294898
      13A     -1.156306    14A     -1.048749    15A     -1.044436
      16A     -1.016900    17A     -0.960905    18A     -0.838641
      19A     -0.832134    20A     -0.785962    21A     -0.763977
      22A     -0.735624    23A     -0.680059    24A     -0.633299
      25A     -0.629715    26A     -0.592453    27A     -0.587925
      28A     -0.583241    29A     -0.569827    30A     -0.549160
      31A     -0.537414    32A     -0.504741    33A     -0.500210
      34A     -0.494020    35A     -0.363657    36A     -0.350626
      37A     -0.341414    38A     -0.275306

  @DF-RHF Final Energy:  -438.50879872842029

   => Energetics <=

    Nuclear Repulsion Energy =            537.2494590491021427
    One-Electron Energy =               -1658.1755786726093902
    Two-Electron Energy =                 682.4173208950869594
    Total Energy =                       -438.5087987284202882
  Basis Set: (AUG-CC-PVTZ AUX)
    Blend: AUG-CC-PVTZ-RI
    Molecular point group: c1

    Geometry (in Angstrom), charge = 0, multiplicity = 1:

       Center              X                  Y                   Z               Mass
    ------------   -----------------  -----------------  -----------------  -----------------
         N            1.772597753260    -0.969269235234    -0.385792324201    14.003074004430
         C            1.003303753260     0.097562764766     0.027704675799    12.000000000000
         C           -0.455485246740     0.044591764766     0.018892675799    12.000000000000
         C            1.889192753260     1.091860764766     0.433513675799    12.000000000000
         C           -1.200872246740     1.200046764766    -0.269497324201    12.000000000000
         C           -1.141025246740    -1.151052235234     0.294728675799    12.000000000000
         C            3.107087753260    -0.672024235234    -0.276653324201    12.000000000000
         C            3.195378653260     0.587783264766     0.231931175799    12.000000000000
         C           -2.594213246740     1.162215764766    -0.268455324201    12.000000000000
         C           -2.535085246740    -1.190936235234     0.270149675799    12.000000000000
         C           -3.267319246740    -0.034834235234    -0.008972324201    12.000000000000
         H            1.394739753260    -1.796068235234    -0.831253324201     1.007825032230
         H            1.602901753260     2.043548764766     0.863517675799     1.007825032230
         H           -0.675995246740     2.122970764766    -0.506495324201     1.007825032230
         H           -0.579329246740    -2.043103235234     0.567374675799     1.007825032230
         H            3.866916753260    -1.380338235234    -0.577084324201     1.007825032230
         H            4.126864753260     1.126566764766     0.470484675799     1.007825032230
         H           -3.157521246740     2.065417764766    -0.492030324201     1.007825032230
         H           -3.051380246740    -2.123381235234     0.487353675799     1.007825032230
         H           -4.354093246740    -0.065047235234    -0.019402324201     1.007825032230

  Basis Set: AUG-CC-PVTZ
    Blend: AUG-CC-PVTZ
  Basis Set: (AUG-CC-PVTZ AUX)
    Blend: AUG-CC-PVTZ-JKFIT
	 Reference Energy          =    -438.5087987284202882 [Eh]
	 Singles Energy            =      -0.0000000000000000 [Eh]
	 Same-Spin Energy          =      -0.4950101284294720 [Eh]
	 Opposite-Spin Energy      =      -1.5248579143487797 [Eh]
	 Correlation Energy        =      -2.0198680427782518 [Eh]
	 Total Energy              =    -440.5286667711985160 [Eh]

	 ================> DF-SCS-MP2 Energies <==================
	-----------------------------------------------------------
	 SCS Same-Spin Scale       =       0.3333333333333333 [-]
	 SCS Opposite-Spin Scale   =       1.2000000000000000 [-]
	 SCS Same-Spin Energy      =      -0.1650033761431573 [Eh]
	 SCS Opposite-Spin Energy  =      -1.8298294972185356 [Eh]
	 SCS Correlation Energy    =      -1.9948328733616929 [Eh]
	 SCS Total Energy          =    -440.5036316017819900 [Eh]
	-----------------------------------------------------------

  Dipole Moment: [D]
     X:    -0.4515      Y:    -1.3150      Z:    -0.6443     Total:     1.5324

*** Psi4 exiting successfully. Buy a developer a beer!
