                               Psi4 1.3.2 release

  ==> Input File <==

--------------------------------------------------------------------------
#psi4
#
memory 32 gb

molecule  {
0 1
  N        1.7773000    -0.9706020    -0.3863220
  C        1.0079016    -0.0028462     0.0509586
  C       -0.4507830     0.0432590     0.0183630
  C        1.8938950     1.0905280     0.4329840
  C       -1.1961700     1.1987140    -0.2700270
  C       -1.1363230    -1.1523850     0.2941990
  C        3.1117900    -0.6733570    -0.2771830
  C        3.2093430     0.6071710     0.2411150
  C       -2.5895110     1.1608830    -0.2689850
  C       -2.5303830    -1.1922690     0.2696200
  C       -3.2626170    -0.0361670    -0.0095020
  H        1.3994420    -1.7974010    -0.8317830
  H        1.6076040     2.0422160     0.8629880
  H       -0.6712930     2.1216380    -0.5070250
  H       -0.5746270    -2.0444360     0.5668450
  H        3.8716190    -1.3816710    -0.5776140
  H        4.1315670     1.1252340     0.4699550
  H       -3.1528190     2.0640850    -0.4925600
  H       -3.0466780    -2.1247140     0.4868240
  H       -4.3493910    -0.0663800    -0.0199320
units angstrom
no_reorient  #important for SAPT in psi4, default
symmetry c1  #important for SAPT in psi4, default
}

set PROPERTIES_ORIGIN ["COM"]
properties('MP2/aug-cc-pvtz', properties = ['dipole'])
--------------------------------------------------------------------------

    Molecular point group: c1
  Charge       = 0
  Multiplicity = 1
  Basis Set: AUG-CC-PVTZ
    Blend: AUG-CC-PVTZ
  Basis Set: (AUG-CC-PVTZ AUX)
    Blend: AUG-CC-PVTZ-JKFIT

    Orbital Energies [Eh]
    ---------------------

    Doubly Occupied:

       1A    -15.616444     2A    -11.264945     3A    -11.254302
       4A    -11.250897     5A    -11.242125     6A    -11.241955
       7A    -11.240131     8A    -11.239993     9A    -11.238550
      10A    -11.215719    11A    -11.213265    12A     -1.314124
      13A     -1.157056    14A     -1.048567    15A     -1.042092
      16A     -1.017536    17A     -0.958381    18A     -0.838128
      19A     -0.832955    20A     -0.794550    21A     -0.769301
      22A     -0.736458    23A     -0.680076    24A     -0.635955
      25A     -0.630469    26A     -0.598791    27A     -0.591412
      28A     -0.587756    29A     -0.574967    30A     -0.544437
      31A     -0.532752    32A     -0.506624    33A     -0.501030
      34A     -0.488255    35A     -0.361666    36A     -0.350442
      37A     -0.342053    38A     -0.267187

  @DF-RHF Final Energy:  -438.49872746663141

   => Energetics <=

    Nuclear Repulsion Energy =            537.0943864853340983
    One-Electron Energy =               -1657.7435393356113309
    Two-Electron Energy =                 682.1504253836458247
    Total Energy =                       -438.4987274666314079
  Basis Set: (AUG-CC-PVTZ AUX)
    Blend: AUG-CC-PVTZ-RI
    Molecular point group: c1

    Geometry (in Angstrom), charge = 0, multiplicity = 1:

       Center              X                  Y                   Z               Mass
    ------------   -----------------  -----------------  -----------------  -----------------
         N            1.771829669719    -0.962697309583    -0.388601825625    14.003074004430
         C            1.002431269719     0.005058490417     0.048678774375    12.000000000000
         C           -0.456253330281     0.051163690417     0.016083174375    12.000000000000
         C            1.888424669719     1.098432690417     0.430704174375    12.000000000000
         C           -1.201640330281     1.206618690417    -0.272306825625    12.000000000000
         C           -1.141793330281    -1.144480309583     0.291919174375    12.000000000000
         C            3.106319669719    -0.665452309583    -0.279462825625    12.000000000000
         C            3.203872669719     0.615075690417     0.238835174375    12.000000000000
         C           -2.594981330281     1.168787690417    -0.271264825625    12.000000000000
         C           -2.535853330281    -1.184364309583     0.267340174375    12.000000000000
         C           -3.268087330281    -0.028262309583    -0.011781825625    12.000000000000
         H            1.393971669719    -1.789496309583    -0.834062825625     1.007825032230
         H            1.602133669719     2.050120690417     0.860708174375     1.007825032230
         H           -0.676763330281     2.129542690417    -0.509304825625     1.007825032230
         H           -0.580097330281    -2.036531309583     0.564565174375     1.007825032230
         H            3.866148669719    -1.373766309583    -0.579893825625     1.007825032230
         H            4.126096669719     1.133138690417     0.467675174375     1.007825032230
         H           -3.158289330281     2.071989690417    -0.494839825625     1.007825032230
         H           -3.052148330281    -2.116809309583     0.484544174375     1.007825032230
         H           -4.354861330281    -0.058475309583    -0.022211825625     1.007825032230

  Basis Set: AUG-CC-PVTZ
    Blend: AUG-CC-PVTZ
  Basis Set: (AUG-CC-PVTZ AUX)
    Blend: AUG-CC-PVTZ-JKFIT
	 Reference Energy          =    -438.4987274666314079 [Eh]
	 Singles Energy            =      -0.0000000000000000 [Eh]
	 Same-Spin Energy          =      -0.4962541432656335 [Eh]
	 Opposite-Spin Energy      =      -1.5261619579869776 [Eh]
	 Correlation Energy        =      -2.0224161012526110 [Eh]
	 Total Energy              =    -440.5211435678839962 [Eh]

	 ================> DF-SCS-MP2 Energies <==================
	-----------------------------------------------------------
	 SCS Same-Spin Scale       =       0.3333333333333333 [-]
	 SCS Opposite-Spin Scale   =       1.2000000000000000 [-]
	 SCS Same-Spin Energy      =      -0.1654180477552112 [Eh]
	 SCS Opposite-Spin Energy  =      -1.8313943495843730 [Eh]
	 SCS Correlation Energy    =      -1.9968123973395842 [Eh]
	 SCS Total Energy          =    -440.4955398639709756 [Eh]
	-----------------------------------------------------------

  Dipole Moment: [D]
     X:    -0.4398      Y:    -1.4164      Z:    -0.7148     Total:     1.6464

*** Psi4 exiting successfully. Buy a developer a beer!
