                               Psi4 1.3.2 release

  ==> Input File <==

--------------------------------------------------------------------------
#psi4
#
memory 32 gb

molecule  {
0 1
  N        1.8026204    -1.0558373    -0.4217972
  C        1.0080060     0.0962300     0.0271750
  C       -0.4507830     0.0432590     0.0183630
  C        1.8938950     1.0905280     0.4329840
  C       -1.1961700     1.1987140    -0.2700270
  C       -1.1363230    -1.1523850     0.2941990
  C        3.1117900    -0.6733570    -0.2771830
  C        3.2093430     0.6071710     0.2411150
  C       -2.5895110     1.1608830    -0.2689850
  C       -2.5303830    -1.1922690     0.2696200
  C       -3.2626170    -0.0361670    -0.0095020
  H        1.3994420    -1.7974010    -0.8317830
  H        1.6076040     2.0422160     0.8629880
  H       -0.6712930     2.1216380    -0.5070250
  H       -0.5746270    -2.0444360     0.5668450
  H        3.8716190    -1.3816710    -0.5776140
  H        4.1315670     1.1252340     0.4699550
  H       -3.1528190     2.0640850    -0.4925600
  H       -3.0466780    -2.1247140     0.4868240
  H       -4.3493910    -0.0663800    -0.0199320
units angstrom
no_reorient  #important for SAPT in psi4, default
symmetry c1  #important for SAPT in psi4, default
}

set PROPERTIES_ORIGIN ["COM"]
properties('MP2/aug-cc-pvtz', properties = ['dipole'])
--------------------------------------------------------------------------

    Molecular point group: c1
  Charge       = 0
  Multiplicity = 1
  Basis Set: AUG-CC-PVTZ
    Blend: AUG-CC-PVTZ
  Basis Set: (AUG-CC-PVTZ AUX)
    Blend: AUG-CC-PVTZ-JKFIT

    Orbital Energies [Eh]
    ---------------------

    Doubly Occupied:

       1A    -15.601181     2A    -11.268295     3A    -11.264566
       4A    -11.252622     5A    -11.241076     6A    -11.240035
       7A    -11.239175     8A    -11.236988     9A    -11.236651
      10A    -11.222267    11A    -11.215125    12A     -1.277259
      13A     -1.155379    14A     -1.059111    15A     -1.042443
      16A     -1.016228    17A     -0.952539    18A     -0.841617
      19A     -0.831248    20A     -0.803582    21A     -0.757403
      22A     -0.732647    23A     -0.678479    24A     -0.632828
      25A     -0.629128    26A     -0.606094    27A     -0.588739
      28A     -0.568275    29A     -0.561377    30A     -0.551546
      31A     -0.538058    32A     -0.502102    33A     -0.499921
      34A     -0.493601    35A     -0.368433    36A     -0.352116
      37A     -0.340603    38A     -0.271603

  @DF-RHF Final Energy:  -438.49586624266840

   => Energetics <=

    Nuclear Repulsion Energy =            534.8973544200878223
    One-Electron Energy =               -1653.4457561427848304
    Two-Electron Energy =                 680.0525354800286095
    Total Energy =                       -438.4958662426683986
  Basis Set: (AUG-CC-PVTZ AUX)
    Blend: AUG-CC-PVTZ-RI
    Molecular point group: c1

    Geometry (in Angstrom), charge = 0, multiplicity = 1:

       Center              X                  Y                   Z               Mass
    ------------   -----------------  -----------------  -----------------  -----------------
         N            1.794663122543    -1.047900166023    -0.418610149825    14.003074004430
         C            1.000048722543     0.104167133977     0.030362050175    12.000000000000
         C           -0.458740277457     0.051196133977     0.021550050175    12.000000000000
         C            1.885937722543     1.098465133977     0.436171050175    12.000000000000
         C           -1.204127277457     1.206651133977    -0.266839949825    12.000000000000
         C           -1.144280277457    -1.144447866023     0.297386050175    12.000000000000
         C            3.103832722543    -0.665419866023    -0.273995949825    12.000000000000
         C            3.201385722543     0.615108133977     0.244302050175    12.000000000000
         C           -2.597468277457     1.168820133977    -0.265797949825    12.000000000000
         C           -2.538340277457    -1.184331866023     0.272807050175    12.000000000000
         C           -3.270574277457    -0.028229866023    -0.006314949825    12.000000000000
         H            1.391484722543    -1.789463866023    -0.828595949825     1.007825032230
         H            1.599646722543     2.050153133977     0.866175050175     1.007825032230
         H           -0.679250277457     2.129575133977    -0.503837949825     1.007825032230
         H           -0.582584277457    -2.036498866023     0.570032050175     1.007825032230
         H            3.863661722543    -1.373733866023    -0.574426949825     1.007825032230
         H            4.123609722543     1.133171133977     0.473142050175     1.007825032230
         H           -3.160776277457     2.072022133977    -0.489372949825     1.007825032230
         H           -3.054635277457    -2.116776866023     0.490011050175     1.007825032230
         H           -4.357348277457    -0.058442866023    -0.016744949825     1.007825032230

  Basis Set: AUG-CC-PVTZ
    Blend: AUG-CC-PVTZ
  Basis Set: (AUG-CC-PVTZ AUX)
    Blend: AUG-CC-PVTZ-JKFIT
	 Reference Energy          =    -438.4958662426683986 [Eh]
	 Singles Energy            =      -0.0000000000000000 [Eh]
	 Same-Spin Energy          =      -0.4945115319777235 [Eh]
	 Opposite-Spin Energy      =      -1.5258486851087580 [Eh]
	 Correlation Energy        =      -2.0203602170864814 [Eh]
	 Total Energy              =    -440.5162264597548756 [Eh]

	 ================> DF-SCS-MP2 Energies <==================
	-----------------------------------------------------------
	 SCS Same-Spin Scale       =       0.3333333333333333 [-]
	 SCS Opposite-Spin Scale   =       1.2000000000000000 [-]
	 SCS Same-Spin Energy      =      -0.1648371773259078 [Eh]
	 SCS Opposite-Spin Energy  =      -1.8310184221305095 [Eh]
	 SCS Correlation Energy    =      -1.9958555994564173 [Eh]
	 SCS Total Energy          =    -440.4917218421248322 [Eh]
	-----------------------------------------------------------

  Dipole Moment: [D]
     X:    -0.3977      Y:    -1.0955      Z:    -0.5609     Total:     1.2934

*** Psi4 exiting successfully. Buy a developer a beer!
