                               Psi4 1.3.2 release

  ==> Input File <==

--------------------------------------------------------------------------
#psi4
#
memory 32 gb

molecule  {
0 1
  N        1.7773000    -0.9706020    -0.3863220
  C        1.0080060     0.0962300     0.0271750
  C       -0.4507830     0.0432590     0.0183630
  C        1.8938950     1.0905280     0.4329840
  C       -1.0900603     1.0342290    -0.2289732
  C       -1.1363230    -1.1523850     0.2941990
  C        3.1117900    -0.6733570    -0.2771830
  C        3.2093430     0.6071710     0.2411150
  C       -2.5895110     1.1608830    -0.2689850
  C       -2.5303830    -1.1922690     0.2696200
  C       -3.2626170    -0.0361670    -0.0095020
  H        1.3994420    -1.7974010    -0.8317830
  H        1.6076040     2.0422160     0.8629880
  H       -0.6712930     2.1216380    -0.5070250
  H       -0.5746270    -2.0444360     0.5668450
  H        3.8716190    -1.3816710    -0.5776140
  H        4.1315670     1.1252340     0.4699550
  H       -3.1528190     2.0640850    -0.4925600
  H       -3.0466780    -2.1247140     0.4868240
  H       -4.3493910    -0.0663800    -0.0199320
units angstrom
no_reorient  #important for SAPT in psi4, default
symmetry c1  #important for SAPT in psi4, default
}

set PROPERTIES_ORIGIN ["COM"]
properties('MP2/aug-cc-pvtz', properties = ['dipole'])
--------------------------------------------------------------------------

    Molecular point group: c1
  Charge       = 0
  Multiplicity = 1
  Basis Set: AUG-CC-PVTZ
    Blend: AUG-CC-PVTZ
  Basis Set: (AUG-CC-PVTZ AUX)
    Blend: AUG-CC-PVTZ-JKFIT

    Orbital Energies [Eh]
    ---------------------

    Doubly Occupied:

       1A    -15.607242     2A    -11.260244     3A    -11.254140
       4A    -11.251006     5A    -11.243695     6A    -11.241786
       7A    -11.239170     8A    -11.233266     9A    -11.226029
      10A    -11.211997    11A    -11.210453    12A     -1.293298
      13A     -1.176974    14A     -1.065411    15A     -1.041731
      16A     -1.002989    17A     -0.965506    18A     -0.849117
      19A     -0.821998    20A     -0.788289    21A     -0.761206
      22A     -0.741556    23A     -0.674628    24A     -0.642556
      25A     -0.626910    26A     -0.592331    27A     -0.589347
      28A     -0.579241    29A     -0.568338    30A     -0.545699
      31A     -0.534591    32A     -0.516936    33A     -0.512891
      34A     -0.457870    35A     -0.383151    36A     -0.348948
      37A     -0.328086    38A     -0.280220

  @DF-RHF Final Energy:  -438.44830322679059

   => Energetics <=

    Nuclear Repulsion Energy =            540.0058187852951050
    One-Electron Energy =               -1663.5705524718873676
    Two-Electron Energy =                 685.1164304598016770
    Total Energy =                       -438.4483032267905855
  Basis Set: (AUG-CC-PVTZ AUX)
    Blend: AUG-CC-PVTZ-RI
    Molecular point group: c1

    Geometry (in Angstrom), charge = 0, multiplicity = 1:

       Center              X                  Y                   Z               Mass
    ------------   -----------------  -----------------  -----------------  -----------------
         N            1.762921177187    -0.957211278950    -0.390050328674    14.003074004430
         C            0.993627177187     0.109620721050     0.023446671326    12.000000000000
         C           -0.465161822813     0.056649721050     0.014634671326    12.000000000000
         C            1.879516177187     1.103918721050     0.429255671326    12.000000000000
         C           -1.104439122813     1.047619721050    -0.232701528674    12.000000000000
         C           -1.150701822813    -1.138994278950     0.290470671326    12.000000000000
         C            3.097411177187    -0.659966278950    -0.280911328674    12.000000000000
         C            3.194964177187     0.620561721050     0.237386671326    12.000000000000
         C           -2.603889822813     1.174273721050    -0.272713328674    12.000000000000
         C           -2.544761822813    -1.178878278950     0.265891671326    12.000000000000
         C           -3.276995822813    -0.022776278950    -0.013230328674    12.000000000000
         H            1.385063177187    -1.784010278950    -0.835511328674     1.007825032230
         H            1.593225177187     2.055606721050     0.859259671326     1.007825032230
         H           -0.685671822813     2.135028721050    -0.510753328674     1.007825032230
         H           -0.589005822813    -2.031045278950     0.563116671326     1.007825032230
         H            3.857240177187    -1.368280278950    -0.581342328674     1.007825032230
         H            4.117188177187     1.138624721050     0.466226671326     1.007825032230
         H           -3.167197822813     2.077475721050    -0.496288328674     1.007825032230
         H           -3.061056822813    -2.111323278950     0.483095671326     1.007825032230
         H           -4.363769822813    -0.052989278950    -0.023660328674     1.007825032230

  Basis Set: AUG-CC-PVTZ
    Blend: AUG-CC-PVTZ
  Basis Set: (AUG-CC-PVTZ AUX)
    Blend: AUG-CC-PVTZ-JKFIT
	 Reference Energy          =    -438.4483032267905855 [Eh]
	 Singles Energy            =      -0.0000000000000000 [Eh]
	 Same-Spin Energy          =      -0.4946873647963760 [Eh]
	 Opposite-Spin Energy      =      -1.5271990422765613 [Eh]
	 Correlation Energy        =      -2.0218864070729374 [Eh]
	 Total Energy              =    -440.4701896338635265 [Eh]

	 ================> DF-SCS-MP2 Energies <==================
	-----------------------------------------------------------
	 SCS Same-Spin Scale       =       0.3333333333333333 [-]
	 SCS Opposite-Spin Scale   =       1.2000000000000000 [-]
	 SCS Same-Spin Energy      =      -0.1648957882654586 [Eh]
	 SCS Opposite-Spin Energy  =      -1.8326388507318736 [Eh]
	 SCS Correlation Energy    =      -1.9975346389973323 [Eh]
	 SCS Total Energy          =    -440.4458378657878939 [Eh]
	-----------------------------------------------------------

  Dipole Moment: [D]
     X:    -0.7103      Y:    -1.3494      Z:    -0.6426     Total:     1.6548

*** Psi4 exiting successfully. Buy a developer a beer!
