                               Psi4 1.4a3.dev225

  ==> Input File <==

--------------------------------------------------------------------------
#psi4
#
memory 32 gb

molecule  {
0 1
  N        1.7773000    -0.9706020    -0.3863220
  C        1.0080060     0.0962300     0.0271750
  C       -0.4507830     0.0432590     0.0183630
  C        1.8938950     1.0905280     0.4329840
  C       -1.1961700     1.1987140    -0.2700270
  C       -1.1363230    -1.1523850     0.2941990
  C        3.0631408    -0.6841932    -0.2811617
  C        3.2093430     0.6071710     0.2411150
  C       -2.5895110     1.1608830    -0.2689850
  C       -2.5303830    -1.1922690     0.2696200
  C       -3.2626170    -0.0361670    -0.0095020
  H        1.3994420    -1.7974010    -0.8317830
  H        1.6076040     2.0422160     0.8629880
  H       -0.6712930     2.1216380    -0.5070250
  H       -0.5746270    -2.0444360     0.5668450
  H        3.8716190    -1.3816710    -0.5776140
  H        4.1315670     1.1252340     0.4699550
  H       -3.1528190     2.0640850    -0.4925600
  H       -3.0466780    -2.1247140     0.4868240
  H       -4.3493910    -0.0663800    -0.0199320
units angstrom
no_reorient  #important for SAPT in psi4, default
symmetry c1  #important for SAPT in psi4, default
}

set PROPERTIES_ORIGIN ["COM"]
properties('MP2/aug-cc-pvtz', properties = ['dipole'])
--------------------------------------------------------------------------

    Molecular point group: c1
  Charge       = 0
  Multiplicity = 1
  Basis Set: AUG-CC-PVTZ
    Blend: AUG-CC-PVTZ
  Basis Set: (AUG-CC-PVTZ AUX)
    Blend: AUG-CC-PVTZ-JKFIT

    Orbital Energies [Eh]
    ---------------------

    Doubly Occupied:

       1A    -15.612472     2A    -11.258494     3A    -11.258286
       4A    -11.252634     5A    -11.241321     6A    -11.239974
       7A    -11.239415     8A    -11.236599     9A    -11.236372
      10A    -11.214926    11A    -11.211578    12A     -1.310063
      13A     -1.155687    14A     -1.052264    15A     -1.041685
      16A     -1.016025    17A     -0.958387    18A     -0.835474
      19A     -0.831964    20A     -0.794001    21A     -0.768608
      22A     -0.734148    23A     -0.679636    24A     -0.634218
      25A     -0.629487    26A     -0.598346    27A     -0.590561
      28A     -0.580581    29A     -0.576154    30A     -0.551451
      31A     -0.527872    32A     -0.504202    33A     -0.500018
      34A     -0.493600    35A     -0.365596    36A     -0.349164
      37A     -0.340668    38A     -0.270295

  @DF-RHF Final Energy:  -438.50609379257548

   => Energetics <=

    Nuclear Repulsion Energy =            537.6956865409064221
    One-Electron Energy =               -1659.0191130185878592
    Two-Electron Energy =                 682.8173326851060665
    Total Energy =                       -438.5060937925754843
  Basis Set: (AUG-CC-PVTZ AUX)
    Blend: AUG-CC-PVTZ-RI
    Molecular point group: c1

    Geometry (in Angstrom), charge = 0, multiplicity = 1:

       Center              X                  Y                   Z               Mass
    ------------   -----------------  -----------------  -----------------  -----------------
         N            1.775901266506    -0.970098260879    -0.386273318937    14.003074004430
         C            1.006607266506     0.096733739121     0.027223681063    12.000000000000
         C           -0.452181733494     0.043762739121     0.018411681063    12.000000000000
         C            1.892496266506     1.091031739121     0.433032681063    12.000000000000
         C           -1.197568733494     1.199217739121    -0.269978318937    12.000000000000
         C           -1.137721733494    -1.151881260879     0.294247681063    12.000000000000
         C            3.061742066506    -0.683689460879    -0.281113018937    12.000000000000
         C            3.207944266506     0.607674739121     0.241163681063    12.000000000000
         C           -2.590909733494     1.161386739121    -0.268936318937    12.000000000000
         C           -2.531781733494    -1.191765260879     0.269668681063    12.000000000000
         C           -3.264015733494    -0.035663260879    -0.009453318937    12.000000000000
         H            1.398043266506    -1.796897260879    -0.831734318937     1.007825032230
         H            1.606205266506     2.042719739121     0.863036681063     1.007825032230
         H           -0.672691733494     2.122141739121    -0.506976318937     1.007825032230
         H           -0.576025733494    -2.043932260879     0.566893681063     1.007825032230
         H            3.870220266506    -1.381167260879    -0.577565318937     1.007825032230
         H            4.130168266506     1.125737739121     0.470003681063     1.007825032230
         H           -3.154217733494     2.064588739121    -0.492511318937     1.007825032230
         H           -3.048076733494    -2.124210260879     0.486872681063     1.007825032230
         H           -4.350789733494    -0.065876260879    -0.019883318937     1.007825032230

  Basis Set: AUG-CC-PVTZ
    Blend: AUG-CC-PVTZ
  Basis Set: (AUG-CC-PVTZ AUX)
    Blend: AUG-CC-PVTZ-JKFIT
	 Reference Energy          =    -438.5060937925754843 [Eh]
	 Singles Energy            =      -0.0000000000000000 [Eh]
	 Same-Spin Energy          =      -0.4955783032184588 [Eh]
	 Opposite-Spin Energy      =      -1.5250499742579233 [Eh]
	 Correlation Energy        =      -2.0206282774763822 [Eh]
	 Total Energy              =    -440.5267220700518465 [Eh]

	 ================> DF-SCS-MP2 Energies <==================
	-----------------------------------------------------------
	 SCS Same-Spin Scale       =       0.3333333333333333 [-]
	 SCS Opposite-Spin Scale   =       1.2000000000000000 [-]
	 SCS Same-Spin Energy      =      -0.1651927677394863 [Eh]
	 SCS Opposite-Spin Energy  =      -1.8300599691095079 [Eh]
	 SCS Correlation Energy    =      -1.9952527368489941 [Eh]
	 SCS Total Energy          =    -440.5013465294244952 [Eh]
	-----------------------------------------------------------

  Dipole Moment: [D]
     X:    -0.4286      Y:    -1.3766      Z:    -0.6713     Total:     1.5904

*** Psi4 exiting successfully. Buy a developer a beer!
