                               Psi4 1.3.2 release

  ==> Input File <==

--------------------------------------------------------------------------
#psi4
#
memory 32 gb

molecule  {
0 1
  N        1.7773000    -0.9706020    -0.3863220
  C        1.0080060     0.0962300     0.0271750
  C       -0.4507830     0.0432590     0.0183630
  C        1.8608341     1.0049963     0.3963882
  C       -1.1961700     1.1987140    -0.2700270
  C       -1.1363230    -1.1523850     0.2941990
  C        3.1117900    -0.6733570    -0.2771830
  C        3.2093430     0.6071710     0.2411150
  C       -2.5895110     1.1608830    -0.2689850
  C       -2.5303830    -1.1922690     0.2696200
  C       -3.2626170    -0.0361670    -0.0095020
  H        1.3994420    -1.7974010    -0.8317830
  H        1.6076040     2.0422160     0.8629880
  H       -0.6712930     2.1216380    -0.5070250
  H       -0.5746270    -2.0444360     0.5668450
  H        3.8716190    -1.3816710    -0.5776140
  H        4.1315670     1.1252340     0.4699550
  H       -3.1528190     2.0640850    -0.4925600
  H       -3.0466780    -2.1247140     0.4868240
  H       -4.3493910    -0.0663800    -0.0199320
units angstrom
no_reorient  #important for SAPT in psi4, default
symmetry c1  #important for SAPT in psi4, default
}

set PROPERTIES_ORIGIN ["COM"]
properties('MP2/aug-cc-pvtz', properties = ['dipole'])
--------------------------------------------------------------------------

    Molecular point group: c1
  Charge       = 0
  Multiplicity = 1
  Basis Set: AUG-CC-PVTZ
    Blend: AUG-CC-PVTZ
  Basis Set: (AUG-CC-PVTZ AUX)
    Blend: AUG-CC-PVTZ-JKFIT

    Orbital Energies [Eh]
    ---------------------

    Doubly Occupied:

       1A    -15.601182     2A    -11.258686     3A    -11.253373
       4A    -11.249093     5A    -11.242014     6A    -11.240720
       7A    -11.240556     8A    -11.238104     9A    -11.237796
      10A    -11.211067    11A    -11.208605    12A     -1.299286
      13A     -1.156246    14A     -1.054401    15A     -1.043309
      16A     -1.016802    17A     -0.967218    18A     -0.837210
      19A     -0.832635    20A     -0.788613    21A     -0.755913
      22A     -0.736920    23A     -0.681483    24A     -0.634580
      25A     -0.629800    26A     -0.591317    27A     -0.589704
      28A     -0.579651    29A     -0.574588    30A     -0.561031
      31A     -0.513508    32A     -0.504333    33A     -0.500762
      34A     -0.494793    35A     -0.367829    36A     -0.348620
      37A     -0.341188    38A     -0.282419

  @DF-RHF Final Energy:  -438.49762088431009

   => Energetics <=

    Nuclear Repulsion Energy =            538.8239536459640249
    One-Electron Energy =               -1661.3124413035181988
    Two-Electron Energy =                 683.9908667732441927
    Total Energy =                       -438.4976208843100949
  Basis Set: (AUG-CC-PVTZ AUX)
    Blend: AUG-CC-PVTZ-RI
    Molecular point group: c1

    Geometry (in Angstrom), charge = 0, multiplicity = 1:

       Center              X                  Y                   Z               Mass
    ------------   -----------------  -----------------  -----------------  -----------------
         N            1.774593829413    -0.963833327090    -0.383537625731    14.003074004430
         C            1.005299829413     0.102998672910     0.029959374269    12.000000000000
         C           -0.453489170587     0.050027672910     0.021147374269    12.000000000000
         C            1.858127929413     1.011764972910     0.399172574269    12.000000000000
         C           -1.198876170587     1.205482672910    -0.267242625731    12.000000000000
         C           -1.139029170587    -1.145616327090     0.296983374269    12.000000000000
         C            3.109083829413    -0.666588327090    -0.274398625731    12.000000000000
         C            3.206636829413     0.613939672910     0.243899374269    12.000000000000
         C           -2.592217170587     1.167651672910    -0.266200625731    12.000000000000
         C           -2.533089170587    -1.185500327090     0.272404374269    12.000000000000
         C           -3.265323170587    -0.029398327090    -0.006717625731    12.000000000000
         H            1.396735829413    -1.790632327090    -0.828998625731     1.007825032230
         H            1.604897829413     2.048984672910     0.865772374269     1.007825032230
         H           -0.673999170587     2.128406672910    -0.504240625731     1.007825032230
         H           -0.577333170587    -2.037667327090     0.569629374269     1.007825032230
         H            3.868912829413    -1.374902327090    -0.574829625731     1.007825032230
         H            4.128860829413     1.132002672910     0.472739374269     1.007825032230
         H           -3.155525170587     2.070853672910    -0.489775625731     1.007825032230
         H           -3.049384170587    -2.117945327090     0.489608374269     1.007825032230
         H           -4.352097170587    -0.059611327090    -0.017147625731     1.007825032230

  Basis Set: AUG-CC-PVTZ
    Blend: AUG-CC-PVTZ
  Basis Set: (AUG-CC-PVTZ AUX)
    Blend: AUG-CC-PVTZ-JKFIT
	 Reference Energy          =    -438.4976208843100949 [Eh]
	 Singles Energy            =      -0.0000000000000000 [Eh]
	 Same-Spin Energy          =      -0.4943684568393943 [Eh]
	 Opposite-Spin Energy      =      -1.5240680868867285 [Eh]
	 Correlation Energy        =      -2.0184365437261227 [Eh]
	 Total Energy              =    -440.5160574280362198 [Eh]

	 ================> DF-SCS-MP2 Energies <==================
	-----------------------------------------------------------
	 SCS Same-Spin Scale       =       0.3333333333333333 [-]
	 SCS Opposite-Spin Scale   =       1.2000000000000000 [-]
	 SCS Same-Spin Energy      =      -0.1647894856131314 [Eh]
	 SCS Opposite-Spin Energy  =      -1.8288817042640741 [Eh]
	 SCS Correlation Energy    =      -1.9936711898772055 [Eh]
	 SCS Total Energy          =    -440.4912920741872995 [Eh]
	-----------------------------------------------------------

  Dipole Moment: [D]
     X:    -0.5001      Y:    -1.2839      Z:    -0.6385     Total:     1.5186

*** Psi4 exiting successfully. Buy a developer a beer!
