                               Psi4 1.4a3.dev225

  ==> Input File <==

--------------------------------------------------------------------------
#psi4
#
memory 32 gb

molecule  {
0 1
  N        1.7773000    -0.9706020    -0.3863220
  C        1.0080060     0.0962300     0.0271750
  C       -0.4507830     0.0432590     0.0183630
  C        1.8620779     1.0548174     0.4184092
  C       -1.1961700     1.1987140    -0.2700270
  C       -1.1363230    -1.1523850     0.2941990
  C        3.1117900    -0.6733570    -0.2771830
  C        3.2093430     0.6071710     0.2411150
  C       -2.5895110     1.1608830    -0.2689850
  C       -2.5303830    -1.1922690     0.2696200
  C       -3.2626170    -0.0361670    -0.0095020
  H        1.3994420    -1.7974010    -0.8317830
  H        1.6076040     2.0422160     0.8629880
  H       -0.6712930     2.1216380    -0.5070250
  H       -0.5746270    -2.0444360     0.5668450
  H        3.8716190    -1.3816710    -0.5776140
  H        4.1315670     1.1252340     0.4699550
  H       -3.1528190     2.0640850    -0.4925600
  H       -3.0466780    -2.1247140     0.4868240
  H       -4.3493910    -0.0663800    -0.0199320
units angstrom
no_reorient  #important for SAPT in psi4, default
symmetry c1  #important for SAPT in psi4, default
}

set PROPERTIES_ORIGIN ["COM"]
properties('MP2/aug-cc-pvtz', properties = ['dipole'])
--------------------------------------------------------------------------

    Molecular point group: c1
  Charge       = 0
  Multiplicity = 1
  Basis Set: AUG-CC-PVTZ
    Blend: AUG-CC-PVTZ
  Basis Set: (AUG-CC-PVTZ AUX)
    Blend: AUG-CC-PVTZ-JKFIT

    Orbital Energies [Eh]
    ---------------------

    Doubly Occupied:

       1A    -15.604022     2A    -11.257881     3A    -11.256105
       4A    -11.252867     5A    -11.241927     6A    -11.240661
       7A    -11.240421     8A    -11.237973     9A    -11.237690
      10A    -11.213305    11A    -11.210926    12A     -1.295553
      13A     -1.156131    14A     -1.051625    15A     -1.040938
      16A     -1.016621    17A     -0.963398    18A     -0.837166
      19A     -0.832334    20A     -0.786758    21A     -0.762480
      22A     -0.735846    23A     -0.680383    24A     -0.633331
      25A     -0.629928    26A     -0.592253    27A     -0.588788
      28A     -0.581666    29A     -0.571631    30A     -0.555668
      31A     -0.525861    32A     -0.504417    33A     -0.500872
      34A     -0.494894    35A     -0.365726    36A     -0.347271
      37A     -0.341194    38A     -0.279075

  @DF-RHF Final Energy:  -438.50770266193649

   => Energetics <=

    Nuclear Repulsion Energy =            537.7215810200768829
    One-Electron Energy =               -1659.1273877560367964
    Two-Electron Energy =                 682.8981040740234221
    Total Energy =                       -438.5077026619364915
  Basis Set: (AUG-CC-PVTZ AUX)
    Blend: AUG-CC-PVTZ-RI
    Molecular point group: c1

    Geometry (in Angstrom), charge = 0, multiplicity = 1:

       Center              X                  Y                   Z               Mass
    ------------   -----------------  -----------------  -----------------  -----------------
         N            1.774489508207    -0.968011970955    -0.385384592509    14.003074004430
         C            1.005195508207     0.098820029045     0.028112407491    12.000000000000
         C           -0.453593491793     0.045849029045     0.019300407491    12.000000000000
         C            1.859267408207     1.057407429045     0.419346607491    12.000000000000
         C           -1.198980491793     1.201304029045    -0.269089592509    12.000000000000
         C           -1.139133491793    -1.149794970955     0.295136407491    12.000000000000
         C            3.108979508207    -0.670766970955    -0.276245592509    12.000000000000
         C            3.206532508207     0.609761029045     0.242052407491    12.000000000000
         C           -2.592321491793     1.163473029045    -0.268047592509    12.000000000000
         C           -2.533193491793    -1.189678970955     0.270557407491    12.000000000000
         C           -3.265427491793    -0.033576970955    -0.008564592509    12.000000000000
         H            1.396631508207    -1.794810970955    -0.830845592509     1.007825032230
         H            1.604793508207     2.044806029045     0.863925407491     1.007825032230
         H           -0.674103491793     2.124228029045    -0.506087592509     1.007825032230
         H           -0.577437491793    -2.041845970955     0.567782407491     1.007825032230
         H            3.868808508207    -1.379080970955    -0.576676592509     1.007825032230
         H            4.128756508207     1.127824029045     0.470892407491     1.007825032230
         H           -3.155629491793     2.066675029045    -0.491622592509     1.007825032230
         H           -3.049488491793    -2.122123970955     0.487761407491     1.007825032230
         H           -4.352201491793    -0.063789970955    -0.018994592509     1.007825032230

  Basis Set: AUG-CC-PVTZ
    Blend: AUG-CC-PVTZ
  Basis Set: (AUG-CC-PVTZ AUX)
    Blend: AUG-CC-PVTZ-JKFIT
	 Reference Energy          =    -438.5077026619364915 [Eh]
	 Singles Energy            =      -0.0000000000000000 [Eh]
	 Same-Spin Energy          =      -0.4944801059496223 [Eh]
	 Opposite-Spin Energy      =      -1.5243149265656326 [Eh]
	 Correlation Energy        =      -2.0187950325152548 [Eh]
	 Total Energy              =    -440.5264976944517343 [Eh]

	 ================> DF-SCS-MP2 Energies <==================
	-----------------------------------------------------------
	 SCS Same-Spin Scale       =       0.3333333333333333 [-]
	 SCS Opposite-Spin Scale   =       1.2000000000000000 [-]
	 SCS Same-Spin Energy      =      -0.1648267019832074 [Eh]
	 SCS Opposite-Spin Energy  =      -1.8291779118787590 [Eh]
	 SCS Correlation Energy    =      -1.9940046138619665 [Eh]
	 SCS Total Energy          =    -440.5017072757984806 [Eh]
	-----------------------------------------------------------

  Dipole Moment: [D]
     X:    -0.4841      Y:    -1.2953      Z:    -0.6402     Total:     1.5238

*** Psi4 exiting successfully. Buy a developer a beer!
