                               Psi4 1.3.2 release

  ==> Input File <==

--------------------------------------------------------------------------
#psi4
#
memory 32 gb

molecule  {
0 1
  N        1.7584754    -0.8836711    -0.3509197
  C        1.0080060     0.0962300     0.0271750
  C       -0.4507830     0.0432590     0.0183630
  C        1.8938950     1.0905280     0.4329840
  C       -1.1961700     1.1987140    -0.2700270
  C       -1.1363230    -1.1523850     0.2941990
  C        3.1117900    -0.6733570    -0.2771830
  C        3.2093430     0.6071710     0.2411150
  C       -2.5895110     1.1608830    -0.2689850
  C       -2.5303830    -1.1922690     0.2696200
  C       -3.2626170    -0.0361670    -0.0095020
  H        1.3994420    -1.7974010    -0.8317830
  H        1.6076040     2.0422160     0.8629880
  H       -0.6712930     2.1216380    -0.5070250
  H       -0.5746270    -2.0444360     0.5668450
  H        3.8716190    -1.3816710    -0.5776140
  H        4.1315670     1.1252340     0.4699550
  H       -3.1528190     2.0640850    -0.4925600
  H       -3.0466780    -2.1247140     0.4868240
  H       -4.3493910    -0.0663800    -0.0199320
units angstrom
no_reorient  #important for SAPT in psi4, default
symmetry c1  #important for SAPT in psi4, default
}

set PROPERTIES_ORIGIN ["COM"]
properties('MP2/aug-cc-pvtz', properties = ['dipole'])
--------------------------------------------------------------------------

    Molecular point group: c1
  Charge       = 0
  Multiplicity = 1
  Basis Set: AUG-CC-PVTZ
    Blend: AUG-CC-PVTZ
  Basis Set: (AUG-CC-PVTZ AUX)
    Blend: AUG-CC-PVTZ-JKFIT

    Orbital Energies [Eh]
    ---------------------

    Doubly Occupied:

       1A    -15.615206     2A    -11.255845     3A    -11.254412
       4A    -11.249398     5A    -11.243409     6A    -11.242213
       7A    -11.241734     8A    -11.239476     9A    -11.239143
      10A    -11.212118    11A    -11.204148    12A     -1.317799
      13A     -1.157490    14A     -1.050507    15A     -1.034769
      16A     -1.017311    17A     -0.968784    18A     -0.838772
      19A     -0.833646    20A     -0.772556    21A     -0.770773
      22A     -0.738310    23A     -0.682532    24A     -0.639093
      25A     -0.630883    26A     -0.596677    27A     -0.590783
      28A     -0.586877    29A     -0.563622    30A     -0.547842
      31A     -0.532587    32A     -0.506894    33A     -0.501709
      34A     -0.494978    35A     -0.362431    36A     -0.345890
      37A     -0.342404    38A     -0.274908

  @DF-RHF Final Energy:  -438.49366061544117

   => Energetics <=

    Nuclear Repulsion Energy =            538.8834138654030994
    One-Electron Energy =               -1661.3582891438331899
    Two-Electron Energy =                 683.9812146629889185
    Total Energy =                       -438.4936606154411720
  Basis Set: (AUG-CC-PVTZ AUX)
    Blend: AUG-CC-PVTZ-RI
    Molecular point group: c1

    Geometry (in Angstrom), charge = 0, multiplicity = 1:

       Center              X                  Y                   Z               Mass
    ------------   -----------------  -----------------  -----------------  -----------------
         N            1.754838738904    -0.892584438344    -0.354669663896    14.003074004430
         C            1.004369338904     0.087316661656     0.023425036104    12.000000000000
         C           -0.454419661096     0.034345661656     0.014613036104    12.000000000000
         C            1.890258338904     1.081614661656     0.429234036104    12.000000000000
         C           -1.199806661096     1.189800661656    -0.273776963896    12.000000000000
         C           -1.139959661096    -1.161298338344     0.290449036104    12.000000000000
         C            3.108153338904    -0.682270338344    -0.280932963896    12.000000000000
         C            3.205706338904     0.598257661656     0.237365036104    12.000000000000
         C           -2.593147661096     1.151969661656    -0.272734963896    12.000000000000
         C           -2.534019661096    -1.201182338344     0.265870036104    12.000000000000
         C           -3.266253661096    -0.045080338344    -0.013251963896    12.000000000000
         H            1.395805338904    -1.806314338344    -0.835532963896     1.007825032230
         H            1.603967338904     2.033302661656     0.859238036104     1.007825032230
         H           -0.674929661096     2.112724661656    -0.510774963896     1.007825032230
         H           -0.578263661096    -2.053349338344     0.563095036104     1.007825032230
         H            3.867982338904    -1.390584338344    -0.581363963896     1.007825032230
         H            4.127930338904     1.116320661656     0.466205036104     1.007825032230
         H           -3.156455661096     2.055171661656    -0.496309963896     1.007825032230
         H           -3.050314661096    -2.133627338344     0.483074036104     1.007825032230
         H           -4.353027661096    -0.075293338344    -0.023681963896     1.007825032230

  Basis Set: AUG-CC-PVTZ
    Blend: AUG-CC-PVTZ
  Basis Set: (AUG-CC-PVTZ AUX)
    Blend: AUG-CC-PVTZ-JKFIT
	 Reference Energy          =    -438.4936606154411720 [Eh]
	 Singles Energy            =      -0.0000000000000000 [Eh]
	 Same-Spin Energy          =      -0.4964383348560506 [Eh]
	 Opposite-Spin Energy      =      -1.5261290989266567 [Eh]
	 Correlation Energy        =      -2.0225674337827071 [Eh]
	 Total Energy              =    -440.5162280492238551 [Eh]

	 ================> DF-SCS-MP2 Energies <==================
	-----------------------------------------------------------
	 SCS Same-Spin Scale       =       0.3333333333333333 [-]
	 SCS Opposite-Spin Scale   =       1.2000000000000000 [-]
	 SCS Same-Spin Energy      =      -0.1654794449520169 [Eh]
	 SCS Opposite-Spin Energy  =      -1.8313549187119880 [Eh]
	 SCS Correlation Energy    =      -1.9968343636640049 [Eh]
	 SCS Total Energy          =    -440.4904949791051649 [Eh]
	-----------------------------------------------------------

  Dipole Moment: [D]
     X:    -0.5634      Y:    -1.5137      Z:    -0.7195     Total:     1.7681

*** Psi4 exiting successfully. Buy a developer a beer!
