                               Psi4 1.3.2 release

  ==> Input File <==

--------------------------------------------------------------------------
#psi4
#
memory 32 gb

molecule  {
0 1
  N        1.7773000    -0.9706020    -0.3863220
  C        1.0080060     0.0962300     0.0271750
  C       -0.4507830     0.0432590     0.0183630
  C        1.8938950     1.0905280     0.4329840
  C       -1.1961700     1.1987140    -0.2700270
  C       -1.1363230    -1.1523850     0.2941990
  C        3.1117900    -0.6733570    -0.2771830
  C        3.3953359     0.5388285     0.2139864
  C       -2.5895110     1.1608830    -0.2689850
  C       -2.5303830    -1.1922690     0.2696200
  C       -3.2626170    -0.0361670    -0.0095020
  H        1.3994420    -1.7974010    -0.8317830
  H        1.6076040     2.0422160     0.8629880
  H       -0.6712930     2.1216380    -0.5070250
  H       -0.5746270    -2.0444360     0.5668450
  H        3.8716190    -1.3816710    -0.5776140
  H        4.1315670     1.1252340     0.4699550
  H       -3.1528190     2.0640850    -0.4925600
  H       -3.0466780    -2.1247140     0.4868240
  H       -4.3493910    -0.0663800    -0.0199320
units angstrom
no_reorient  #important for SAPT in psi4, default
symmetry c1  #important for SAPT in psi4, default
}

set PROPERTIES_ORIGIN ["COM"]
properties('MP2/aug-cc-pvtz', properties = ['dipole'])
--------------------------------------------------------------------------

    Molecular point group: c1
  Charge       = 0
  Multiplicity = 1
  Basis Set: AUG-CC-PVTZ
    Blend: AUG-CC-PVTZ
  Basis Set: (AUG-CC-PVTZ AUX)
    Blend: AUG-CC-PVTZ-JKFIT

    Orbital Energies [Eh]
    ---------------------

    Doubly Occupied:

       1A    -15.601207     2A    -11.266389     3A    -11.261527
       4A    -11.254428     5A    -11.243262     6A    -11.242092
       7A    -11.241544     8A    -11.239545     9A    -11.239140
      10A    -11.223614    11A    -11.216770    12A     -1.287999
      13A     -1.157381    14A     -1.050085    15A     -1.027690
      16A     -1.016442    17A     -0.964663    18A     -0.839362
      19A     -0.832791    20A     -0.795631    21A     -0.765712
      22A     -0.734068    23A     -0.679923    24A     -0.638812
      25A     -0.630007    26A     -0.621527    27A     -0.591195
      28A     -0.581971    29A     -0.566804    30A     -0.565707
      31A     -0.509084    32A     -0.505607    33A     -0.496570
      34A     -0.469300    35A     -0.367377    36A     -0.342246
      37A     -0.334906    38A     -0.285688

  @DF-RHF Final Energy:  -438.47442728096377

   => Energetics <=

    Nuclear Repulsion Energy =            534.1647038844812414
    One-Electron Energy =               -1651.9021303204776814
    Two-Electron Energy =                 679.2629991550326167
    Total Energy =                       -438.4744272809638233
  Basis Set: (AUG-CC-PVTZ AUX)
    Blend: AUG-CC-PVTZ-RI
    Molecular point group: c1

    Geometry (in Angstrom), charge = 0, multiplicity = 1:

       Center              X                  Y                   Z               Mass
    ------------   -----------------  -----------------  -----------------  -----------------
         N            1.756221135567    -0.965275036429    -0.384331667958    14.003074004430
         C            0.986927135567     0.101556963571     0.029165332042    12.000000000000
         C           -0.471861864433     0.048585963571     0.020353332042    12.000000000000
         C            1.872816135567     1.095854963571     0.434974332042    12.000000000000
         C           -1.217248864433     1.204040963571    -0.268036667958    12.000000000000
         C           -1.157401864433    -1.147058036429     0.296189332042    12.000000000000
         C            3.090711135567    -0.668030036429    -0.275192667958    12.000000000000
         C            3.374257035567     0.544155463571     0.215976732042    12.000000000000
         C           -2.610589864433     1.166209963571    -0.266994667958    12.000000000000
         C           -2.551461864433    -1.186942036429     0.271610332042    12.000000000000
         C           -3.283695864433    -0.030840036429    -0.007511667958    12.000000000000
         H            1.378363135567    -1.792074036429    -0.829792667958     1.007825032230
         H            1.586525135567     2.047542963571     0.864978332042     1.007825032230
         H           -0.692371864433     2.126964963571    -0.505034667958     1.007825032230
         H           -0.595705864433    -2.039109036429     0.568835332042     1.007825032230
         H            3.850540135567    -1.376344036429    -0.575623667958     1.007825032230
         H            4.110488135567     1.130560963571     0.471945332042     1.007825032230
         H           -3.173897864433     2.069411963571    -0.490569667958     1.007825032230
         H           -3.067756864433    -2.119387036429     0.488814332042     1.007825032230
         H           -4.370469864433    -0.061053036429    -0.017941667958     1.007825032230

  Basis Set: AUG-CC-PVTZ
    Blend: AUG-CC-PVTZ
  Basis Set: (AUG-CC-PVTZ AUX)
    Blend: AUG-CC-PVTZ-JKFIT
	 Reference Energy          =    -438.4744272809637664 [Eh]
	 Singles Energy            =      -0.0000000000000000 [Eh]
	 Same-Spin Energy          =      -0.4929406647444003 [Eh]
	 Opposite-Spin Energy      =      -1.5251872081777218 [Eh]
	 Correlation Energy        =      -2.0181278729221219 [Eh]
	 Total Energy              =    -440.4925551538858599 [Eh]

	 ================> DF-SCS-MP2 Energies <==================
	-----------------------------------------------------------
	 SCS Same-Spin Scale       =       0.3333333333333333 [-]
	 SCS Opposite-Spin Scale   =       1.2000000000000000 [-]
	 SCS Same-Spin Energy      =      -0.1643135549148001 [Eh]
	 SCS Opposite-Spin Energy  =      -1.8302246498132662 [Eh]
	 SCS Correlation Energy    =      -1.9945382047280662 [Eh]
	 SCS Total Energy          =    -440.4689654856918537 [Eh]
	-----------------------------------------------------------

  Dipole Moment: [D]
     X:    -0.6135      Y:    -1.2847      Z:    -0.6290     Total:     1.5565

*** Psi4 exiting successfully. Buy a developer a beer!
