                               Psi4 1.4a3.dev225

  ==> Input File <==

--------------------------------------------------------------------------
#psi4
#
memory 32 gb

molecule  {
0 1
  N        1.7773000    -0.9706020    -0.3863220
  C        1.0080060     0.0962300     0.0271750
  C       -0.4507830     0.0432590     0.0183630
  C        1.8938950     1.0905280     0.4329840
  C       -1.1961700     1.1987140    -0.2700270
  C       -1.1363230    -1.1523850     0.2941990
  C        3.1117900    -0.6733570    -0.2771830
  C        3.2093430     0.6071710     0.2411150
  C       -2.5895110     1.1608830    -0.2689850
  C       -2.5303830    -1.1922690     0.2696200
  C       -3.2626170    -0.0361670    -0.0095020
  H        1.3994420    -1.7974010    -0.8317830
  H        1.6076040     2.0422160     0.8629880
  H       -0.6712930     2.1216380    -0.5070250
  H       -0.5746270    -2.0444360     0.5668450
  H        3.8575656    -1.3685704    -0.5720574
  H        4.1315670     1.1252340     0.4699550
  H       -3.1528190     2.0640850    -0.4925600
  H       -3.0466780    -2.1247140     0.4868240
  H       -4.3493910    -0.0663800    -0.0199320
units angstrom
no_reorient  #important for SAPT in psi4, default
symmetry c1  #important for SAPT in psi4, default
}

set PROPERTIES_ORIGIN ["COM"]
properties('MP2/aug-cc-pvtz', properties = ['dipole'])
--------------------------------------------------------------------------

    Molecular point group: c1
  Charge       = 0
  Multiplicity = 1
  Basis Set: AUG-CC-PVTZ
    Blend: AUG-CC-PVTZ
  Basis Set: (AUG-CC-PVTZ AUX)
    Blend: AUG-CC-PVTZ-JKFIT

    Orbital Energies [Eh]
    ---------------------

    Doubly Occupied:

       1A    -15.608128     2A    -11.262050     3A    -11.254339
       4A    -11.253189     5A    -11.241995     6A    -11.240700
       7A    -11.240457     8A    -11.237914     9A    -11.237643
      10A    -11.213807    11A    -11.212709    12A     -1.294084
      13A     -1.156138    14A     -1.048959    15A     -1.042874
      16A     -1.016758    17A     -0.959996    18A     -0.838391
      19A     -0.832208    20A     -0.788667    21A     -0.765622
      22A     -0.736561    23A     -0.680698    24A     -0.634087
      25A     -0.629655    26A     -0.593512    27A     -0.588812
      28A     -0.584029    29A     -0.569260    30A     -0.549383
      31A     -0.537886    32A     -0.504591    33A     -0.500770
      34A     -0.494350    35A     -0.363405    36A     -0.350131
      37A     -0.341319    38A     -0.273353

  @DF-RHF Final Energy:  -438.50900723395415

   => Energetics <=

    Nuclear Repulsion Energy =            536.9345997849477499
    One-Electron Energy =               -1657.5303546336044747
    Two-Electron Energy =                 682.0867476147025172
    Total Energy =                       -438.5090072339542075
  Basis Set: (AUG-CC-PVTZ AUX)
    Blend: AUG-CC-PVTZ-RI
    Molecular point group: c1

    Geometry (in Angstrom), charge = 0, multiplicity = 1:

       Center              X                  Y                   Z               Mass
    ------------   -----------------  -----------------  -----------------  -----------------
         N            1.771919907033    -0.971099407236    -0.386646165626    14.003074004430
         C            1.002625907033     0.095732592764     0.026850834374    12.000000000000
         C           -0.456163092967     0.042761592764     0.018038834374    12.000000000000
         C            1.888514907033     1.090030592764     0.432659834374    12.000000000000
         C           -1.201550092967     1.198216592764    -0.270351165626    12.000000000000
         C           -1.141703092967    -1.152882407236     0.293874834374    12.000000000000
         C            3.106409907033    -0.673854407236    -0.277507165626    12.000000000000
         C            3.203962907033     0.606673592764     0.240790834374    12.000000000000
         C           -2.594891092967     1.160385592764    -0.269309165626    12.000000000000
         C           -2.535763092967    -1.192766407236     0.269295834374    12.000000000000
         C           -3.267997092967    -0.036664407236    -0.009826165626    12.000000000000
         H            1.394061907033    -1.797898407236    -0.832107165626     1.007825032230
         H            1.602223907033     2.041718592764     0.862663834374     1.007825032230
         H           -0.676673092967     2.121140592764    -0.507349165626     1.007825032230
         H           -0.580007092967    -2.044933407236     0.566520834374     1.007825032230
         H            3.852185507033    -1.369067807236    -0.572381565626     1.007825032230
         H            4.126186907033     1.124736592764     0.469630834374     1.007825032230
         H           -3.158199092967     2.063587592764    -0.492884165626     1.007825032230
         H           -3.052058092967    -2.125211407236     0.486499834374     1.007825032230
         H           -4.354771092967    -0.066877407236    -0.020256165626     1.007825032230

  Basis Set: AUG-CC-PVTZ
    Blend: AUG-CC-PVTZ
  Basis Set: (AUG-CC-PVTZ AUX)
    Blend: AUG-CC-PVTZ-JKFIT
	 Reference Energy          =    -438.5090072339541507 [Eh]
	 Singles Energy            =      -0.0000000000000000 [Eh]
	 Same-Spin Energy          =      -0.4952158088652697 [Eh]
	 Opposite-Spin Energy      =      -1.5251880174908661 [Eh]
	 Correlation Energy        =      -2.0204038263561359 [Eh]
	 Total Energy              =    -440.5294110603102808 [Eh]

	 ================> DF-SCS-MP2 Energies <==================
	-----------------------------------------------------------
	 SCS Same-Spin Scale       =       0.3333333333333333 [-]
	 SCS Opposite-Spin Scale   =       1.2000000000000000 [-]
	 SCS Same-Spin Energy      =      -0.1650719362884232 [Eh]
	 SCS Opposite-Spin Energy  =      -1.8302256209890393 [Eh]
	 SCS Correlation Energy    =      -1.9952975572774625 [Eh]
	 SCS Total Energy          =    -440.5043047912316183 [Eh]
	-----------------------------------------------------------

  Dipole Moment: [D]
     X:    -0.4496      Y:    -1.3199      Z:    -0.6479     Total:     1.5375

*** Psi4 exiting successfully. Buy a developer a beer!
