                               Psi4 1.4a3.dev225

  ==> Input File <==

--------------------------------------------------------------------------
#psi4
#
memory 32 gb

molecule  {
0 1
  N        1.7773000    -0.9706020    -0.3863220
  C        1.0080060     0.0962300     0.0271750
  C       -0.4507830     0.0432590     0.0183630
  C        1.8938950     1.0905280     0.4329840
  C       -1.1855590     1.1822655    -0.2659216
  C       -1.1363230    -1.1523850     0.2941990
  C        3.1117900    -0.6733570    -0.2771830
  C        3.2093430     0.6071710     0.2411150
  C       -2.5895110     1.1608830    -0.2689850
  C       -2.5303830    -1.1922690     0.2696200
  C       -3.2626170    -0.0361670    -0.0095020
  H        1.3994420    -1.7974010    -0.8317830
  H        1.6076040     2.0422160     0.8629880
  H       -0.6712930     2.1216380    -0.5070250
  H       -0.5746270    -2.0444360     0.5668450
  H        3.8716190    -1.3816710    -0.5776140
  H        4.1315670     1.1252340     0.4699550
  H       -3.1528190     2.0640850    -0.4925600
  H       -3.0466780    -2.1247140     0.4868240
  H       -4.3493910    -0.0663800    -0.0199320
units angstrom
no_reorient  #important for SAPT in psi4, default
symmetry c1  #important for SAPT in psi4, default
}

set PROPERTIES_ORIGIN ["COM"]
properties('MP2/aug-cc-pvtz', properties = ['dipole'])
--------------------------------------------------------------------------

    Molecular point group: c1
  Charge       = 0
  Multiplicity = 1
  Basis Set: AUG-CC-PVTZ
    Blend: AUG-CC-PVTZ
  Basis Set: (AUG-CC-PVTZ AUX)
    Blend: AUG-CC-PVTZ-JKFIT

    Orbital Energies [Eh]
    ---------------------

    Doubly Occupied:

       1A    -15.608160     2A    -11.261890     3A    -11.256366
       4A    -11.251072     5A    -11.242033     6A    -11.241717
       7A    -11.240660     8A    -11.237961     9A    -11.237588
      10A    -11.213706    11A    -11.212582    12A     -1.294042
      13A     -1.157504    14A     -1.050047    15A     -1.042859
      16A     -1.015408    17A     -0.959780    18A     -0.837376
      19A     -0.832839    20A     -0.788628    21A     -0.764631
      22A     -0.736016    23A     -0.678863    24A     -0.634350
      25A     -0.629229    26A     -0.592684    27A     -0.588041
      28A     -0.583768    29A     -0.569501    30A     -0.548980
      31A     -0.536575    32A     -0.504829    33A     -0.501921
      34A     -0.493567    35A     -0.364642    36A     -0.350117
      37A     -0.340011    38A     -0.274052

  @DF-RHF Final Energy:  -438.50849271939921

   => Energetics <=

    Nuclear Repulsion Energy =            537.1146885718447948
    One-Electron Energy =               -1657.8983702376658584
    Two-Electron Energy =                 682.2751889464217356
    Total Energy =                       -438.5084927193992144
  Basis Set: (AUG-CC-PVTZ AUX)
    Blend: AUG-CC-PVTZ-RI
    Molecular point group: c1

    Geometry (in Angstrom), charge = 0, multiplicity = 1:

       Center              X                  Y                   Z               Mass
    ------------   -----------------  -----------------  -----------------  -----------------
         N            1.770930937245    -0.969627540583    -0.386951356452    14.003074004430
         C            1.001636937245     0.097204459417     0.026545643548    12.000000000000
         C           -0.457152062755     0.044233459417     0.017733643548    12.000000000000
         C            1.887525937245     1.091502459417     0.432354643548    12.000000000000
         C           -1.191928062755     1.183239959417    -0.266550956452    12.000000000000
         C           -1.142692062755    -1.151410540583     0.293569643548    12.000000000000
         C            3.105420937245    -0.672382540583    -0.277812356452    12.000000000000
         C            3.202973937245     0.608145459417     0.240485643548    12.000000000000
         C           -2.595880062755     1.161857459417    -0.269614356452    12.000000000000
         C           -2.536752062755    -1.191294540583     0.268990643548    12.000000000000
         C           -3.268986062755    -0.035192540583    -0.010131356452    12.000000000000
         H            1.393072937245    -1.796426540583    -0.832412356452     1.007825032230
         H            1.601234937245     2.043190459417     0.862358643548     1.007825032230
         H           -0.677662062755     2.122612459417    -0.507654356452     1.007825032230
         H           -0.580996062755    -2.043461540583     0.566215643548     1.007825032230
         H            3.865249937245    -1.380696540583    -0.578243356452     1.007825032230
         H            4.125197937245     1.126208459417     0.469325643548     1.007825032230
         H           -3.159188062755     2.065059459417    -0.493189356452     1.007825032230
         H           -3.053047062755    -2.123739540583     0.486194643548     1.007825032230
         H           -4.355760062755    -0.065405540583    -0.020561356452     1.007825032230

  Basis Set: AUG-CC-PVTZ
    Blend: AUG-CC-PVTZ
  Basis Set: (AUG-CC-PVTZ AUX)
    Blend: AUG-CC-PVTZ-JKFIT
	 Reference Energy          =    -438.5084927193992144 [Eh]
	 Singles Energy            =      -0.0000000000000000 [Eh]
	 Same-Spin Energy          =      -0.4952480579643685 [Eh]
	 Opposite-Spin Energy      =      -1.5253498676215167 [Eh]
	 Correlation Energy        =      -2.0205979255858852 [Eh]
	 Total Energy              =    -440.5290906449851036 [Eh]

	 ================> DF-SCS-MP2 Energies <==================
	-----------------------------------------------------------
	 SCS Same-Spin Scale       =       0.3333333333333333 [-]
	 SCS Opposite-Spin Scale   =       1.2000000000000000 [-]
	 SCS Same-Spin Energy      =      -0.1650826859881228 [Eh]
	 SCS Opposite-Spin Energy  =      -1.8304198411458199 [Eh]
	 SCS Correlation Energy    =      -1.9955025271339428 [Eh]
	 SCS Total Energy          =    -440.5039952465331794 [Eh]
	-----------------------------------------------------------

  Dipole Moment: [D]
     X:    -0.4731      Y:    -1.3191      Z:    -0.6475     Total:     1.5437

*** Psi4 exiting successfully. Buy a developer a beer!
