                               Psi4 1.3.2 release

  ==> Input File <==

--------------------------------------------------------------------------
#psi4
#
memory 32 gb

molecule  {
0 1
  N        1.7773000    -0.9706020    -0.3863220
  C        1.0278992     0.1072613     0.0350243
  C       -0.4507830     0.0432590     0.0183630
  C        1.8938950     1.0905280     0.4329840
  C       -1.1961700     1.1987140    -0.2700270
  C       -1.1363230    -1.1523850     0.2941990
  C        3.1117900    -0.6733570    -0.2771830
  C        3.2093430     0.6071710     0.2411150
  C       -2.5895110     1.1608830    -0.2689850
  C       -2.5303830    -1.1922690     0.2696200
  C       -3.2626170    -0.0361670    -0.0095020
  H        1.3994420    -1.7974010    -0.8317830
  H        1.6076040     2.0422160     0.8629880
  H       -0.6712930     2.1216380    -0.5070250
  H       -0.5746270    -2.0444360     0.5668450
  H        3.8716190    -1.3816710    -0.5776140
  H        4.1315670     1.1252340     0.4699550
  H       -3.1528190     2.0640850    -0.4925600
  H       -3.0466780    -2.1247140     0.4868240
  H       -4.3493910    -0.0663800    -0.0199320
units angstrom
no_reorient  #important for SAPT in psi4, default
symmetry c1  #important for SAPT in psi4, default
}

set PROPERTIES_ORIGIN ["COM"]
properties('MP2/aug-cc-pvtz', properties = ['dipole'])
--------------------------------------------------------------------------

    Molecular point group: c1
  Charge       = 0
  Multiplicity = 1
  Basis Set: AUG-CC-PVTZ
    Blend: AUG-CC-PVTZ
  Basis Set: (AUG-CC-PVTZ AUX)
    Blend: AUG-CC-PVTZ-JKFIT

    Orbital Energies [Eh]
    ---------------------

    Doubly Occupied:

       1A    -15.606690     2A    -11.261042     3A    -11.256311
       4A    -11.254205     5A    -11.241986     6A    -11.240608
       7A    -11.240462     8A    -11.237822     9A    -11.237503
      10A    -11.212935    11A    -11.210642    12A     -1.294774
      13A     -1.155351    14A     -1.049733    15A     -1.042030
      16A     -1.016685    17A     -0.960201    18A     -0.835684
      19A     -0.831715    20A     -0.789223    21A     -0.766015
      22A     -0.734025    23A     -0.679674    24A     -0.632166
      25A     -0.629226    26A     -0.595598    27A     -0.589187
      28A     -0.580489    29A     -0.569467    30A     -0.551171
      31A     -0.537011    32A     -0.503733    33A     -0.499423
      34A     -0.494683    35A     -0.363052    36A     -0.350408
      37A     -0.341163    38A     -0.276328

  @DF-RHF Final Energy:  -438.50948993101696

   => Energetics <=

    Nuclear Repulsion Energy =            536.8293112726328218
    One-Electron Energy =               -1657.3407610708879929
    Two-Electron Energy =                 682.0019598672382699
    Total Energy =                       -438.5094899310169012
  Basis Set: (AUG-CC-PVTZ AUX)
    Blend: AUG-CC-PVTZ-RI
    Molecular point group: c1

    Geometry (in Angstrom), charge = 0, multiplicity = 1:

       Center              X                  Y                   Z               Mass
    ------------   -----------------  -----------------  -----------------  -----------------
         N            1.770152411518    -0.971932353155    -0.387265368483    14.003074004430
         C            1.020751611518     0.105930946845     0.034080931517    12.000000000000
         C           -0.457930588482     0.041928646845     0.017419631517    12.000000000000
         C            1.886747411518     1.089197646845     0.432040631517    12.000000000000
         C           -1.203317588482     1.197383646845    -0.270970368483    12.000000000000
         C           -1.143470588482    -1.153715353155     0.293255631517    12.000000000000
         C            3.104642411518    -0.674687353155    -0.278126368483    12.000000000000
         C            3.202195411518     0.605840646845     0.240171631517    12.000000000000
         C           -2.596658588482     1.159552646845    -0.269928368483    12.000000000000
         C           -2.537530588482    -1.193599353155     0.268676631517    12.000000000000
         C           -3.269764588482    -0.037497353155    -0.010445368483    12.000000000000
         H            1.392294411518    -1.798731353155    -0.832726368483     1.007825032230
         H            1.600456411518     2.040885646845     0.862044631517     1.007825032230
         H           -0.678440588482     2.120307646845    -0.507968368483     1.007825032230
         H           -0.581774588482    -2.045766353155     0.565901631517     1.007825032230
         H            3.864471411518    -1.383001353155    -0.578557368483     1.007825032230
         H            4.124419411518     1.123903646845     0.469011631517     1.007825032230
         H           -3.159966588482     2.062754646845    -0.493503368483     1.007825032230
         H           -3.053825588482    -2.126044353155     0.485880631517     1.007825032230
         H           -4.356538588482    -0.067710353155    -0.020875368483     1.007825032230

  Basis Set: AUG-CC-PVTZ
    Blend: AUG-CC-PVTZ
  Basis Set: (AUG-CC-PVTZ AUX)
    Blend: AUG-CC-PVTZ-JKFIT
	 Reference Energy          =    -438.5094899310169581 [Eh]
	 Singles Energy            =      -0.0000000000000000 [Eh]
	 Same-Spin Energy          =      -0.4946565683501390 [Eh]
	 Opposite-Spin Energy      =      -1.5245241883321972 [Eh]
	 Correlation Energy        =      -2.0191807566823363 [Eh]
	 Total Energy              =    -440.5286706876992753 [Eh]

	 ================> DF-SCS-MP2 Energies <==================
	-----------------------------------------------------------
	 SCS Same-Spin Scale       =       0.3333333333333333 [-]
	 SCS Opposite-Spin Scale   =       1.2000000000000000 [-]
	 SCS Same-Spin Energy      =      -0.1648855227833797 [Eh]
	 SCS Opposite-Spin Energy  =      -1.8294290259986365 [Eh]
	 SCS Correlation Energy    =      -1.9943145487820162 [Eh]
	 SCS Total Energy          =    -440.5038044797989869 [Eh]
	-----------------------------------------------------------

  Dipole Moment: [D]
     X:    -0.4818      Y:    -1.3022      Z:    -0.6407     Total:     1.5292

*** Psi4 exiting successfully. Buy a developer a beer!
