                               Psi4 1.3.2 release

  ==> Input File <==

--------------------------------------------------------------------------
#psi4
#
memory 32 gb

molecule  {
0 1
  N        1.6956214    -1.0175383    -0.4059864
  C        1.0080060     0.0962300     0.0271750
  C       -0.4507830     0.0432590     0.0183630
  C        1.8938950     1.0905280     0.4329840
  C       -1.1961700     1.1987140    -0.2700270
  C       -1.1363230    -1.1523850     0.2941990
  C        3.1117900    -0.6733570    -0.2771830
  C        3.2093430     0.6071710     0.2411150
  C       -2.5895110     1.1608830    -0.2689850
  C       -2.5303830    -1.1922690     0.2696200
  C       -3.2626170    -0.0361670    -0.0095020
  H        1.3994420    -1.7974010    -0.8317830
  H        1.6076040     2.0422160     0.8629880
  H       -0.6712930     2.1216380    -0.5070250
  H       -0.5746270    -2.0444360     0.5668450
  H        3.8716190    -1.3816710    -0.5776140
  H        4.1315670     1.1252340     0.4699550
  H       -3.1528190     2.0640850    -0.4925600
  H       -3.0466780    -2.1247140     0.4868240
  H       -4.3493910    -0.0663800    -0.0199320
units angstrom
no_reorient  #important for SAPT in psi4, default
symmetry c1  #important for SAPT in psi4, default
}

set PROPERTIES_ORIGIN ["COM"]
properties('MP2/aug-cc-pvtz', properties = ['dipole'])
--------------------------------------------------------------------------

    Molecular point group: c1
  Charge       = 0
  Multiplicity = 1
  Basis Set: AUG-CC-PVTZ
    Blend: AUG-CC-PVTZ
  Basis Set: (AUG-CC-PVTZ AUX)
    Blend: AUG-CC-PVTZ-JKFIT

    Orbital Energies [Eh]
    ---------------------

    Doubly Occupied:

       1A    -15.599780     2A    -11.269853     3A    -11.262242
       4A    -11.251094     5A    -11.241680     6A    -11.240380
       7A    -11.240186     8A    -11.237976     9A    -11.237549
      10A    -11.222337    11A    -11.214611    12A     -1.278200
      13A     -1.154970    14A     -1.056879    15A     -1.043947
      16A     -1.016724    17A     -0.952635    18A     -0.840203
      19A     -0.831440    20A     -0.804840    21A     -0.759580
      22A     -0.732661    23A     -0.676612    24A     -0.632877
      25A     -0.626107    26A     -0.608925    27A     -0.589208
      28A     -0.571619    29A     -0.561236    30A     -0.548955
      31A     -0.538009    32A     -0.501716    33A     -0.499977
      34A     -0.494557    35A     -0.360539    36A     -0.357237
      37A     -0.340967    38A     -0.274134

  @DF-RHF Final Energy:  -438.49558886741261

   => Energetics <=

    Nuclear Repulsion Energy =            536.0752829621216051
    One-Electron Energy =               -1655.7968613183554680
    Two-Electron Energy =                 681.2259894888211420
    Total Energy =                       -438.4955888674126072
  Basis Set: (AUG-CC-PVTZ AUX)
    Blend: AUG-CC-PVTZ-RI
    Molecular point group: c1

    Geometry (in Angstrom), charge = 0, multiplicity = 1:

       Center              X                  Y                   Z               Mass
    ------------   -----------------  -----------------  -----------------  -----------------
         N            1.698136466638    -1.013349615135    -0.404346804829    14.003074004430
         C            1.010521066638     0.100418684865     0.028814595171    12.000000000000
         C           -0.448267933362     0.047447684865     0.020002595171    12.000000000000
         C            1.896410066638     1.094716684865     0.434623595171    12.000000000000
         C           -1.193654933362     1.202902684865    -0.268387404829    12.000000000000
         C           -1.133807933362    -1.148196315135     0.295838595171    12.000000000000
         C            3.114305066638    -0.669168315135    -0.275543404829    12.000000000000
         C            3.211858066638     0.611359684865     0.242754595171    12.000000000000
         C           -2.586995933362     1.165071684865    -0.267345404829    12.000000000000
         C           -2.527867933362    -1.188080315135     0.271259595171    12.000000000000
         C           -3.260101933362    -0.031978315135    -0.007862404829    12.000000000000
         H            1.401957066638    -1.793212315135    -0.830143404829     1.007825032230
         H            1.610119066638     2.046404684865     0.864627595171     1.007825032230
         H           -0.668777933362     2.125826684865    -0.505385404829     1.007825032230
         H           -0.572111933362    -2.040247315135     0.568484595171     1.007825032230
         H            3.874134066638    -1.377482315135    -0.575974404829     1.007825032230
         H            4.134082066638     1.129422684865     0.471594595171     1.007825032230
         H           -3.150303933362     2.068273684865    -0.490920404829     1.007825032230
         H           -3.044162933362    -2.120525315135     0.488463595171     1.007825032230
         H           -4.346875933362    -0.062191315135    -0.018292404829     1.007825032230

  Basis Set: AUG-CC-PVTZ
    Blend: AUG-CC-PVTZ
  Basis Set: (AUG-CC-PVTZ AUX)
    Blend: AUG-CC-PVTZ-JKFIT
	 Reference Energy          =    -438.4955888674126072 [Eh]
	 Singles Energy            =      -0.0000000000000000 [Eh]
	 Same-Spin Energy          =      -0.4943880517605551 [Eh]
	 Opposite-Spin Energy      =      -1.5258652475454415 [Eh]
	 Correlation Energy        =      -2.0202532993059967 [Eh]
	 Total Energy              =    -440.5158421667185848 [Eh]

	 ================> DF-SCS-MP2 Energies <==================
	-----------------------------------------------------------
	 SCS Same-Spin Scale       =       0.3333333333333333 [-]
	 SCS Opposite-Spin Scale   =       1.2000000000000000 [-]
	 SCS Same-Spin Energy      =      -0.1647960172535184 [Eh]
	 SCS Opposite-Spin Energy  =      -1.8310382970545298 [Eh]
	 SCS Correlation Energy    =      -1.9958343143080481 [Eh]
	 SCS Total Energy          =    -440.4914231817206769 [Eh]
	-----------------------------------------------------------

  Dipole Moment: [D]
     X:    -0.3097      Y:    -1.0992      Z:    -0.5631     Total:     1.2732

*** Psi4 exiting successfully. Buy a developer a beer!
