                               Psi4 1.3.2 release

  ==> Input File <==

--------------------------------------------------------------------------
#psi4
#
memory 32 gb

molecule  {
0 1
  N        1.7773000    -0.9706020    -0.3863220
  C        1.0080060     0.0962300     0.0271750
  C       -0.5793465    -0.0262461     0.0346834
  C        1.8938950     1.0905280     0.4329840
  C       -1.1961700     1.1987140    -0.2700270
  C       -1.1363230    -1.1523850     0.2941990
  C        3.1117900    -0.6733570    -0.2771830
  C        3.2093430     0.6071710     0.2411150
  C       -2.5895110     1.1608830    -0.2689850
  C       -2.5303830    -1.1922690     0.2696200
  C       -3.2626170    -0.0361670    -0.0095020
  H        1.3994420    -1.7974010    -0.8317830
  H        1.6076040     2.0422160     0.8629880
  H       -0.6712930     2.1216380    -0.5070250
  H       -0.5746270    -2.0444360     0.5668450
  H        3.8716190    -1.3816710    -0.5776140
  H        4.1315670     1.1252340     0.4699550
  H       -3.1528190     2.0640850    -0.4925600
  H       -3.0466780    -2.1247140     0.4868240
  H       -4.3493910    -0.0663800    -0.0199320
units angstrom
no_reorient  #important for SAPT in psi4, default
symmetry c1  #important for SAPT in psi4, default
}

set PROPERTIES_ORIGIN ["COM"]
properties('MP2/aug-cc-pvtz', properties = ['dipole'])
--------------------------------------------------------------------------

    Molecular point group: c1
  Charge       = 0
  Multiplicity = 1
  Basis Set: AUG-CC-PVTZ
    Blend: AUG-CC-PVTZ
  Basis Set: (AUG-CC-PVTZ AUX)
    Blend: AUG-CC-PVTZ-JKFIT

    Orbital Energies [Eh]
    ---------------------

    Doubly Occupied:

       1A    -15.604424     2A    -11.264816     3A    -11.251504
       4A    -11.250085     5A    -11.243832     6A    -11.241954
       7A    -11.239643     8A    -11.238180     9A    -11.228225
      10A    -11.210469    11A    -11.209024    12A     -1.288626
      13A     -1.172414    14A     -1.043972    15A     -1.040304
      16A     -1.022566    17A     -0.958095    18A     -0.842997
      19A     -0.825555    20A     -0.785291    21A     -0.761745
      22A     -0.732771    23A     -0.677552    24A     -0.639672
      25A     -0.631809    26A     -0.600471    27A     -0.588864
      28A     -0.573250    29A     -0.563638    30A     -0.546633
      31A     -0.533810    32A     -0.515778    33A     -0.511064
      34A     -0.472705    35A     -0.365779    36A     -0.347627
      37A     -0.341725    38A     -0.278965

  @DF-RHF Final Energy:  -438.48449865400306

   => Energetics <=

    Nuclear Repulsion Energy =            537.0805612082925791
    One-Electron Energy =               -1657.8384532999839394
    Two-Electron Energy =                 682.2733934376881280
    Total Energy =                       -438.4844986540031186
  Basis Set: (AUG-CC-PVTZ AUX)
    Blend: AUG-CC-PVTZ-RI
    Molecular point group: c1

    Geometry (in Angstrom), charge = 0, multiplicity = 1:

       Center              X                  Y                   Z               Mass
    ------------   -----------------  -----------------  -----------------  -----------------
         N            1.782603916575    -0.965177525708    -0.387975864839    14.003074004430
         C            1.013309916575     0.101654474292     0.025521135161    12.000000000000
         C           -0.574042583425    -0.020821625708     0.033029535161    12.000000000000
         C            1.899198916575     1.095952474292     0.431330135161    12.000000000000
         C           -1.190866083425     1.204138474292    -0.271680864839    12.000000000000
         C           -1.131019083425    -1.146960525708     0.292545135161    12.000000000000
         C            3.117093916575    -0.667932525708    -0.278836864839    12.000000000000
         C            3.214646916575     0.612595474292     0.239461135161    12.000000000000
         C           -2.584207083425     1.166307474292    -0.270638864839    12.000000000000
         C           -2.525079083425    -1.186844525708     0.267966135161    12.000000000000
         C           -3.257313083425    -0.030742525708    -0.011155864839    12.000000000000
         H            1.404745916575    -1.791976525708    -0.833436864839     1.007825032230
         H            1.612907916575     2.047640474292     0.861334135161     1.007825032230
         H           -0.665989083425     2.127062474292    -0.508678864839     1.007825032230
         H           -0.569323083425    -2.039011525708     0.565191135161     1.007825032230
         H            3.876922916575    -1.376246525708    -0.579267864839     1.007825032230
         H            4.136870916575     1.130658474292     0.468301135161     1.007825032230
         H           -3.147515083425     2.069509474292    -0.494213864839     1.007825032230
         H           -3.041374083425    -2.119289525708     0.485170135161     1.007825032230
         H           -4.344087083425    -0.060955525708    -0.021585864839     1.007825032230

  Basis Set: AUG-CC-PVTZ
    Blend: AUG-CC-PVTZ
  Basis Set: (AUG-CC-PVTZ AUX)
    Blend: AUG-CC-PVTZ-JKFIT
	 Reference Energy          =    -438.4844986540030618 [Eh]
	 Singles Energy            =      -0.0000000000000000 [Eh]
	 Same-Spin Energy          =      -0.4941687808920823 [Eh]
	 Opposite-Spin Energy      =      -1.5243618478941938 [Eh]
	 Correlation Energy        =      -2.0185306287862761 [Eh]
	 Total Energy              =    -440.5030292827893277 [Eh]

	 ================> DF-SCS-MP2 Energies <==================
	-----------------------------------------------------------
	 SCS Same-Spin Scale       =       0.3333333333333333 [-]
	 SCS Opposite-Spin Scale   =       1.2000000000000000 [-]
	 SCS Same-Spin Energy      =      -0.1647229269640274 [Eh]
	 SCS Opposite-Spin Energy  =      -1.8292342174730325 [Eh]
	 SCS Correlation Energy    =      -1.9939571444370598 [Eh]
	 SCS Total Energy          =    -440.4784557984401090 [Eh]
	-----------------------------------------------------------

  Dipole Moment: [D]
     X:    -0.8585      Y:    -1.3333      Z:    -0.6465     Total:     1.7125

*** Psi4 exiting successfully. Buy a developer a beer!
