                               Psi4 1.3.2 release

  ==> Input File <==

--------------------------------------------------------------------------
#psi4
#
memory 32 gb

molecule  {
0 1
  N        1.7515396    -0.8401655    -0.3321669
  C        1.0080060     0.0962300     0.0271750
  C       -0.4507830     0.0432590     0.0183630
  C        1.8938950     1.0905280     0.4329840
  C       -1.1961700     1.1987140    -0.2700270
  C       -1.1363230    -1.1523850     0.2941990
  C        3.1117900    -0.6733570    -0.2771830
  C        3.2093430     0.6071710     0.2411150
  C       -2.5895110     1.1608830    -0.2689850
  C       -2.5303830    -1.1922690     0.2696200
  C       -3.2626170    -0.0361670    -0.0095020
  H        1.3994420    -1.7974010    -0.8317830
  H        1.6076040     2.0422160     0.8629880
  H       -0.6712930     2.1216380    -0.5070250
  H       -0.5746270    -2.0444360     0.5668450
  H        3.8716190    -1.3816710    -0.5776140
  H        4.1315670     1.1252340     0.4699550
  H       -3.1528190     2.0640850    -0.4925600
  H       -3.0466780    -2.1247140     0.4868240
  H       -4.3493910    -0.0663800    -0.0199320
units angstrom
no_reorient  #important for SAPT in psi4, default
symmetry c1  #important for SAPT in psi4, default
}

set PROPERTIES_ORIGIN ["COM"]
properties('MP2/aug-cc-pvtz', properties = ['dipole'])
--------------------------------------------------------------------------

    Molecular point group: c1
  Charge       = 0
  Multiplicity = 1
  Basis Set: AUG-CC-PVTZ
    Blend: AUG-CC-PVTZ
  Basis Set: (AUG-CC-PVTZ AUX)
    Blend: AUG-CC-PVTZ-JKFIT

    Orbital Energies [Eh]
    ---------------------

    Doubly Occupied:

       1A    -15.618571     2A    -11.255517     3A    -11.252617
       4A    -11.246161     5A    -11.244328     6A    -11.243136
       7A    -11.242420     8A    -11.240447     9A    -11.240071
      10A    -11.211593    11A    -11.199859    12A     -1.332236
      13A     -1.158367    14A     -1.053282    15A     -1.030904
      16A     -1.017396    17A     -0.973820    18A     -0.840421
      19A     -0.834486    20A     -0.775545    21A     -0.762303
      22A     -0.740025    23A     -0.684183    24A     -0.642561
      25A     -0.632517    26A     -0.601699    27A     -0.594206
      28A     -0.590352    29A     -0.552104    30A     -0.546956
      31A     -0.529741    32A     -0.507872    33A     -0.502111
      34A     -0.495038    35A     -0.363015    36A     -0.343752
      37A     -0.342936    38A     -0.275411

  @DF-RHF Final Energy:  -438.47447461422047

   => Energetics <=

    Nuclear Repulsion Energy =            539.9548215489193126
    One-Electron Energy =               -1663.4226785167484195
    Two-Electron Energy =                 684.9933823536085811
    Total Energy =                       -438.4744746142204121
  Basis Set: (AUG-CC-PVTZ AUX)
    Blend: AUG-CC-PVTZ-RI
    Molecular point group: c1

    Geometry (in Angstrom), charge = 0, multiplicity = 1:

       Center              X                  Y                   Z               Mass
    ------------   -----------------  -----------------  -----------------  -----------------
         N            1.748581768465    -0.853336874524    -0.337752262117    14.003074004430
         C            1.005048168465     0.083058625476     0.021589637883    12.000000000000
         C           -0.453740831535     0.030087625476     0.012777637883    12.000000000000
         C            1.890937168465     1.077356625476     0.427398637883    12.000000000000
         C           -1.199127831535     1.185542625476    -0.275612362117    12.000000000000
         C           -1.139280831535    -1.165556374524     0.288613637883    12.000000000000
         C            3.108832168465    -0.686528374524    -0.282768362117    12.000000000000
         C            3.206385168465     0.593999625476     0.235529637883    12.000000000000
         C           -2.592468831535     1.147711625476    -0.274570362117    12.000000000000
         C           -2.533340831535    -1.205440374524     0.264034637883    12.000000000000
         C           -3.265574831535    -0.049338374524    -0.015087362117    12.000000000000
         H            1.396484168465    -1.810572374524    -0.837368362117     1.007825032230
         H            1.604646168465     2.029044625476     0.857402637883     1.007825032230
         H           -0.674250831535     2.108466625476    -0.512610362117     1.007825032230
         H           -0.577584831535    -2.057607374524     0.561259637883     1.007825032230
         H            3.868661168465    -1.394842374524    -0.583199362117     1.007825032230
         H            4.128609168465     1.112062625476     0.464369637883     1.007825032230
         H           -3.155776831535     2.050913625476    -0.498145362117     1.007825032230
         H           -3.049635831535    -2.137885374524     0.481238637883     1.007825032230
         H           -4.352348831535    -0.079551374524    -0.025517362117     1.007825032230

  Basis Set: AUG-CC-PVTZ
    Blend: AUG-CC-PVTZ
  Basis Set: (AUG-CC-PVTZ AUX)
    Blend: AUG-CC-PVTZ-JKFIT
	 Reference Energy          =    -438.4744746142204690 [Eh]
	 Singles Energy            =      -0.0000000000000000 [Eh]
	 Same-Spin Energy          =      -0.4971593500972963 [Eh]
	 Opposite-Spin Energy      =      -1.5269868613057984 [Eh]
	 Correlation Energy        =      -2.0241462114030946 [Eh]
	 Total Energy              =    -440.4986208256235614 [Eh]

	 ================> DF-SCS-MP2 Energies <==================
	-----------------------------------------------------------
	 SCS Same-Spin Scale       =       0.3333333333333333 [-]
	 SCS Opposite-Spin Scale   =       1.2000000000000000 [-]
	 SCS Same-Spin Energy      =      -0.1657197833657654 [Eh]
	 SCS Opposite-Spin Energy  =      -1.8323842335669580 [Eh]
	 SCS Correlation Energy    =      -1.9981040169327233 [Eh]
	 SCS Total Energy          =    -440.4725786311531692 [Eh]
	-----------------------------------------------------------

  Dipole Moment: [D]
     X:    -0.6433      Y:    -1.5910      Z:    -0.7460     Total:     1.8712

*** Psi4 exiting successfully. Buy a developer a beer!
