                               Psi4 1.3.2 release

  ==> Input File <==

--------------------------------------------------------------------------
#psi4
#
memory 32 gb

molecule  {
0 1
  N        1.7773000    -0.9706020    -0.3863220
  C        1.0080060     0.0962300     0.0271750
  C       -0.4927980     0.0188046     0.0248094
  C        1.8938950     1.0905280     0.4329840
  C       -1.1961700     1.1987140    -0.2700270
  C       -1.1363230    -1.1523850     0.2941990
  C        3.1117900    -0.6733570    -0.2771830
  C        3.2093430     0.6071710     0.2411150
  C       -2.5895110     1.1608830    -0.2689850
  C       -2.5303830    -1.1922690     0.2696200
  C       -3.2626170    -0.0361670    -0.0095020
  H        1.3994420    -1.7974010    -0.8317830
  H        1.6076040     2.0422160     0.8629880
  H       -0.6712930     2.1216380    -0.5070250
  H       -0.5746270    -2.0444360     0.5668450
  H        3.8716190    -1.3816710    -0.5776140
  H        4.1315670     1.1252340     0.4699550
  H       -3.1528190     2.0640850    -0.4925600
  H       -3.0466780    -2.1247140     0.4868240
  H       -4.3493910    -0.0663800    -0.0199320
units angstrom
no_reorient  #important for SAPT in psi4, default
symmetry c1  #important for SAPT in psi4, default
}

set PROPERTIES_ORIGIN ["COM"]
properties('MP2/aug-cc-pvtz', properties = ['dipole'])
--------------------------------------------------------------------------

    Molecular point group: c1
  Charge       = 0
  Multiplicity = 1
  Basis Set: AUG-CC-PVTZ
    Blend: AUG-CC-PVTZ
  Basis Set: (AUG-CC-PVTZ AUX)
    Blend: AUG-CC-PVTZ-JKFIT

    Orbital Energies [Eh]
    ---------------------

    Doubly Occupied:

       1A    -15.607021     2A    -11.263565     3A    -11.254835
       4A    -11.252157     5A    -11.242392     6A    -11.241043
       7A    -11.238316     8A    -11.237916     9A    -11.236696
      10A    -11.212756    11A    -11.211587    12A     -1.292303
      13A     -1.160826    14A     -1.045318    15A     -1.042142
      16A     -1.019409    17A     -0.959234    18A     -0.836066
      19A     -0.833096    20A     -0.787543    21A     -0.763995
      22A     -0.734170    23A     -0.679119    24A     -0.633218
      25A     -0.631939    26A     -0.594466    27A     -0.590516
      28A     -0.579500    29A     -0.567246    30A     -0.548575
      31A     -0.535894    32A     -0.507330    33A     -0.500857
      34A     -0.493842    35A     -0.362857    36A     -0.349349
      37A     -0.342091    38A     -0.275763

  @DF-RHF Final Energy:  -438.50713933165378

   => Energetics <=

    Nuclear Repulsion Energy =            536.8744795059578792
    One-Electron Energy =               -1657.4333447295143742
    Two-Electron Energy =                 682.0517258919027199
    Total Energy =                       -438.5071393316537751
  Basis Set: (AUG-CC-PVTZ AUX)
    Blend: AUG-CC-PVTZ-RI
    Molecular point group: c1

    Geometry (in Angstrom), charge = 0, multiplicity = 1:

       Center              X                  Y                   Z               Mass
    ------------   -----------------  -----------------  -----------------  -----------------
         N            1.775344836416    -0.968956061934    -0.387147703086    14.003074004430
         C            1.006050836416     0.097875938066     0.026349296914    12.000000000000
         C           -0.494753163584     0.020450538066     0.023983696914    12.000000000000
         C            1.891939836416     1.092173938066     0.432158296914    12.000000000000
         C           -1.198125163584     1.200359938066    -0.270852703086    12.000000000000
         C           -1.138278163584    -1.150739061934     0.293373296914    12.000000000000
         C            3.109834836416    -0.671711061934    -0.278008703086    12.000000000000
         C            3.207387836416     0.608816938066     0.240289296914    12.000000000000
         C           -2.591466163584     1.162528938066    -0.269810703086    12.000000000000
         C           -2.532338163584    -1.190623061934     0.268794296914    12.000000000000
         C           -3.264572163584    -0.034521061934    -0.010327703086    12.000000000000
         H            1.397486836416    -1.795755061934    -0.832608703086     1.007825032230
         H            1.605648836416     2.043861938066     0.862162296914     1.007825032230
         H           -0.673248163584     2.123283938066    -0.507850703086     1.007825032230
         H           -0.576582163584    -2.042790061934     0.566019296914     1.007825032230
         H            3.869663836416    -1.380025061934    -0.578439703086     1.007825032230
         H            4.129611836416     1.126879938066     0.469129296914     1.007825032230
         H           -3.154774163584     2.065730938066    -0.493385703086     1.007825032230
         H           -3.048633163584    -2.123068061934     0.485998296914     1.007825032230
         H           -4.351346163584    -0.064734061934    -0.020757703086     1.007825032230

  Basis Set: AUG-CC-PVTZ
    Blend: AUG-CC-PVTZ
  Basis Set: (AUG-CC-PVTZ AUX)
    Blend: AUG-CC-PVTZ-JKFIT
	 Reference Energy          =    -438.5071393316537751 [Eh]
	 Singles Energy            =      -0.0000000000000000 [Eh]
	 Same-Spin Energy          =      -0.4947139362759427 [Eh]
	 Opposite-Spin Energy      =      -1.5246007671902535 [Eh]
	 Correlation Energy        =      -2.0193147034661960 [Eh]
	 Total Energy              =    -440.5264540351199685 [Eh]

	 ================> DF-SCS-MP2 Energies <==================
	-----------------------------------------------------------
	 SCS Same-Spin Scale       =       0.3333333333333333 [-]
	 SCS Opposite-Spin Scale   =       1.2000000000000000 [-]
	 SCS Same-Spin Energy      =      -0.1649046454253142 [Eh]
	 SCS Opposite-Spin Energy  =      -1.8295209206283041 [Eh]
	 SCS Correlation Energy    =      -1.9944255660536183 [Eh]
	 SCS Total Energy          =    -440.5015648977073965 [Eh]
	-----------------------------------------------------------

  Dipole Moment: [D]
     X:    -0.5921      Y:    -1.3224      Z:    -0.6474     Total:     1.5870

*** Psi4 exiting successfully. Buy a developer a beer!
