                               Psi4 1.3.2 release

  ==> Input File <==

--------------------------------------------------------------------------
#psi4
#
memory 32 gb

molecule  {
0 1
  N        1.7773000    -0.9706020    -0.3863220
  C        1.0080060     0.0962300     0.0271750
  C       -0.4482572     0.1843142     0.0770501
  C        1.8938950     1.0905280     0.4329840
  C       -1.1961700     1.1987140    -0.2700270
  C       -1.1363230    -1.1523850     0.2941990
  C        3.1117900    -0.6733570    -0.2771830
  C        3.2093430     0.6071710     0.2411150
  C       -2.5895110     1.1608830    -0.2689850
  C       -2.5303830    -1.1922690     0.2696200
  C       -3.2626170    -0.0361670    -0.0095020
  H        1.3994420    -1.7974010    -0.8317830
  H        1.6076040     2.0422160     0.8629880
  H       -0.6712930     2.1216380    -0.5070250
  H       -0.5746270    -2.0444360     0.5668450
  H        3.8716190    -1.3816710    -0.5776140
  H        4.1315670     1.1252340     0.4699550
  H       -3.1528190     2.0640850    -0.4925600
  H       -3.0466780    -2.1247140     0.4868240
  H       -4.3493910    -0.0663800    -0.0199320
units angstrom
no_reorient  #important for SAPT in psi4, default
symmetry c1  #important for SAPT in psi4, default
}

set PROPERTIES_ORIGIN ["COM"]
properties('MP2/aug-cc-pvtz', properties = ['dipole'])
--------------------------------------------------------------------------

    Molecular point group: c1
  Charge       = 0
  Multiplicity = 1
  Basis Set: AUG-CC-PVTZ
    Blend: AUG-CC-PVTZ
  Basis Set: (AUG-CC-PVTZ AUX)
    Blend: AUG-CC-PVTZ-JKFIT

    Orbital Energies [Eh]
    ---------------------

    Doubly Occupied:

       1A    -15.611331     2A    -11.262221     3A    -11.257319
       4A    -11.252923     5A    -11.249446     6A    -11.241504
       7A    -11.241158     8A    -11.238212     9A    -11.226800
      10A    -11.212904    11A    -11.210323    12A     -1.294356
      13A     -1.157568    14A     -1.055159    15A     -1.040328
      16A     -1.014666    17A     -0.959502    18A     -0.842668
      19A     -0.826268    20A     -0.789665    21A     -0.764034
      22A     -0.735512    23A     -0.682189    24A     -0.634019
      25A     -0.626094    26A     -0.596337    27A     -0.592151
      28A     -0.580913    29A     -0.569325    30A     -0.548117
      31A     -0.536433    32A     -0.514042    33A     -0.502495
      34A     -0.472199    35A     -0.371149    36A     -0.350180
      37A     -0.336207    38A     -0.273387

  @DF-RHF Final Energy:  -438.48748279334228

   => Energetics <=

    Nuclear Repulsion Energy =            536.6773664375696171
    One-Electron Energy =               -1656.9914953214490652
    Two-Electron Energy =                 681.8266460905372242
    Total Energy =                       -438.4874827933422239
  Basis Set: (AUG-CC-PVTZ AUX)
    Blend: AUG-CC-PVTZ-RI
    Molecular point group: c1

    Geometry (in Angstrom), charge = 0, multiplicity = 1:

       Center              X                  Y                   Z               Mass
    ------------   -----------------  -----------------  -----------------  -----------------
         N            1.771609067021    -0.982837844443    -0.391529286001    14.003074004430
         C            1.002315067021     0.083994155557     0.021967713999    12.000000000000
         C           -0.453948132979     0.172078355557     0.071842813999    12.000000000000
         C            1.888204067021     1.078292155557     0.427776713999    12.000000000000
         C           -1.201860932979     1.186478155557    -0.275234286001    12.000000000000
         C           -1.142013932979    -1.164620844443     0.288991713999    12.000000000000
         C            3.106099067021    -0.685592844443    -0.282390286001    12.000000000000
         C            3.203652067021     0.594935155557     0.235907713999    12.000000000000
         C           -2.595201932979     1.148647155557    -0.274192286001    12.000000000000
         C           -2.536073932979    -1.204504844443     0.264412713999    12.000000000000
         C           -3.268307932979    -0.048402844443    -0.014709286001    12.000000000000
         H            1.393751067021    -1.809636844443    -0.836990286001     1.007825032230
         H            1.601913067021     2.029980155557     0.857780713999     1.007825032230
         H           -0.676983932979     2.109402155557    -0.512232286001     1.007825032230
         H           -0.580317932979    -2.056671844443     0.561637713999     1.007825032230
         H            3.865928067021    -1.393906844443    -0.582821286001     1.007825032230
         H            4.125876067021     1.112998155557     0.464747713999     1.007825032230
         H           -3.158509932979     2.051849155557    -0.497767286001     1.007825032230
         H           -3.052368932979    -2.136949844443     0.481616713999     1.007825032230
         H           -4.355081932979    -0.078615844443    -0.025139286001     1.007825032230

  Basis Set: AUG-CC-PVTZ
    Blend: AUG-CC-PVTZ
  Basis Set: (AUG-CC-PVTZ AUX)
    Blend: AUG-CC-PVTZ-JKFIT
	 Reference Energy          =    -438.4874827933422807 [Eh]
	 Singles Energy            =      -0.0000000000000000 [Eh]
	 Same-Spin Energy          =      -0.4950125683352894 [Eh]
	 Opposite-Spin Energy      =      -1.5263138937113461 [Eh]
	 Correlation Energy        =      -2.0213264620466354 [Eh]
	 Total Energy              =    -440.5088092553889396 [Eh]

	 ================> DF-SCS-MP2 Energies <==================
	-----------------------------------------------------------
	 SCS Same-Spin Scale       =       0.3333333333333333 [-]
	 SCS Opposite-Spin Scale   =       1.2000000000000000 [-]
	 SCS Same-Spin Energy      =      -0.1650041894450965 [Eh]
	 SCS Opposite-Spin Energy  =      -1.8315766724536151 [Eh]
	 SCS Correlation Energy    =      -1.9965808618987115 [Eh]
	 SCS Total Energy          =    -440.4840636552410160 [Eh]
	-----------------------------------------------------------

  Dipole Moment: [D]
     X:    -0.4652      Y:    -1.3447      Z:    -0.6688     Total:     1.5722

*** Psi4 exiting successfully. Buy a developer a beer!
