                               Psi4 1.3.2 release

  ==> Input File <==

--------------------------------------------------------------------------
#psi4
#
memory 32 gb

molecule  {
0 1
  N        1.7773000    -0.9706020    -0.3863220
  C        1.0460248     0.0681428     0.0159068
  C       -0.4507830     0.0432590     0.0183630
  C        1.8938950     1.0905280     0.4329840
  C       -1.1961700     1.1987140    -0.2700270
  C       -1.1363230    -1.1523850     0.2941990
  C        3.1117900    -0.6733570    -0.2771830
  C        3.2093430     0.6071710     0.2411150
  C       -2.5895110     1.1608830    -0.2689850
  C       -2.5303830    -1.1922690     0.2696200
  C       -3.2626170    -0.0361670    -0.0095020
  H        1.3994420    -1.7974010    -0.8317830
  H        1.6076040     2.0422160     0.8629880
  H       -0.6712930     2.1216380    -0.5070250
  H       -0.5746270    -2.0444360     0.5668450
  H        3.8716190    -1.3816710    -0.5776140
  H        4.1315670     1.1252340     0.4699550
  H       -3.1528190     2.0640850    -0.4925600
  H       -3.0466780    -2.1247140     0.4868240
  H       -4.3493910    -0.0663800    -0.0199320
units angstrom
no_reorient  #important for SAPT in psi4, default
symmetry c1  #important for SAPT in psi4, default
}

set PROPERTIES_ORIGIN ["COM"]
properties('MP2/aug-cc-pvtz', properties = ['dipole'])
--------------------------------------------------------------------------

    Molecular point group: c1
  Charge       = 0
  Multiplicity = 1
  Basis Set: AUG-CC-PVTZ
    Blend: AUG-CC-PVTZ
  Basis Set: (AUG-CC-PVTZ AUX)
    Blend: AUG-CC-PVTZ-JKFIT

    Orbital Energies [Eh]
    ---------------------

    Doubly Occupied:

       1A    -15.610670     2A    -11.261910     3A    -11.255332
       4A    -11.252571     5A    -11.241951     6A    -11.240935
       7A    -11.240350     8A    -11.238259     9A    -11.237861
      10A    -11.213896    11A    -11.209470    12A     -1.308621
      13A     -1.155068    14A     -1.047629    15A     -1.042529
      16A     -1.016858    17A     -0.960513    18A     -0.833569
      19A     -0.831735    20A     -0.793673    21A     -0.770283
      22A     -0.733564    23A     -0.679591    24A     -0.632395
      25A     -0.628952    26A     -0.599460    27A     -0.590371
      28A     -0.584250    29A     -0.572616    30A     -0.550556
      31A     -0.534433    32A     -0.504904    33A     -0.497811
      34A     -0.492408    35A     -0.359765    36A     -0.351993
      37A     -0.341327    38A     -0.274819

  @DF-RHF Final Energy:  -438.50779058842033

   => Energetics <=

    Nuclear Repulsion Energy =            537.0226849129403490
    One-Electron Energy =               -1657.6751615572866285
    Two-Electron Energy =                 682.1446860559259449
    Total Energy =                       -438.5077905884203346
  Basis Set: (AUG-CC-PVTZ AUX)
    Blend: AUG-CC-PVTZ-RI
    Molecular point group: c1

    Geometry (in Angstrom), charge = 0, multiplicity = 1:

       Center              X                  Y                   Z               Mass
    ------------   -----------------  -----------------  -----------------  -----------------
         N            1.768632163526    -0.968651368191    -0.385661926887    14.003074004430
         C            1.037356963526     0.070093431809     0.016566873113    12.000000000000
         C           -0.459450836474     0.045209631809     0.019023073113    12.000000000000
         C            1.885227163526     1.092478631809     0.433644073113    12.000000000000
         C           -1.204837836474     1.200664631809    -0.269366926887    12.000000000000
         C           -1.144990836474    -1.150434368191     0.294859073113    12.000000000000
         C            3.103122163526    -0.671406368191    -0.276522926887    12.000000000000
         C            3.200675163526     0.609121631809     0.241775073113    12.000000000000
         C           -2.598178836474     1.162833631809    -0.268324926887    12.000000000000
         C           -2.539050836474    -1.190318368191     0.270280073113    12.000000000000
         C           -3.271284836474    -0.034216368191    -0.008841926887    12.000000000000
         H            1.390774163526    -1.795450368191    -0.831122926887     1.007825032230
         H            1.598936163526     2.044166631809     0.863648073113     1.007825032230
         H           -0.679960836474     2.123588631809    -0.506364926887     1.007825032230
         H           -0.583294836474    -2.042485368191     0.567505073113     1.007825032230
         H            3.862951163526    -1.379720368191    -0.576953926887     1.007825032230
         H            4.122899163526     1.127184631809     0.470615073113     1.007825032230
         H           -3.161486836474     2.066035631809    -0.491899926887     1.007825032230
         H           -3.055345836474    -2.122763368191     0.487484073113     1.007825032230
         H           -4.358058836474    -0.064429368191    -0.019271926887     1.007825032230

  Basis Set: AUG-CC-PVTZ
    Blend: AUG-CC-PVTZ
  Basis Set: (AUG-CC-PVTZ AUX)
    Blend: AUG-CC-PVTZ-JKFIT
	 Reference Energy          =    -438.5077905884203346 [Eh]
	 Singles Energy            =      -0.0000000000000000 [Eh]
	 Same-Spin Energy          =      -0.4947812762677418 [Eh]
	 Opposite-Spin Energy      =      -1.5241830208564151 [Eh]
	 Correlation Energy        =      -2.0189642971241568 [Eh]
	 Total Energy              =    -440.5267548855445057 [Eh]

	 ================> DF-SCS-MP2 Energies <==================
	-----------------------------------------------------------
	 SCS Same-Spin Scale       =       0.3333333333333333 [-]
	 SCS Opposite-Spin Scale   =       1.2000000000000000 [-]
	 SCS Same-Spin Energy      =      -0.1649270920892473 [Eh]
	 SCS Opposite-Spin Energy  =      -1.8290196250276980 [Eh]
	 SCS Correlation Energy    =      -1.9939467171169452 [Eh]
	 SCS Total Energy          =    -440.5017373055372900 [Eh]
	-----------------------------------------------------------

  Dipole Moment: [D]
     X:    -0.4813      Y:    -1.3608      Z:    -0.6704     Total:     1.5915

*** Psi4 exiting successfully. Buy a developer a beer!
