                               Psi4 1.4a3.dev225

  ==> Input File <==

--------------------------------------------------------------------------
#psi4
#
memory 32 gb

molecule  {
0 1
  N        1.7773000    -0.9706020    -0.3863220
  C        1.0080060     0.0962300     0.0271750
  C       -0.4507830     0.0432590     0.0183630
  C        1.8938950     1.0905280     0.4329840
  C       -1.1961700     1.1987140    -0.2700270
  C       -1.1363230    -1.1523850     0.2941990
  C        3.1117900    -0.6733570    -0.2771830
  C        3.2093430     0.6071710     0.2411150
  C       -2.5895110     1.1608830    -0.2689850
  C       -2.5303830    -1.1922690     0.2696200
  C       -3.2626170    -0.0361670    -0.0095020
  H        1.3994420    -1.7974010    -0.8317830
  H        1.6076040     2.0422160     0.8629880
  H       -0.6712930     2.1216380    -0.5070250
  H       -0.5746270    -2.0444360     0.5668450
  H        3.9067525    -1.4144225    -0.5915055
  H        4.1315670     1.1252340     0.4699550
  H       -3.1528190     2.0640850    -0.4925600
  H       -3.0466780    -2.1247140     0.4868240
  H       -4.3493910    -0.0663800    -0.0199320
units angstrom
no_reorient  #important for SAPT in psi4, default
symmetry c1  #important for SAPT in psi4, default
}

set PROPERTIES_ORIGIN ["COM"]
properties('MP2/aug-cc-pvtz', properties = ['dipole'])
--------------------------------------------------------------------------

    Molecular point group: c1
  Charge       = 0
  Multiplicity = 1
  Basis Set: AUG-CC-PVTZ
    Blend: AUG-CC-PVTZ
  Basis Set: (AUG-CC-PVTZ AUX)
    Blend: AUG-CC-PVTZ-JKFIT

    Orbital Energies [Eh]
    ---------------------

    Doubly Occupied:

       1A    -15.608682     2A    -11.262279     3A    -11.262185
       4A    -11.253330     5A    -11.242067     6A    -11.240777
       7A    -11.240534     8A    -11.237996     9A    -11.237722
      10A    -11.214250    11A    -11.213131    12A     -1.294382
      13A     -1.156204    14A     -1.048880    15A     -1.043024
      16A     -1.016848    17A     -0.957588    18A     -0.836786
      19A     -0.832225    20A     -0.788601    21A     -0.763667
      22A     -0.732361    23A     -0.677967    24A     -0.631209
      25A     -0.629776    26A     -0.593769    27A     -0.588971
      28A     -0.580050    29A     -0.569460    30A     -0.549719
      31A     -0.534299    32A     -0.504546    33A     -0.500875
      34A     -0.494402    35A     -0.363549    36A     -0.350495
      37A     -0.341394    38A     -0.273485

  @DF-RHF Final Energy:  -438.50633677548444

   => Energetics <=

    Nuclear Repulsion Energy =            536.5786704217485976
    One-Electron Energy =               -1656.8350454860178615
    Two-Electron Energy =                 681.7500382887849355
    Total Energy =                       -438.5063367754844421
  Basis Set: (AUG-CC-PVTZ AUX)
    Blend: AUG-CC-PVTZ-RI
    Molecular point group: c1

    Geometry (in Angstrom), charge = 0, multiplicity = 1:

       Center              X                  Y                   Z               Mass
    ------------   -----------------  -----------------  -----------------  -----------------
         N            1.771573429249    -0.970776420139    -0.386509171130    14.003074004430
         C            1.002279429249     0.096055579861     0.026987828870    12.000000000000
         C           -0.456509570751     0.043084579861     0.018175828870    12.000000000000
         C            1.888168429249     1.090353579861     0.432796828870    12.000000000000
         C           -1.201896570751     1.198539579861    -0.270214171130    12.000000000000
         C           -1.142049570751    -1.152559420139     0.294011828870    12.000000000000
         C            3.106063429249    -0.673531420139    -0.277370171130    12.000000000000
         C            3.203616429249     0.606996579861     0.240927828870    12.000000000000
         C           -2.595237570751     1.160708579861    -0.269172171130    12.000000000000
         C           -2.536109570751    -1.192443420139     0.269432828870    12.000000000000
         C           -3.268343570751    -0.036341420139    -0.009689171130    12.000000000000
         H            1.393715429249    -1.797575420139    -0.831970171130     1.007825032230
         H            1.601877429249     2.042041579861     0.862800828870     1.007825032230
         H           -0.677019570751     2.121463579861    -0.507212171130     1.007825032230
         H           -0.580353570751    -2.044610420139     0.566657828870     1.007825032230
         H            3.901025929249    -1.414596920139    -0.591692671130     1.007825032230
         H            4.125840429249     1.125059579861     0.469767828870     1.007825032230
         H           -3.158545570751     2.063910579861    -0.492747171130     1.007825032230
         H           -3.052404570751    -2.124888420139     0.486636828870     1.007825032230
         H           -4.355117570751    -0.066554420139    -0.020119171130     1.007825032230

  Basis Set: AUG-CC-PVTZ
    Blend: AUG-CC-PVTZ
  Basis Set: (AUG-CC-PVTZ AUX)
    Blend: AUG-CC-PVTZ-JKFIT
	 Reference Energy          =    -438.5063367754844421 [Eh]
	 Singles Energy            =      -0.0000000000000000 [Eh]
	 Same-Spin Energy          =      -0.4953649073875503 [Eh]
	 Opposite-Spin Energy      =      -1.5257729368641586 [Eh]
	 Correlation Energy        =      -2.0211378442517089 [Eh]
	 Total Energy              =    -440.5274746197361537 [Eh]

	 ================> DF-SCS-MP2 Energies <==================
	-----------------------------------------------------------
	 SCS Same-Spin Scale       =       0.3333333333333333 [-]
	 SCS Opposite-Spin Scale   =       1.2000000000000000 [-]
	 SCS Same-Spin Energy      =      -0.1651216357958501 [Eh]
	 SCS Opposite-Spin Energy  =      -1.8309275242369902 [Eh]
	 SCS Correlation Energy    =      -1.9960491600328403 [Eh]
	 SCS Total Energy          =    -440.5023859355172817 [Eh]
	-----------------------------------------------------------

  Dipole Moment: [D]
     X:    -0.4565      Y:    -1.3153      Z:    -0.6459     Total:     1.5348

*** Psi4 exiting successfully. Buy a developer a beer!
