                               Psi4 1.3.2 release

  ==> Input File <==

--------------------------------------------------------------------------
#psi4
#
memory 32 gb

molecule  {
0 1
  N        1.7773000    -0.9706020    -0.3863220
  C        1.0080060     0.0962300     0.0271750
  C       -0.4507830     0.0432590     0.0183630
  C        1.8938950     1.0905280     0.4329840
  C       -1.1961700     1.1987140    -0.2700270
  C       -1.1363230    -1.1523850     0.2941990
  C        3.1117900    -0.6733570    -0.2771830
  C        3.2574893     0.6035198     0.2388197
  C       -2.5895110     1.1608830    -0.2689850
  C       -2.5303830    -1.1922690     0.2696200
  C       -3.2626170    -0.0361670    -0.0095020
  H        1.3994420    -1.7974010    -0.8317830
  H        1.6076040     2.0422160     0.8629880
  H       -0.6712930     2.1216380    -0.5070250
  H       -0.5746270    -2.0444360     0.5668450
  H        3.8716190    -1.3816710    -0.5776140
  H        4.1315670     1.1252340     0.4699550
  H       -3.1528190     2.0640850    -0.4925600
  H       -3.0466780    -2.1247140     0.4868240
  H       -4.3493910    -0.0663800    -0.0199320
units angstrom
no_reorient  #important for SAPT in psi4, default
symmetry c1  #important for SAPT in psi4, default
}

set PROPERTIES_ORIGIN ["COM"]
properties('MP2/aug-cc-pvtz', properties = ['dipole'])
--------------------------------------------------------------------------

    Molecular point group: c1
  Charge       = 0
  Multiplicity = 1
  Basis Set: AUG-CC-PVTZ
    Blend: AUG-CC-PVTZ
  Basis Set: (AUG-CC-PVTZ AUX)
    Blend: AUG-CC-PVTZ-JKFIT

    Orbital Energies [Eh]
    ---------------------

    Doubly Occupied:

       1A    -15.607255     2A    -11.262985     3A    -11.259209
       4A    -11.253573     5A    -11.242287     6A    -11.240962
       7A    -11.240806     8A    -11.238270     9A    -11.237982
      10A    -11.216991    11A    -11.214508    12A     -1.292106
      13A     -1.156408    14A     -1.048366    15A     -1.037358
      16A     -1.016752    17A     -0.960154    18A     -0.837349
      19A     -0.832664    20A     -0.789849    21A     -0.766765
      22A     -0.734949    23A     -0.679889    24A     -0.633463
      25A     -0.629729    26A     -0.598198    27A     -0.590051
      28A     -0.582415    29A     -0.568310    30A     -0.558262
      31A     -0.525221    32A     -0.504770    33A     -0.500236
      34A     -0.494498    35A     -0.363951    36A     -0.344993
      37A     -0.341504    38A     -0.275941

  @DF-RHF Final Energy:  -438.50667901479147

   => Energetics <=

    Nuclear Repulsion Energy =            535.9600149149737263
    One-Electron Energy =               -1655.5754262984630714
    Two-Electron Energy =                 681.1087323686979289
    Total Energy =                       -438.5066790147914162
  Basis Set: (AUG-CC-PVTZ AUX)
    Blend: AUG-CC-PVTZ-RI
    Molecular point group: c1

    Geometry (in Angstrom), charge = 0, multiplicity = 1:

       Center              X                  Y                   Z               Mass
    ------------   -----------------  -----------------  -----------------  -----------------
         N            1.767782739974    -0.970700888203    -0.386414510703    14.003074004430
         C            0.998488739974     0.096131111797     0.027082489297    12.000000000000
         C           -0.460300260026     0.043160111797     0.018270489297    12.000000000000
         C            1.884377739974     1.090429111797     0.432891489297    12.000000000000
         C           -1.205687260026     1.198615111797    -0.270119510703    12.000000000000
         C           -1.145840260026    -1.152483888203     0.294106489297    12.000000000000
         C            3.102272739974    -0.673455888203    -0.277275510703    12.000000000000
         C            3.247972039974     0.603420911797     0.238727189297    12.000000000000
         C           -2.599028260026     1.160784111797    -0.269077510703    12.000000000000
         C           -2.539900260026    -1.192367888203     0.269527489297    12.000000000000
         C           -3.272134260026    -0.036265888203    -0.009594510703    12.000000000000
         H            1.389924739974    -1.797499888203    -0.831875510703     1.007825032230
         H            1.598086739974     2.042117111797     0.862895489297     1.007825032230
         H           -0.680810260026     2.121539111797    -0.507117510703     1.007825032230
         H           -0.584144260026    -2.044534888203     0.566752489297     1.007825032230
         H            3.862101739974    -1.381769888203    -0.577706510703     1.007825032230
         H            4.122049739974     1.125135111797     0.469862489297     1.007825032230
         H           -3.162336260026     2.063986111797    -0.492652510703     1.007825032230
         H           -3.056195260026    -2.124812888203     0.486731489297     1.007825032230
         H           -4.358908260026    -0.066478888203    -0.020024510703     1.007825032230

  Basis Set: AUG-CC-PVTZ
    Blend: AUG-CC-PVTZ
  Basis Set: (AUG-CC-PVTZ AUX)
    Blend: AUG-CC-PVTZ-JKFIT
	 Reference Energy          =    -438.5066790147914730 [Eh]
	 Singles Energy            =      -0.0000000000000000 [Eh]
	 Same-Spin Energy          =      -0.4946541558242285 [Eh]
	 Opposite-Spin Energy      =      -1.5251088836408988 [Eh]
	 Correlation Energy        =      -2.0197630394651274 [Eh]
	 Total Energy              =    -440.5264420542566199 [Eh]

	 ================> DF-SCS-MP2 Energies <==================
	-----------------------------------------------------------
	 SCS Same-Spin Scale       =       0.3333333333333333 [-]
	 SCS Opposite-Spin Scale   =       1.2000000000000000 [-]
	 SCS Same-Spin Energy      =      -0.1648847186080762 [Eh]
	 SCS Opposite-Spin Energy  =      -1.8301306603690786 [Eh]
	 SCS Correlation Energy    =      -1.9950153789771548 [Eh]
	 SCS Total Energy          =    -440.5016943937686165 [Eh]
	-----------------------------------------------------------

  Dipole Moment: [D]
     X:    -0.4912      Y:    -1.3189      Z:    -0.6454     Total:     1.5483

*** Psi4 exiting successfully. Buy a developer a beer!
