                               Psi4 1.4a2.dev612

  ==> Input File <==

--------------------------------------------------------------------------
#psi4
#
memory 32 gb

molecule  {
0 1
  N        1.0403590     1.7585850     0.4480670
  N       -1.4127300     0.3491150    -0.9675270
  C        1.4305320     0.4228220     0.1513070
  C        0.5527320    -0.6722560    -0.0106210
  C       -0.9186100    -0.5202420    -0.0565280
  C        2.8255924     0.1315969     0.3537008
  C        1.0833880    -1.9615060    -0.1891330
  C       -0.0603440     1.9659620     1.3769540
  C        0.9893550     2.6529850    -0.7051320
  C        3.3262790    -1.0852460    -0.1634600
  C        2.4571340    -2.1737070    -0.2736000
  C       -1.7443650    -1.2899030     0.7755260
  C       -3.1277320    -1.1648060     0.6664840
  C       -2.7501460     0.4600780    -1.0541460
  C       -3.6446450    -0.2696140    -0.2693330
  H        3.4771330     1.0370890     0.2130050
  H        0.3959040    -2.7961940    -0.3173570
  H       -1.0565290     1.9282880     0.9155270
  H        0.0644020     2.9550460     1.8334400
  H       -0.0079680     1.2163630     2.1705520
  H        0.9831900     3.6889080    -0.3483400
  H        0.1002970     2.4765200    -1.3270240
  H        1.8830790     2.5039500    -1.3156910
  H        4.4021620    -1.2332020    -0.2239060
  H        2.8456380    -3.1770500    -0.4305570
  H       -1.2975550    -1.9637590     1.5022950
  H       -3.7883330    -1.7471360     1.3046070
  H       -3.1157890     1.1676090    -1.7971140
  H       -4.7159820    -0.1358610    -0.3911380
units angstrom
no_reorient  #important for SAPT in psi4, default
symmetry c1  #important for SAPT in psi4, default
}

set PROPERTIES_ORIGIN ["COM"]
properties('MP2/aug-cc-pvtz', properties = ['dipole'])
--------------------------------------------------------------------------

    Molecular point group: c1
  Charge       = 0
  Multiplicity = 1
  Basis Set: AUG-CC-PVTZ
    Blend: AUG-CC-PVTZ
  Basis Set: (AUG-CC-PVTZ AUX)
    Blend: AUG-CC-PVTZ-JKFIT

    Orbital Energies [Eh]
    ---------------------

    Doubly Occupied:

       1A    -15.566624     2A    -15.544209     3A    -11.287391
       4A    -11.280031     5A    -11.274204     6A    -11.264567
       7A    -11.244353     8A    -11.243723     9A    -11.240979
      10A    -11.239808    11A    -11.238983    12A    -11.235879
      13A    -11.234369    14A    -11.231908    15A    -11.230538
      16A     -1.261394    17A     -1.229204    18A     -1.137262
      19A     -1.089889    20A     -1.060556    21A     -1.002087
      22A     -0.993018    23A     -0.944090    24A     -0.883320
      25A     -0.863207    26A     -0.852776    27A     -0.808451
      28A     -0.777339    29A     -0.716684    30A     -0.680505
      31A     -0.668181    32A     -0.658668    33A     -0.639328
      34A     -0.630617    35A     -0.608924    36A     -0.599666
      37A     -0.585559    38A     -0.582621    39A     -0.573293
      40A     -0.551706    41A     -0.541858    42A     -0.525541
      43A     -0.523534    44A     -0.504342    45A     -0.500904
      46A     -0.485269    47A     -0.480033    48A     -0.420432
      49A     -0.386979    50A     -0.363609    51A     -0.357194
      52A     -0.321007    53A     -0.308897

  @DF-RHF Final Energy:  -609.48538223004459

   => Energetics <=

    Nuclear Repulsion Energy =            949.2352686019793282
    One-Electron Energy =               -2710.4902774300162491
    Two-Electron Energy =                1151.7696265979921009
    Total Energy =                       -609.4853822300447064
  Basis Set: (AUG-CC-PVTZ AUX)
    Blend: AUG-CC-PVTZ-RI
    Molecular point group: c1

    Geometry (in Angstrom), charge = 0, multiplicity = 1:

       Center              X                  Y                   Z               Mass
    ------------   -----------------  -----------------  -----------------  -----------------
         N            1.040426220121     1.791721467796     0.439221253355    14.003074004430
         N           -1.412662779879     0.382251467796    -0.976372746645    14.003074004430
         C            1.430599220121     0.455958467796     0.142461253355    12.000000000000
         C            0.552799220121    -0.639119532204    -0.019466746645    12.000000000000
         C           -0.918542779879    -0.487105532204    -0.065373746645    12.000000000000
         C            2.825659620121     0.164733367796     0.344855053355    12.000000000000
         C            1.083455220121    -1.928369532204    -0.197978746645    12.000000000000
         C           -0.060276779879     1.999098467796     1.368108253355    12.000000000000
         C            0.989422220121     2.686121467796    -0.713977746645    12.000000000000
         C            3.326346220121    -1.052109532204    -0.172305746645    12.000000000000
         C            2.457201220121    -2.140570532204    -0.282445746645    12.000000000000
         C           -1.744297779879    -1.256766532204     0.766680253355    12.000000000000
         C           -3.127664779879    -1.131669532204     0.657638253355    12.000000000000
         C           -2.750078779879     0.493214467796    -1.062991746645    12.000000000000
         C           -3.644577779879    -0.236477532204    -0.278178746645    12.000000000000
         H            3.477200220121     1.070225467796     0.204159253355     1.007825032230
         H            0.395971220121    -2.763057532204    -0.326202746645     1.007825032230
         H           -1.056461779879     1.961424467796     0.906681253355     1.007825032230
         H            0.064469220121     2.988182467796     1.824594253355     1.007825032230
         H           -0.007900779879     1.249499467796     2.161706253355     1.007825032230
         H            0.983257220121     3.722044467796    -0.357185746645     1.007825032230
         H            0.100364220121     2.509656467796    -1.335869746645     1.007825032230
         H            1.883146220121     2.537086467796    -1.324536746645     1.007825032230
         H            4.402229220121    -1.200065532204    -0.232751746645     1.007825032230
         H            2.845705220121    -3.143913532204    -0.439402746645     1.007825032230
         H           -1.297487779879    -1.930622532204     1.493449253355     1.007825032230
         H           -3.788265779879    -1.713999532204     1.295761253355     1.007825032230
         H           -3.115721779879     1.200745467796    -1.805959746645     1.007825032230
         H           -4.715914779879    -0.102724532204    -0.399983746645     1.007825032230

  Basis Set: AUG-CC-PVTZ
    Blend: AUG-CC-PVTZ
  Basis Set: (AUG-CC-PVTZ AUX)
    Blend: AUG-CC-PVTZ-JKFIT
	 Reference Energy          =    -609.4853822300445927 [Eh]
	 Singles Energy            =      -0.0000000000000000 [Eh]
	 Same-Spin Energy          =      -0.6843231262472373 [Eh]
	 Opposite-Spin Energy      =      -2.1389881658935272 [Eh]
	 Correlation Energy        =      -2.8233112921407644 [Eh]
	 Total Energy              =    -612.3086935221853082 [Eh]

	 ================> DF-SCS-MP2 Energies <==================
	-----------------------------------------------------------
	 SCS Same-Spin Scale       =       0.3333333333333333 [-]
	 SCS Opposite-Spin Scale   =       1.2000000000000000 [-]
	 SCS Same-Spin Energy      =      -0.2281077087490791 [Eh]
	 SCS Opposite-Spin Energy  =      -2.5667857990722327 [Eh]
	 SCS Correlation Energy    =      -2.7948935078213117 [Eh]
	 SCS Total Energy          =    -612.2802757378658498 [Eh]
	-----------------------------------------------------------

  Dipole Moment: [D]
     X:    -2.0725      Y:    -0.9411      Z:     0.6548     Total:     2.3685

*** Psi4 exiting successfully. Buy a developer a beer!
