                               Psi4 1.4a2.dev612

  ==> Input File <==

--------------------------------------------------------------------------
#psi4
#
memory 32 gb

molecule  {
0 1
  N        1.0403590     1.7585850     0.4480670
  N       -1.4127300     0.3491150    -0.9675270
  C        1.4305320     0.4228220     0.1513070
  C        0.5527320    -0.6722560    -0.0106210
  C       -0.9186100    -0.5202420    -0.0565280
  C        2.8234237     0.1412791     0.3046952
  C        1.0833880    -1.9615060    -0.1891330
  C       -0.0603440     1.9659620     1.3769540
  C        0.9893550     2.6529850    -0.7051320
  C        3.3262790    -1.0852460    -0.1634600
  C        2.4571340    -2.1737070    -0.2736000
  C       -1.7443650    -1.2899030     0.7755260
  C       -3.1277320    -1.1648060     0.6664840
  C       -2.7501460     0.4600780    -1.0541460
  C       -3.6446450    -0.2696140    -0.2693330
  H        3.4771330     1.0370890     0.2130050
  H        0.3959040    -2.7961940    -0.3173570
  H       -1.0565290     1.9282880     0.9155270
  H        0.0644020     2.9550460     1.8334400
  H       -0.0079680     1.2163630     2.1705520
  H        0.9831900     3.6889080    -0.3483400
  H        0.1002970     2.4765200    -1.3270240
  H        1.8830790     2.5039500    -1.3156910
  H        4.4021620    -1.2332020    -0.2239060
  H        2.8456380    -3.1770500    -0.4305570
  H       -1.2975550    -1.9637590     1.5022950
  H       -3.7883330    -1.7471360     1.3046070
  H       -3.1157890     1.1676090    -1.7971140
  H       -4.7159820    -0.1358610    -0.3911380
units angstrom
no_reorient  #important for SAPT in psi4, default
symmetry c1  #important for SAPT in psi4, default
}

set PROPERTIES_ORIGIN ["COM"]
properties('MP2/aug-cc-pvtz', properties = ['dipole'])
--------------------------------------------------------------------------

    Molecular point group: c1
  Charge       = 0
  Multiplicity = 1
  Basis Set: AUG-CC-PVTZ
    Blend: AUG-CC-PVTZ
  Basis Set: (AUG-CC-PVTZ AUX)
    Blend: AUG-CC-PVTZ-JKFIT

    Orbital Energies [Eh]
    ---------------------

    Doubly Occupied:

       1A    -15.566576     2A    -15.544191     3A    -11.287238
       4A    -11.279922     5A    -11.272200     6A    -11.264426
       7A    -11.244302     8A    -11.243601     9A    -11.240497
      10A    -11.238969    11A    -11.237197    12A    -11.235833
      13A    -11.234185    14A    -11.230459    15A    -11.229904
      16A     -1.261297    17A     -1.229275    18A     -1.137513
      19A     -1.089783    20A     -1.060770    21A     -1.003199
      22A     -0.993059    23A     -0.944026    24A     -0.883570
      25A     -0.863135    26A     -0.852819    27A     -0.808798
      28A     -0.778118    29A     -0.717057    30A     -0.680641
      31A     -0.668258    32A     -0.658692    33A     -0.639950
      34A     -0.630717    35A     -0.609289    36A     -0.600110
      37A     -0.586324    38A     -0.582875    39A     -0.574280
      40A     -0.551757    41A     -0.541983    42A     -0.525575
      43A     -0.523493    44A     -0.504422    45A     -0.501038
      46A     -0.486240    47A     -0.482405    48A     -0.420356
      49A     -0.386944    50A     -0.364442    51A     -0.357983
      52A     -0.320480    53A     -0.308372

  @DF-RHF Final Energy:  -609.49383192939536

   => Energetics <=

    Nuclear Repulsion Energy =            949.5733504793826114
    One-Electron Energy =               -2711.1772656654320599
    Two-Electron Energy =                1152.1100832566542067
    Total Energy =                       -609.4938319293953555
  Basis Set: (AUG-CC-PVTZ AUX)
    Blend: AUG-CC-PVTZ-RI
    Molecular point group: c1

    Geometry (in Angstrom), charge = 0, multiplicity = 1:

       Center              X                  Y                   Z               Mass
    ------------   -----------------  -----------------  -----------------  -----------------
         N            1.040557579726     1.791135010484     0.442189555234    14.003074004430
         N           -1.412531420274     0.381665010484    -0.973404444766    14.003074004430
         C            1.430730579726     0.455372010484     0.145429555234    12.000000000000
         C            0.552930579726    -0.639705989516    -0.016498444766    12.000000000000
         C           -0.918411420274    -0.487691989516    -0.062405444766    12.000000000000
         C            2.823622279726     0.173829110484     0.298817755234    12.000000000000
         C            1.083586579726    -1.928955989516    -0.195010444766    12.000000000000
         C           -0.060145420274     1.998512010484     1.371076555234    12.000000000000
         C            0.989553579726     2.685535010484    -0.711009444766    12.000000000000
         C            3.326477579726    -1.052695989516    -0.169337444766    12.000000000000
         C            2.457332579726    -2.141156989516    -0.279477444766    12.000000000000
         C           -1.744166420274    -1.257352989516     0.769648555234    12.000000000000
         C           -3.127533420274    -1.132255989516     0.660606555234    12.000000000000
         C           -2.749947420274     0.492628010484    -1.060023444766    12.000000000000
         C           -3.644446420274    -0.237063989516    -0.275210444766    12.000000000000
         H            3.477331579726     1.069639010484     0.207127555234     1.007825032230
         H            0.396102579726    -2.763643989516    -0.323234444766     1.007825032230
         H           -1.056330420274     1.960838010484     0.909649555234     1.007825032230
         H            0.064600579726     2.987596010484     1.827562555234     1.007825032230
         H           -0.007769420274     1.248913010484     2.164674555234     1.007825032230
         H            0.983388579726     3.721458010484    -0.354217444766     1.007825032230
         H            0.100495579726     2.509070010484    -1.332901444766     1.007825032230
         H            1.883277579726     2.536500010484    -1.321568444766     1.007825032230
         H            4.402360579726    -1.200651989516    -0.229783444766     1.007825032230
         H            2.845836579726    -3.144499989516    -0.436434444766     1.007825032230
         H           -1.297356420274    -1.931208989516     1.496417555234     1.007825032230
         H           -3.788134420274    -1.714585989516     1.298729555234     1.007825032230
         H           -3.115590420274     1.200159010484    -1.802991444766     1.007825032230
         H           -4.715783420274    -0.103310989516    -0.397015444766     1.007825032230

  Basis Set: AUG-CC-PVTZ
    Blend: AUG-CC-PVTZ
  Basis Set: (AUG-CC-PVTZ AUX)
    Blend: AUG-CC-PVTZ-JKFIT
	 Reference Energy          =    -609.4938319293953555 [Eh]
	 Singles Energy            =      -0.0000000000000000 [Eh]
	 Same-Spin Energy          =      -0.6839706924220885 [Eh]
	 Opposite-Spin Energy      =      -2.1378288997275923 [Eh]
	 Correlation Energy        =      -2.8217995921496808 [Eh]
	 Total Energy              =    -612.3156315215450149 [Eh]

	 ================> DF-SCS-MP2 Energies <==================
	-----------------------------------------------------------
	 SCS Same-Spin Scale       =       0.3333333333333333 [-]
	 SCS Opposite-Spin Scale   =       1.2000000000000000 [-]
	 SCS Same-Spin Energy      =      -0.2279902308073628 [Eh]
	 SCS Opposite-Spin Energy  =      -2.5653946796731106 [Eh]
	 SCS Correlation Energy    =      -2.7933849104804733 [Eh]
	 SCS Total Energy          =    -612.2872168398757822 [Eh]
	-----------------------------------------------------------

  Dipole Moment: [D]
     X:    -2.0299      Y:    -0.9023      Z:     0.6906     Total:     2.3263

*** Psi4 exiting successfully. Buy a developer a beer!
