                               Psi4 1.4a2.dev612

  ==> Input File <==

--------------------------------------------------------------------------
#psi4
#
memory 32 gb

molecule  {
0 1
  N        1.0403590     1.7585850     0.4480670
  N       -1.4127300     0.3491150    -0.9675270
  C        1.4305320     0.4228220     0.1513070
  C        0.5527320    -0.6722560    -0.0106210
  C       -0.9186100    -0.5202420    -0.0565280
  C        2.8169175     0.1703256     0.1576783
  C        1.0833880    -1.9615060    -0.1891330
  C       -0.0603440     1.9659620     1.3769540
  C        0.9893550     2.6529850    -0.7051320
  C        3.3262790    -1.0852460    -0.1634600
  C        2.4571340    -2.1737070    -0.2736000
  C       -1.7443650    -1.2899030     0.7755260
  C       -3.1277320    -1.1648060     0.6664840
  C       -2.7501460     0.4600780    -1.0541460
  C       -3.6446450    -0.2696140    -0.2693330
  H        3.4771330     1.0370890     0.2130050
  H        0.3959040    -2.7961940    -0.3173570
  H       -1.0565290     1.9282880     0.9155270
  H        0.0644020     2.9550460     1.8334400
  H       -0.0079680     1.2163630     2.1705520
  H        0.9831900     3.6889080    -0.3483400
  H        0.1002970     2.4765200    -1.3270240
  H        1.8830790     2.5039500    -1.3156910
  H        4.4021620    -1.2332020    -0.2239060
  H        2.8456380    -3.1770500    -0.4305570
  H       -1.2975550    -1.9637590     1.5022950
  H       -3.7883330    -1.7471360     1.3046070
  H       -3.1157890     1.1676090    -1.7971140
  H       -4.7159820    -0.1358610    -0.3911380
units angstrom
no_reorient  #important for SAPT in psi4, default
symmetry c1  #important for SAPT in psi4, default
}

set PROPERTIES_ORIGIN ["COM"]
properties('MP2/aug-cc-pvtz', properties = ['dipole'])
--------------------------------------------------------------------------

    Molecular point group: c1
  Charge       = 0
  Multiplicity = 1
  Basis Set: AUG-CC-PVTZ
    Blend: AUG-CC-PVTZ
  Basis Set: (AUG-CC-PVTZ AUX)
    Blend: AUG-CC-PVTZ-JKFIT

    Orbital Energies [Eh]
    ---------------------

    Doubly Occupied:

       1A    -15.566504     2A    -15.544623     3A    -11.286886
       4A    -11.279704     5A    -11.268532     6A    -11.264115
       7A    -11.244218     8A    -11.243323     9A    -11.239976
      10A    -11.236891    11A    -11.235927    12A    -11.234175
      13A    -11.233936    14A    -11.229990    15A    -11.225916
      16A     -1.261120    17A     -1.229698    18A     -1.137904
      19A     -1.089562    20A     -1.061047    21A     -1.005354
      22A     -0.993006    23A     -0.944092    24A     -0.884037
      25A     -0.862962    26A     -0.852956    27A     -0.809507
      28A     -0.779808    29A     -0.717900    30A     -0.681074
      31A     -0.668368    32A     -0.658754    33A     -0.641291
      34A     -0.630901    35A     -0.610542    36A     -0.601627
      37A     -0.587970    38A     -0.582905    39A     -0.575803
      40A     -0.551892    41A     -0.541992    42A     -0.525741
      43A     -0.523470    44A     -0.504933    45A     -0.500088
      46A     -0.488890    47A     -0.486393    48A     -0.420175
      49A     -0.386935    50A     -0.367690    51A     -0.359420
      52A     -0.319556    53A     -0.306057

  @DF-RHF Final Energy:  -609.50945018552454

   => Energetics <=

    Nuclear Repulsion Energy =            950.2590924494669480
    One-Electron Energy =               -2712.5648113817105695
    Two-Electron Energy =                1152.7962687467190790
    Total Energy =                       -609.5094501855244289
  Basis Set: (AUG-CC-PVTZ AUX)
    Blend: AUG-CC-PVTZ-RI
    Molecular point group: c1

    Geometry (in Angstrom), charge = 0, multiplicity = 1:

       Center              X                  Y                   Z               Mass
    ------------   -----------------  -----------------  -----------------  -----------------
         N            1.040951664600     1.789375644605     0.451094466928    14.003074004430
         N           -1.412137335400     0.379905644605    -0.964499533072    14.003074004430
         C            1.431124664600     0.453612644605     0.154334466928    12.000000000000
         C            0.553324664600    -0.641465355395    -0.007593533072    12.000000000000
         C           -0.918017335400    -0.489451355395    -0.053500533072    12.000000000000
         C            2.817510164600     0.201116244605     0.160705766928    12.000000000000
         C            1.083980664600    -1.930715355395    -0.186105533072    12.000000000000
         C           -0.059751335400     1.996752644605     1.379981466928    12.000000000000
         C            0.989947664600     2.683775644605    -0.702104533072    12.000000000000
         C            3.326871664600    -1.054455355395    -0.160432533072    12.000000000000
         C            2.457726664600    -2.142916355395    -0.270572533072    12.000000000000
         C           -1.743772335400    -1.259112355395     0.778553466928    12.000000000000
         C           -3.127139335400    -1.134015355395     0.669511466928    12.000000000000
         C           -2.749553335400     0.490868644605    -1.051118533072    12.000000000000
         C           -3.644052335400    -0.238823355395    -0.266305533072    12.000000000000
         H            3.477725664600     1.067879644605     0.216032466928     1.007825032230
         H            0.396496664600    -2.765403355395    -0.314329533072     1.007825032230
         H           -1.055936335400     1.959078644605     0.918554466928     1.007825032230
         H            0.064994664600     2.985836644605     1.836467466928     1.007825032230
         H           -0.007375335400     1.247153644605     2.173579466928     1.007825032230
         H            0.983782664600     3.719698644605    -0.345312533072     1.007825032230
         H            0.100889664600     2.507310644605    -1.323996533072     1.007825032230
         H            1.883671664600     2.534740644605    -1.312663533072     1.007825032230
         H            4.402754664600    -1.202411355395    -0.220878533072     1.007825032230
         H            2.846230664600    -3.146259355395    -0.427529533072     1.007825032230
         H           -1.296962335400    -1.932968355395     1.505322466928     1.007825032230
         H           -3.787740335400    -1.716345355395     1.307634466928     1.007825032230
         H           -3.115196335400     1.198399644605    -1.794086533072     1.007825032230
         H           -4.715389335400    -0.105070355395    -0.388110533072     1.007825032230

  Basis Set: AUG-CC-PVTZ
    Blend: AUG-CC-PVTZ
  Basis Set: (AUG-CC-PVTZ AUX)
    Blend: AUG-CC-PVTZ-JKFIT
	 Reference Energy          =    -609.5094501855245426 [Eh]
	 Singles Energy            =      -0.0000000000000000 [Eh]
	 Same-Spin Energy          =      -0.6833640210056556 [Eh]
	 Opposite-Spin Energy      =      -2.1357330513994195 [Eh]
	 Correlation Energy        =      -2.8190970724050750 [Eh]
	 Total Energy              =    -612.3285472579295856 [Eh]

	 ================> DF-SCS-MP2 Energies <==================
	-----------------------------------------------------------
	 SCS Same-Spin Scale       =       0.3333333333333333 [-]
	 SCS Opposite-Spin Scale   =       1.2000000000000000 [-]
	 SCS Same-Spin Energy      =      -0.2277880070018852 [Eh]
	 SCS Opposite-Spin Energy  =      -2.5628796616793035 [Eh]
	 SCS Correlation Energy    =      -2.7906676686811887 [Eh]
	 SCS Total Energy          =    -612.3001178542057232 [Eh]
	-----------------------------------------------------------

  Dipole Moment: [D]
     X:    -1.9540      Y:    -0.8093      Z:     0.7895     Total:     2.2575

*** Psi4 exiting successfully. Buy a developer a beer!
