                               Psi4 1.4a2.dev612

  ==> Input File <==

--------------------------------------------------------------------------
#psi4
#
memory 32 gb

molecule  {
0 1
  N        1.0403590     1.7585850     0.4480670
  N       -1.4127300     0.3491150    -0.9675270
  C        1.4305320     0.4228220     0.1513070
  C        0.5527320    -0.6722560    -0.0106210
  C       -0.9186100    -0.5202420    -0.0565280
  C        2.8147487     0.1800078     0.1086726
  C        1.0833880    -1.9615060    -0.1891330
  C       -0.0603440     1.9659620     1.3769540
  C        0.9893550     2.6529850    -0.7051320
  C        3.3262790    -1.0852460    -0.1634600
  C        2.4571340    -2.1737070    -0.2736000
  C       -1.7443650    -1.2899030     0.7755260
  C       -3.1277320    -1.1648060     0.6664840
  C       -2.7501460     0.4600780    -1.0541460
  C       -3.6446450    -0.2696140    -0.2693330
  H        3.4771330     1.0370890     0.2130050
  H        0.3959040    -2.7961940    -0.3173570
  H       -1.0565290     1.9282880     0.9155270
  H        0.0644020     2.9550460     1.8334400
  H       -0.0079680     1.2163630     2.1705520
  H        0.9831900     3.6889080    -0.3483400
  H        0.1002970     2.4765200    -1.3270240
  H        1.8830790     2.5039500    -1.3156910
  H        4.4021620    -1.2332020    -0.2239060
  H        2.8456380    -3.1770500    -0.4305570
  H       -1.2975550    -1.9637590     1.5022950
  H       -3.7883330    -1.7471360     1.3046070
  H       -3.1157890     1.1676090    -1.7971140
  H       -4.7159820    -0.1358610    -0.3911380
units angstrom
no_reorient  #important for SAPT in psi4, default
symmetry c1  #important for SAPT in psi4, default
}

set PROPERTIES_ORIGIN ["COM"]
properties('MP2/aug-cc-pvtz', properties = ['dipole'])
--------------------------------------------------------------------------

    Molecular point group: c1
  Charge       = 0
  Multiplicity = 1
  Basis Set: AUG-CC-PVTZ
    Blend: AUG-CC-PVTZ
  Basis Set: (AUG-CC-PVTZ AUX)
    Blend: AUG-CC-PVTZ-JKFIT

    Orbital Energies [Eh]
    ---------------------

    Doubly Occupied:

       1A    -15.566496     2A    -15.544928     3A    -11.286798
       4A    -11.279662     5A    -11.268171     6A    -11.264042
       7A    -11.244207     8A    -11.243252     9A    -11.239761
      10A    -11.236651    11A    -11.236039    12A    -11.233993
      13A    -11.233946    14A    -11.229751    15A    -11.225339
      16A     -1.261091    17A     -1.229902    18A     -1.137876
      19A     -1.089515    20A     -1.060999    21A     -1.005692
      22A     -0.992920    23A     -0.944197    24A     -0.884065
      25A     -0.862913    26A     -0.853014    27A     -0.809599
      28A     -0.780074    29A     -0.718011    30A     -0.681154
      31A     -0.668322    32A     -0.658750    33A     -0.641495
      34A     -0.630870    35A     -0.611045    36A     -0.601954
      37A     -0.588111    38A     -0.582701    39A     -0.575976
      40A     -0.551913    41A     -0.541916    42A     -0.525810
      43A     -0.523503    44A     -0.505151    45A     -0.499359
      46A     -0.489715    47A     -0.486835    48A     -0.420129
      49A     -0.386955    50A     -0.368894    51A     -0.359678
      52A     -0.319358    53A     -0.305100

  @DF-RHF Final Energy:  -609.51150073104225

   => Energetics <=

    Nuclear Repulsion Energy =            950.3724832050967279
    One-Electron Energy =               -2712.7927704995986460
    Two-Electron Energy =                1152.9087865634598984
    Total Energy =                       -609.5115007310421333
  Basis Set: (AUG-CC-PVTZ AUX)
    Blend: AUG-CC-PVTZ-RI
    Molecular point group: c1

    Geometry (in Angstrom), charge = 0, multiplicity = 1:

       Center              X                  Y                   Z               Mass
    ------------   -----------------  -----------------  -----------------  -----------------
         N            1.041083030263     1.788789187293     0.454062774864    14.003074004430
         N           -1.412005969737     0.379319187293    -0.961531225136    14.003074004430
         C            1.431256030263     0.453026187293     0.157302774864    12.000000000000
         C            0.553456030263    -0.642051812707    -0.004625225136    12.000000000000
         C           -0.917885969737    -0.490037812707    -0.050532225136    12.000000000000
         C            2.815472730263     0.210211987293     0.114668374864    12.000000000000
         C            1.084112030263    -1.931301812707    -0.183137225136    12.000000000000
         C           -0.059619969737     1.996166187293     1.382949774864    12.000000000000
         C            0.990079030263     2.683189187293    -0.699136225136    12.000000000000
         C            3.327003030263    -1.055041812707    -0.157464225136    12.000000000000
         C            2.457858030263    -2.143502812707    -0.267604225136    12.000000000000
         C           -1.743640969737    -1.259698812707     0.781521774864    12.000000000000
         C           -3.127007969737    -1.134601812707     0.672479774864    12.000000000000
         C           -2.749421969737     0.490282187293    -1.048150225136    12.000000000000
         C           -3.643920969737    -0.239409812707    -0.263337225136    12.000000000000
         H            3.477857030263     1.067293187293     0.219000774864     1.007825032230
         H            0.396628030263    -2.765989812707    -0.311361225136     1.007825032230
         H           -1.055804969737     1.958492187293     0.921522774864     1.007825032230
         H            0.065126030263     2.985250187293     1.839435774864     1.007825032230
         H           -0.007243969737     1.246567187293     2.176547774864     1.007825032230
         H            0.983914030263     3.719112187293    -0.342344225136     1.007825032230
         H            0.101021030263     2.506724187293    -1.321028225136     1.007825032230
         H            1.883803030263     2.534154187293    -1.309695225136     1.007825032230
         H            4.402886030263    -1.202997812707    -0.217910225136     1.007825032230
         H            2.846362030263    -3.146845812707    -0.424561225136     1.007825032230
         H           -1.296830969737    -1.933554812707     1.508290774864     1.007825032230
         H           -3.787608969737    -1.716931812707     1.310602774864     1.007825032230
         H           -3.115064969737     1.197813187293    -1.791118225136     1.007825032230
         H           -4.715257969737    -0.105656812707    -0.385142225136     1.007825032230

  Basis Set: AUG-CC-PVTZ
    Blend: AUG-CC-PVTZ
  Basis Set: (AUG-CC-PVTZ AUX)
    Blend: AUG-CC-PVTZ-JKFIT
	 Reference Energy          =    -609.5115007310422470 [Eh]
	 Singles Energy            =      -0.0000000000000000 [Eh]
	 Same-Spin Energy          =      -0.6833227512198271 [Eh]
	 Opposite-Spin Energy      =      -2.1355233137791512 [Eh]
	 Correlation Energy        =      -2.8188460649989784 [Eh]
	 Total Energy              =    -612.3303467960412263 [Eh]

	 ================> DF-SCS-MP2 Energies <==================
	-----------------------------------------------------------
	 SCS Same-Spin Scale       =       0.3333333333333333 [-]
	 SCS Opposite-Spin Scale   =       1.2000000000000000 [-]
	 SCS Same-Spin Energy      =      -0.2277742504066090 [Eh]
	 SCS Opposite-Spin Energy  =      -2.5626279765349813 [Eh]
	 SCS Correlation Energy    =      -2.7904022269415902 [Eh]
	 SCS Total Energy          =    -612.3019029579838843 [Eh]
	-----------------------------------------------------------

  Dipole Moment: [D]
     X:    -1.9465      Y:    -0.7872      Z:     0.8199     Total:     2.2541

*** Psi4 exiting successfully. Buy a developer a beer!
