                               Psi4 1.4a2.dev612

  ==> Input File <==

--------------------------------------------------------------------------
#psi4
#
memory 32 gb

molecule  {
0 1
  N        1.0403590     1.7585850     0.4480670
  N       -1.4127300     0.3491150    -0.9675270
  C        1.4305320     0.4228220     0.1513070
  C        0.5527320    -0.6722560    -0.0106210
  C       -0.9186100    -0.5202420    -0.0565280
  C        2.8190862     0.1606435     0.2066839
  C        1.0833880    -1.9615060    -0.1891330
  C       -0.0603440     1.9659620     1.3769540
  C        0.9893550     2.6529850    -0.7051320
  C        3.3262790    -1.0852460    -0.1634600
  C        2.4571340    -2.1737070    -0.2736000
  C       -1.7443650    -1.2899030     0.7755260
  C       -3.1277320    -1.1648060     0.6664840
  C       -2.7501460     0.4600780    -1.0541460
  C       -3.6446450    -0.2696140    -0.2693330
  H        3.4771330     1.0370890     0.2130050
  H        0.3959040    -2.7961940    -0.3173570
  H       -1.0565290     1.9282880     0.9155270
  H        0.0644020     2.9550460     1.8334400
  H       -0.0079680     1.2163630     2.1705520
  H        0.9831900     3.6889080    -0.3483400
  H        0.1002970     2.4765200    -1.3270240
  H        1.8830790     2.5039500    -1.3156910
  H        4.4021620    -1.2332020    -0.2239060
  H        2.8456380    -3.1770500    -0.4305570
  H       -1.2975550    -1.9637590     1.5022950
  H       -3.7883330    -1.7471360     1.3046070
  H       -3.1157890     1.1676090    -1.7971140
  H       -4.7159820    -0.1358610    -0.3911380
units angstrom
no_reorient  #important for SAPT in psi4, default
symmetry c1  #important for SAPT in psi4, default
}

set PROPERTIES_ORIGIN ["COM"]
properties('MP2/aug-cc-pvtz', properties = ['dipole'])
--------------------------------------------------------------------------

    Molecular point group: c1
  Charge       = 0
  Multiplicity = 1
  Basis Set: AUG-CC-PVTZ
    Blend: AUG-CC-PVTZ
  Basis Set: (AUG-CC-PVTZ AUX)
    Blend: AUG-CC-PVTZ-JKFIT

    Orbital Energies [Eh]
    ---------------------

    Doubly Occupied:

       1A    -15.566519     2A    -15.544398     3A    -11.286988
       4A    -11.279760     5A    -11.269336     6A    -11.264202
       7A    -11.244237     8A    -11.243404     9A    -11.240154
      10A    -11.237367    11A    -11.235856    12A    -11.234775
      13A    -11.233971    14A    -11.230185    15A    -11.226883
      16A     -1.261162    17A     -1.229524    18A     -1.137848
      19A     -1.089621    20A     -1.061022    21A     -1.004829
      22A     -0.993056    23A     -0.944028    24A     -0.883940
      25A     -0.863014    26A     -0.852906    27A     -0.809337
      28A     -0.779380    29A     -0.717691    30A     -0.680950
      31A     -0.668366    32A     -0.658742    33A     -0.640954
      34A     -0.630876    35A     -0.610087    36A     -0.601164
      37A     -0.587601    38A     -0.583011    39A     -0.575489
      40A     -0.551856    41A     -0.542035    42A     -0.525678
      43A     -0.523458    44A     -0.504731    45A     -0.500618
      46A     -0.488006    47A     -0.485564    48A     -0.420228
      49A     -0.386925    50A     -0.366521    51A     -0.359070
      52A     -0.319791    53A     -0.306933

  @DF-RHF Final Energy:  -609.50583852950183

   => Energetics <=

    Nuclear Repulsion Energy =            950.0872102995958812
    One-Electron Energy =               -2712.2179988734028484
    Two-Electron Energy =                1152.6249500443050238
    Total Energy =                       -609.5058385295019434
  Basis Set: (AUG-CC-PVTZ AUX)
    Blend: AUG-CC-PVTZ-RI
    Molecular point group: c1

    Geometry (in Angstrom), charge = 0, multiplicity = 1:

       Center              X                  Y                   Z               Mass
    ------------   -----------------  -----------------  -----------------  -----------------
         N            1.040820304995     1.789962095860     0.448126165049    14.003074004430
         N           -1.412268695005     0.380492095860    -0.967467834951    14.003074004430
         C            1.430993304995     0.454199095860     0.151366165049    12.000000000000
         C            0.553193304995    -0.640878904140    -0.010561834951    12.000000000000
         C           -0.918148695005    -0.488864904140    -0.056468834951    12.000000000000
         C            2.819547504995     0.192020595860     0.206743065049    12.000000000000
         C            1.083849304995    -1.930128904140    -0.189073834951    12.000000000000
         C           -0.059882695005     1.997339095860     1.377013165049    12.000000000000
         C            0.989816304995     2.684362095860    -0.705072834951    12.000000000000
         C            3.326740304995    -1.053868904140    -0.163400834951    12.000000000000
         C            2.457595304995    -2.142329904140    -0.273540834951    12.000000000000
         C           -1.743903695005    -1.258525904140     0.775585165049    12.000000000000
         C           -3.127270695005    -1.133428904140     0.666543165049    12.000000000000
         C           -2.749684695005     0.491455095860    -1.054086834951    12.000000000000
         C           -3.644183695005    -0.238236904140    -0.269273834951    12.000000000000
         H            3.477594304995     1.068466095860     0.213064165049     1.007825032230
         H            0.396365304995    -2.764816904140    -0.317297834951     1.007825032230
         H           -1.056067695005     1.959665095860     0.915586165049     1.007825032230
         H            0.064863304995     2.986423095860     1.833499165049     1.007825032230
         H           -0.007506695005     1.247740095860     2.170611165049     1.007825032230
         H            0.983651304995     3.720285095860    -0.348280834951     1.007825032230
         H            0.100758304995     2.507897095860    -1.326964834951     1.007825032230
         H            1.883540304995     2.535327095860    -1.315631834951     1.007825032230
         H            4.402623304995    -1.201824904140    -0.223846834951     1.007825032230
         H            2.846099304995    -3.145672904140    -0.430497834951     1.007825032230
         H           -1.297093695005    -1.932381904140     1.502354165049     1.007825032230
         H           -3.787871695005    -1.715758904140     1.304666165049     1.007825032230
         H           -3.115327695005     1.198986095860    -1.797054834951     1.007825032230
         H           -4.715520695005    -0.104483904140    -0.391078834951     1.007825032230

  Basis Set: AUG-CC-PVTZ
    Blend: AUG-CC-PVTZ
  Basis Set: (AUG-CC-PVTZ AUX)
    Blend: AUG-CC-PVTZ-JKFIT
	 Reference Energy          =    -609.5058385295018297 [Eh]
	 Singles Energy            =      -0.0000000000000000 [Eh]
	 Same-Spin Energy          =      -0.6834870886383174 [Eh]
	 Opposite-Spin Energy      =      -2.1361871095391036 [Eh]
	 Correlation Energy        =      -2.8196741981774212 [Eh]
	 Total Energy              =    -612.3255127276792109 [Eh]

	 ================> DF-SCS-MP2 Energies <==================
	-----------------------------------------------------------
	 SCS Same-Spin Scale       =       0.3333333333333333 [-]
	 SCS Opposite-Spin Scale   =       1.2000000000000000 [-]
	 SCS Same-Spin Energy      =      -0.2278290295461058 [Eh]
	 SCS Opposite-Spin Energy  =      -2.5634245314469242 [Eh]
	 SCS Correlation Energy    =      -2.7912535609930300 [Eh]
	 SCS Total Energy          =    -612.2970920904948571 [Eh]
	-----------------------------------------------------------

  Dipole Moment: [D]
     X:    -1.9705      Y:    -0.8361      Z:     0.7580     Total:     2.2708

*** Psi4 exiting successfully. Buy a developer a beer!
