                               Psi4 1.4a2.dev612

  ==> Input File <==

--------------------------------------------------------------------------
#psi4
#
memory 32 gb

molecule  {
0 1
  N        1.0403590     1.7585850     0.4480670
  N       -1.4127300     0.3491150    -0.9675270
  C        1.4305320     0.4228220     0.1513070
  C        0.5527320    -0.6722560    -0.0106210
  C       -0.9186100    -0.5202420    -0.0565280
  C        2.8212549     0.1509613     0.2556895
  C        1.0833880    -1.9615060    -0.1891330
  C       -0.0603440     1.9659620     1.3769540
  C        0.9893550     2.6529850    -0.7051320
  C        3.3262790    -1.0852460    -0.1634600
  C        2.4571340    -2.1737070    -0.2736000
  C       -1.7443650    -1.2899030     0.7755260
  C       -3.1277320    -1.1648060     0.6664840
  C       -2.7501460     0.4600780    -1.0541460
  C       -3.6446450    -0.2696140    -0.2693330
  H        3.4771330     1.0370890     0.2130050
  H        0.3959040    -2.7961940    -0.3173570
  H       -1.0565290     1.9282880     0.9155270
  H        0.0644020     2.9550460     1.8334400
  H       -0.0079680     1.2163630     2.1705520
  H        0.9831900     3.6889080    -0.3483400
  H        0.1002970     2.4765200    -1.3270240
  H        1.8830790     2.5039500    -1.3156910
  H        4.4021620    -1.2332020    -0.2239060
  H        2.8456380    -3.1770500    -0.4305570
  H       -1.2975550    -1.9637590     1.5022950
  H       -3.7883330    -1.7471360     1.3046070
  H       -3.1157890     1.1676090    -1.7971140
  H       -4.7159820    -0.1358610    -0.3911380
units angstrom
no_reorient  #important for SAPT in psi4, default
symmetry c1  #important for SAPT in psi4, default
}

set PROPERTIES_ORIGIN ["COM"]
properties('MP2/aug-cc-pvtz', properties = ['dipole'])
--------------------------------------------------------------------------

    Molecular point group: c1
  Charge       = 0
  Multiplicity = 1
  Basis Set: AUG-CC-PVTZ
    Blend: AUG-CC-PVTZ
  Basis Set: (AUG-CC-PVTZ AUX)
    Blend: AUG-CC-PVTZ-JKFIT

    Orbital Energies [Eh]
    ---------------------

    Doubly Occupied:

       1A    -15.566542     2A    -15.544254     3A    -11.287104
       4A    -11.279832     5A    -11.270567     6A    -11.264305
       7A    -11.244265     8A    -11.243496     9A    -11.240310
      10A    -11.238072    11A    -11.235825    12A    -11.235786
      13A    -11.234053    14A    -11.230340    15A    -11.228223
      16A     -1.261221    17A     -1.229383    18A     -1.137714
      19A     -1.089694    20A     -1.060928    21A     -1.004112
      22A     -0.993073    23A     -0.944005    24A     -0.883781
      25A     -0.863071    26A     -0.852861    27A     -0.809097
      28A     -0.778808    29A     -0.717402    30A     -0.680798
      31A     -0.668325    32A     -0.658719    33A     -0.640501
      34A     -0.630809    35A     -0.609673    36A     -0.600632
      37A     -0.587034    38A     -0.583004    39A     -0.574998
      40A     -0.551810    41A     -0.542037    42A     -0.525622
      43A     -0.523467    44A     -0.504557    45A     -0.500938
      46A     -0.487129    47A     -0.484246    48A     -0.420288
      49A     -0.386927    50A     -0.365425    51A     -0.358601
      52A     -0.320087    53A     -0.307711

  @DF-RHF Final Energy:  -609.50064184816563

   => Energetics <=

    Nuclear Repulsion Energy =            949.8580565767849748
    One-Electron Energy =               -2711.7544679489124064
    Two-Electron Energy =                1152.3957695239616896
    Total Energy =                       -609.5006418481657420
  Basis Set: (AUG-CC-PVTZ AUX)
    Blend: AUG-CC-PVTZ-RI
    Molecular point group: c1

    Geometry (in Angstrom), charge = 0, multiplicity = 1:

       Center              X                  Y                   Z               Mass
    ------------   -----------------  -----------------  -----------------  -----------------
         N            1.040688945389     1.790548553172     0.445157863170    14.003074004430
         N           -1.412400054611     0.381078553172    -0.970436136830    14.003074004430
         C            1.430861945389     0.454785553172     0.148397863170    12.000000000000
         C            0.553061945389    -0.640292446828    -0.013530136830    12.000000000000
         C           -0.918280054611    -0.488278446828    -0.059437136830    12.000000000000
         C            2.821584845389     0.182924853172     0.252780363170    12.000000000000
         C            1.083717945389    -1.929542446828    -0.192042136830    12.000000000000
         C           -0.060014054611     1.997925553172     1.374044863170    12.000000000000
         C            0.989684945389     2.684948553172    -0.708041136830    12.000000000000
         C            3.326608945389    -1.053282446828    -0.166369136830    12.000000000000
         C            2.457463945389    -2.141743446828    -0.276509136830    12.000000000000
         C           -1.744035054611    -1.257939446828     0.772616863170    12.000000000000
         C           -3.127402054611    -1.132842446828     0.663574863170    12.000000000000
         C           -2.749816054611     0.492041553172    -1.057055136830    12.000000000000
         C           -3.644315054611    -0.237650446828    -0.272242136830    12.000000000000
         H            3.477462945389     1.069052553172     0.210095863170     1.007825032230
         H            0.396233945389    -2.764230446828    -0.320266136830     1.007825032230
         H           -1.056199054611     1.960251553172     0.912617863170     1.007825032230
         H            0.064731945389     2.987009553172     1.830530863170     1.007825032230
         H           -0.007638054611     1.248326553172     2.167642863170     1.007825032230
         H            0.983519945389     3.720871553172    -0.351249136830     1.007825032230
         H            0.100626945389     2.508483553172    -1.329933136830     1.007825032230
         H            1.883408945389     2.535913553172    -1.318600136830     1.007825032230
         H            4.402491945389    -1.201238446828    -0.226815136830     1.007825032230
         H            2.845967945389    -3.145086446828    -0.433466136830     1.007825032230
         H           -1.297225054611    -1.931795446828     1.499385863170     1.007825032230
         H           -3.788003054611    -1.715172446828     1.301697863170     1.007825032230
         H           -3.115459054611     1.199572553172    -1.800023136830     1.007825032230
         H           -4.715652054611    -0.103897446828    -0.394047136830     1.007825032230

  Basis Set: AUG-CC-PVTZ
    Blend: AUG-CC-PVTZ
  Basis Set: (AUG-CC-PVTZ AUX)
    Blend: AUG-CC-PVTZ-JKFIT
	 Reference Energy          =    -609.5006418481656283 [Eh]
	 Singles Energy            =      -0.0000000000000000 [Eh]
	 Same-Spin Energy          =      -0.6836904330015167 [Eh]
	 Opposite-Spin Energy      =      -2.1368902150521065 [Eh]
	 Correlation Energy        =      -2.8205806480536233 [Eh]
	 Total Energy              =    -612.3212224962192067 [Eh]

	 ================> DF-SCS-MP2 Energies <==================
	-----------------------------------------------------------
	 SCS Same-Spin Scale       =       0.3333333333333333 [-]
	 SCS Opposite-Spin Scale   =       1.2000000000000000 [-]
	 SCS Same-Spin Energy      =      -0.2278968110005055 [Eh]
	 SCS Opposite-Spin Energy  =      -2.5642682580625276 [Eh]
	 SCS Correlation Energy    =      -2.7921650690630333 [Eh]
	 SCS Total Energy          =    -612.2928069172286314 [Eh]
	-----------------------------------------------------------

  Dipole Moment: [D]
     X:    -1.9958      Y:    -0.8672      Z:     0.7251     Total:     2.2937

*** Psi4 exiting successfully. Buy a developer a beer!
