                               Psi4 1.3.2 release

  ==> Input File <==

--------------------------------------------------------------------------
#psi4
#
memory 32 gb

molecule  {
0 1
  O       -2.7848290    -0.9154220    -0.7447340
  C       -2.7698910    -0.0438090     0.3861860
  C       -1.3373992     0.1991341     0.7796865
  C        3.5873700    -0.2293000     0.2222030
  C       -3.4755630     1.2700040     0.0649850
  C       -0.2802220    -0.2946410     0.1124460
  C        2.1660230    -0.5131760    -0.1475910
  C        1.0880959    -0.0196439     0.5118239
  C        4.3244450     0.5343730    -0.8803810
  H       -3.2865450    -0.5271910     1.2335890
  H       -1.1970340     0.8260370     1.6487790
  H        3.6131550     0.3461180     1.1547940
  H        4.1142490    -1.1721620     0.4188690
  H       -2.9813020     1.7413150    -0.7875330
  H       -4.5277090     1.0956620    -0.1864690
  H       -3.4435650     1.9541860     0.9176610
  H       -0.4470010    -0.9272420    -0.7564190
  H        2.0063450    -1.1440610    -1.0244550
  H        1.2471430     0.6066220     1.3780870
  H        4.3142870    -0.0291260    -1.8177910
  H        5.3679410     0.7151030    -0.6066950
  H        3.8442820     1.4990380    -1.0633910
  H       -3.7175750    -1.0591810    -0.9792530
units angstrom
no_reorient  #important for SAPT in psi4, default
symmetry c1  #important for SAPT in psi4, default
}

set PROPERTIES_ORIGIN ["COM"]
properties('MP2/aug-cc-pvtz', properties = ['dipole'])
--------------------------------------------------------------------------

    Molecular point group: c1
  Charge       = 0
  Multiplicity = 1
  Basis Set: AUG-CC-PVTZ
    Blend: AUG-CC-PVTZ
  Basis Set: (AUG-CC-PVTZ AUX)
    Blend: AUG-CC-PVTZ-JKFIT

    Orbital Energies [Eh]
    ---------------------

    Doubly Occupied:

       1A    -20.558765     2A    -11.286563     3A    -11.227129
       4A    -11.223802     5A    -11.223089     6A    -11.223001
       7A    -11.221437     8A    -11.220314     9A    -11.212772
      10A     -1.360475    11A     -1.096970    12A     -1.060370
      13A     -1.015615    14A     -0.961217    15A     -0.875820
      16A     -0.827587    17A     -0.753287    18A     -0.750002
      19A     -0.694719    20A     -0.637193    21A     -0.626767
      22A     -0.617037    23A     -0.590333    24A     -0.582911
      25A     -0.547165    26A     -0.543779    27A     -0.527653
      28A     -0.518613    29A     -0.502463    30A     -0.492397
      31A     -0.479110    32A     -0.467090    33A     -0.452424
      34A     -0.417620    35A     -0.295847

  @DF-RHF Final Energy:  -386.06196580504877

   => Energetics <=

    Nuclear Repulsion Energy =            418.0738061509967451
    One-Electron Energy =               -1352.0888687744102299
    Two-Electron Energy =                 547.9530968183647701
    Total Energy =                       -386.0619658050487715
  Basis Set: (AUG-CC-PVTZ AUX)
    Blend: AUG-CC-PVTZ-RI
    Molecular point group: c1

    Geometry (in Angstrom), charge = 0, multiplicity = 1:

       Center              X                  Y                   Z               Mass
    ------------   -----------------  -----------------  -----------------  -----------------
         O           -2.785116604199    -0.916603796726    -0.746371035724    15.994914619570
         C           -2.770178604199    -0.044990796726     0.384548964276    12.000000000000
         C           -1.337686804199     0.197952303274     0.778049464276    12.000000000000
         C            3.587082395801    -0.230481796726     0.220565964276    12.000000000000
         C           -3.475850604199     1.268822203274     0.063347964276    12.000000000000
         C           -0.280509604199    -0.295822796726     0.110808964276    12.000000000000
         C            2.165735395801    -0.514357796726    -0.149228035724    12.000000000000
         C            1.087808295801    -0.020825696726     0.510186864276    12.000000000000
         C            4.324157395801     0.533191203274    -0.882018035724    12.000000000000
         H           -3.286832604199    -0.528372796726     1.231951964276     1.007825032230
         H           -1.197321604199     0.824855203274     1.647141964276     1.007825032230
         H            3.612867395801     0.344936203274     1.153156964276     1.007825032230
         H            4.113961395801    -1.173343796726     0.417231964276     1.007825032230
         H           -2.981589604199     1.740133203274    -0.789170035724     1.007825032230
         H           -4.527996604199     1.094480203274    -0.188106035724     1.007825032230
         H           -3.443852604199     1.953004203274     0.916023964276     1.007825032230
         H           -0.447288604199    -0.928423796726    -0.758056035724     1.007825032230
         H            2.006057395801    -1.145242796726    -1.026092035724     1.007825032230
         H            1.246855395801     0.605440203274     1.376449964276     1.007825032230
         H            4.313999395801    -0.030307796726    -1.819428035724     1.007825032230
         H            5.367653395801     0.713921203274    -0.608332035724     1.007825032230
         H            3.843994395801     1.497856203274    -1.065028035724     1.007825032230
         H           -3.717862604199    -1.060362796726    -0.980890035724     1.007825032230

  Basis Set: AUG-CC-PVTZ
    Blend: AUG-CC-PVTZ
  Basis Set: (AUG-CC-PVTZ AUX)
    Blend: AUG-CC-PVTZ-JKFIT
	 Reference Energy          =    -386.0619658050487715 [Eh]
	 Singles Energy            =      -0.0000000000000000 [Eh]
	 Same-Spin Energy          =      -0.4003588463439974 [Eh]
	 Opposite-Spin Energy      =      -1.3784582437967794 [Eh]
	 Correlation Energy        =      -1.7788170901407767 [Eh]
	 Total Energy              =    -387.8407828951895340 [Eh]

	 ================> DF-SCS-MP2 Energies <==================
	-----------------------------------------------------------
	 SCS Same-Spin Scale       =       0.3333333333333333 [-]
	 SCS Opposite-Spin Scale   =       1.2000000000000000 [-]
	 SCS Same-Spin Energy      =      -0.1334529487813325 [Eh]
	 SCS Opposite-Spin Energy  =      -1.6541498925561353 [Eh]
	 SCS Correlation Energy    =      -1.7876028413374678 [Eh]
	 SCS Total Energy          =    -387.8495686463862171 [Eh]
	-----------------------------------------------------------

  Dipole Moment: [D]
     X:    -1.1534      Y:     0.6439      Z:     0.5859     Total:     1.4451

*** Psi4 exiting successfully. Buy a developer a beer!
