                               Psi4 1.3.2 release

  ==> Input File <==

--------------------------------------------------------------------------
#psi4
#
memory 32 gb

molecule  {
0 1
  O       -2.7848290    -0.9154220    -0.7447340
  C       -2.7698910    -0.0438090     0.3861860
  C       -1.3446020     0.1937550     0.7721520
  C        3.5873700    -0.2293000     0.2222030
  C       -3.4755630     1.2700040     0.0649850
  C       -0.4385982    -0.2219693     0.2106081
  C        2.1660230    -0.5131760    -0.1475910
  C        1.0922740    -0.0266840     0.5021560
  C        4.3244450     0.5343730    -0.8803810
  H       -3.2865450    -0.5271910     1.2335890
  H       -1.1970340     0.8260370     1.6487790
  H        3.6131550     0.3461180     1.1547940
  H        4.1142490    -1.1721620     0.4188690
  H       -2.9813020     1.7413150    -0.7875330
  H       -4.5277090     1.0956620    -0.1864690
  H       -3.4435650     1.9541860     0.9176610
  H       -0.4470010    -0.9272420    -0.7564190
  H        2.0063450    -1.1440610    -1.0244550
  H        1.2471430     0.6066220     1.3780870
  H        4.3142870    -0.0291260    -1.8177910
  H        5.3679410     0.7151030    -0.6066950
  H        3.8442820     1.4990380    -1.0633910
  H       -3.7175750    -1.0591810    -0.9792530
units angstrom
no_reorient  #important for SAPT in psi4, default
symmetry c1  #important for SAPT in psi4, default
}

set PROPERTIES_ORIGIN ["COM"]
properties('MP2/aug-cc-pvtz', properties = ['dipole'])
--------------------------------------------------------------------------

    Molecular point group: c1
  Charge       = 0
  Multiplicity = 1
  Basis Set: AUG-CC-PVTZ
    Blend: AUG-CC-PVTZ
  Basis Set: (AUG-CC-PVTZ AUX)
    Blend: AUG-CC-PVTZ-JKFIT

    Orbital Energies [Eh]
    ---------------------

    Doubly Occupied:

       1A    -20.558033     2A    -11.285969     3A    -11.229748
       4A    -11.227342     5A    -11.224120     6A    -11.220979
       7A    -11.212933     8A    -11.208421     9A    -11.191945
      10A     -1.360787    11A     -1.117610    12A     -1.072827
      13A     -1.012595    14A     -0.975243    15A     -0.868125
      16A     -0.836113    17A     -0.751939    18A     -0.733871
      19A     -0.689987    20A     -0.642169    21A     -0.630020
      22A     -0.617676    23A     -0.594355    24A     -0.586123
      25A     -0.545685    26A     -0.544244    27A     -0.527816
      28A     -0.520065    29A     -0.495563    30A     -0.493742
      31A     -0.478855    32A     -0.461803    33A     -0.428493
      34A     -0.420431    35A     -0.329753

  @DF-RHF Final Energy:  -385.99256001911618

   => Energetics <=

    Nuclear Repulsion Energy =            419.9280409492376975
    One-Electron Energy =               -1355.6504403482310863
    Two-Electron Energy =                 549.7298393798771485
    Total Energy =                       -385.9925600191162403
  Basis Set: (AUG-CC-PVTZ AUX)
    Blend: AUG-CC-PVTZ-RI
    Molecular point group: c1

    Geometry (in Angstrom), charge = 0, multiplicity = 1:

       Center              X                  Y                   Z               Mass
    ------------   -----------------  -----------------  -----------------  -----------------
         O           -2.769757823691    -0.922337376418    -0.754075096000    15.994914619570
         C           -2.754819823691    -0.050724376418     0.376844904000    12.000000000000
         C           -1.329530823691     0.186839623582     0.762810904000    12.000000000000
         C            3.602441176309    -0.236215376418     0.212861904000    12.000000000000
         C           -3.460491823691     1.263088623582     0.055643904000    12.000000000000
         C           -0.423527023691    -0.228884676418     0.201267004000    12.000000000000
         C            2.181094176309    -0.520091376418    -0.156932096000    12.000000000000
         C            1.107345176309    -0.033599376418     0.492814904000    12.000000000000
         C            4.339516176309     0.527457623582    -0.889722096000    12.000000000000
         H           -3.271473823691    -0.534106376418     1.224247904000     1.007825032230
         H           -1.181962823691     0.819121623582     1.639437904000     1.007825032230
         H            3.628226176309     0.339202623582     1.145452904000     1.007825032230
         H            4.129320176309    -1.179077376418     0.409527904000     1.007825032230
         H           -2.966230823691     1.734399623582    -0.796874096000     1.007825032230
         H           -4.512637823691     1.088746623582    -0.195810096000     1.007825032230
         H           -3.428493823691     1.947270623582     0.908319904000     1.007825032230
         H           -0.431929823691    -0.934157376418    -0.765760096000     1.007825032230
         H            2.021416176309    -1.150976376418    -1.033796096000     1.007825032230
         H            1.262214176309     0.599706623582     1.368745904000     1.007825032230
         H            4.329358176309    -0.036041376418    -1.827132096000     1.007825032230
         H            5.383012176309     0.708187623582    -0.616036096000     1.007825032230
         H            3.859353176309     1.492122623582    -1.072732096000     1.007825032230
         H           -3.702503823691    -1.066096376418    -0.988594096000     1.007825032230

  Basis Set: AUG-CC-PVTZ
    Blend: AUG-CC-PVTZ
  Basis Set: (AUG-CC-PVTZ AUX)
    Blend: AUG-CC-PVTZ-JKFIT
	 Reference Energy          =    -385.9925600191161834 [Eh]
	 Singles Energy            =      -0.0000000000000000 [Eh]
	 Same-Spin Energy          =      -0.3990168266419969 [Eh]
	 Opposite-Spin Energy      =      -1.3755773602848433 [Eh]
	 Correlation Energy        =      -1.7745941869268402 [Eh]
	 Total Energy              =    -387.7671542060430170 [Eh]

	 ================> DF-SCS-MP2 Energies <==================
	-----------------------------------------------------------
	 SCS Same-Spin Scale       =       0.3333333333333333 [-]
	 SCS Opposite-Spin Scale   =       1.2000000000000000 [-]
	 SCS Same-Spin Energy      =      -0.1330056088806656 [Eh]
	 SCS Opposite-Spin Energy  =      -1.6506928323418120 [Eh]
	 SCS Correlation Energy    =      -1.7836984412224777 [Eh]
	 SCS Total Energy          =    -387.7762584603386813 [Eh]
	-----------------------------------------------------------

  Dipole Moment: [D]
     X:    -1.1726      Y:     0.6630      Z:     0.6019     Total:     1.4754

*** Psi4 exiting successfully. Buy a developer a beer!
