                               Psi4 1.3.2 release

  ==> Input File <==

--------------------------------------------------------------------------
#psi4
#
memory 32 gb

molecule  {
0 1
  O       -2.7848290    -0.9154220    -0.7447340
  C       -2.7698910    -0.0438090     0.3861860
  C       -1.3446020     0.1937550     0.7721520
  C        3.5873700    -0.2293000     0.2222030
  C       -3.4225532     1.2817278     0.0064073
  C       -0.2802220    -0.2946410     0.1124460
  C        2.1660230    -0.5131760    -0.1475910
  C        1.0922740    -0.0266840     0.5021560
  C        4.3244450     0.5343730    -0.8803810
  H       -3.2484015    -0.5704782     1.2301816
  H       -1.1970340     0.8260370     1.6487790
  H        3.6131550     0.3461180     1.1547940
  H        4.1142490    -1.1721620     0.4188690
  H       -2.9813020     1.7413150    -0.7875330
  H       -4.5277090     1.0956620    -0.1864690
  H       -3.4435650     1.9541860     0.9176610
  H       -0.4470010    -0.9272420    -0.7564190
  H        2.0063450    -1.1440610    -1.0244550
  H        1.2471430     0.6066220     1.3780870
  H        4.3142870    -0.0291260    -1.8177910
  H        5.3679410     0.7151030    -0.6066950
  H        3.8442820     1.4990380    -1.0633910
  H       -3.7175750    -1.0591810    -0.9792530
units angstrom
no_reorient  #important for SAPT in psi4, default
symmetry c1  #important for SAPT in psi4, default
}

set PROPERTIES_ORIGIN ["COM"]
properties('MP2/aug-cc-pvtz', properties = ['dipole'])
--------------------------------------------------------------------------

    Molecular point group: c1
  Charge       = 0
  Multiplicity = 1
  Basis Set: AUG-CC-PVTZ
    Blend: AUG-CC-PVTZ
  Basis Set: (AUG-CC-PVTZ AUX)
    Blend: AUG-CC-PVTZ-JKFIT

    Orbital Energies [Eh]
    ---------------------

    Doubly Occupied:

       1A    -20.556676     2A    -11.286796     3A    -11.225540
       4A    -11.223198     5A    -11.222990     6A    -11.222963
       7A    -11.222541     8A    -11.221079     9A    -11.212741
      10A     -1.360309    11A     -1.097655    12A     -1.061491
      13A     -1.015756    14A     -0.961964    15A     -0.877737
      16A     -0.829770    17A     -0.752495    18A     -0.747744
      19A     -0.695892    20A     -0.635856    21A     -0.626703
      22A     -0.615577    23A     -0.588043    24A     -0.582456
      25A     -0.570248    26A     -0.539244    27A     -0.519118
      28A     -0.517295    29A     -0.499803    30A     -0.489110
      31A     -0.478491    32A     -0.464802    33A     -0.454192
      34A     -0.418735    35A     -0.297184

  @DF-RHF Final Energy:  -386.05421730337389

   => Energetics <=

    Nuclear Repulsion Energy =            418.6497885685721485
    One-Electron Energy =               -1353.2236256255989701
    Two-Electron Energy =                 548.5196197536529326
    Total Energy =                       -386.0542173033738891
  Basis Set: (AUG-CC-PVTZ AUX)
    Blend: AUG-CC-PVTZ-RI
    Molecular point group: c1

    Geometry (in Angstrom), charge = 0, multiplicity = 1:

       Center              X                  Y                   Z               Mass
    ------------   -----------------  -----------------  -----------------  -----------------
         O           -2.790177988613    -0.916191672352    -0.739132630149    15.994914619570
         C           -2.775239988613    -0.044578672352     0.391787369851    12.000000000000
         C           -1.349950988613     0.192985327648     0.777753369851    12.000000000000
         C            3.582021011387    -0.230069672352     0.227804369851    12.000000000000
         C           -3.427902188613     1.280958127648     0.012008669851    12.000000000000
         C           -0.285570988613    -0.295410672352     0.118047369851    12.000000000000
         C            2.160674011387    -0.513945672352    -0.141989630149    12.000000000000
         C            1.086925011387    -0.027453672352     0.507757369851    12.000000000000
         C            4.319096011387     0.533603327648    -0.874779630149    12.000000000000
         H           -3.253750488613    -0.571247872352     1.235782969851     1.007825032230
         H           -1.202382988613     0.825267327648     1.654380369851     1.007825032230
         H            3.607806011387     0.345348327648     1.160395369851     1.007825032230
         H            4.108900011387    -1.172931672352     0.424470369851     1.007825032230
         H           -2.986650988613     1.740545327648    -0.781931630149     1.007825032230
         H           -4.533057988613     1.094892327648    -0.180867630149     1.007825032230
         H           -3.448913988613     1.953416327648     0.923262369851     1.007825032230
         H           -0.452349988613    -0.928011672352    -0.750817630149     1.007825032230
         H            2.000996011387    -1.144830672352    -1.018853630149     1.007825032230
         H            1.241794011387     0.605852327648     1.383688369851     1.007825032230
         H            4.308938011387    -0.029895672352    -1.812189630149     1.007825032230
         H            5.362592011387     0.714333327648    -0.601093630149     1.007825032230
         H            3.838933011387     1.498268327648    -1.057789630149     1.007825032230
         H           -3.722923988613    -1.059950672352    -0.973651630149     1.007825032230

  Basis Set: AUG-CC-PVTZ
    Blend: AUG-CC-PVTZ
  Basis Set: (AUG-CC-PVTZ AUX)
    Blend: AUG-CC-PVTZ-JKFIT
	 Reference Energy          =    -386.0542173033738891 [Eh]
	 Singles Energy            =      -0.0000000000000000 [Eh]
	 Same-Spin Energy          =      -0.4004597510915971 [Eh]
	 Opposite-Spin Energy      =      -1.3786819955536131 [Eh]
	 Correlation Energy        =      -1.7791417466452102 [Eh]
	 Total Energy              =    -387.8333590500191121 [Eh]

	 ================> DF-SCS-MP2 Energies <==================
	-----------------------------------------------------------
	 SCS Same-Spin Scale       =       0.3333333333333333 [-]
	 SCS Opposite-Spin Scale   =       1.2000000000000000 [-]
	 SCS Same-Spin Energy      =      -0.1334865836971990 [Eh]
	 SCS Opposite-Spin Energy  =      -1.6544183946643358 [Eh]
	 SCS Correlation Energy    =      -1.7879049783615348 [Eh]
	 SCS Total Energy          =    -387.8421222817354419 [Eh]
	-----------------------------------------------------------

  Dipole Moment: [D]
     X:    -1.1527      Y:     0.6479      Z:     0.5793     Total:     1.4436

*** Psi4 exiting successfully. Buy a developer a beer!
