                               Psi4 1.4a3.dev225

  ==> Input File <==

--------------------------------------------------------------------------
#psi4
#
memory 32 gb

molecule  {
0 1
  O       -2.7624640     1.3159430     0.2248240
  C       -2.8209640    -0.0168770    -0.2887760
  C       -1.4198970    -0.4865040    -0.5315690
  C        3.5469730    -0.0618850    -0.4287090
  C       -3.5485140    -0.9406360     0.6857820
  C       -0.3124200     0.2274490    -0.2577540
  C        2.1505970     0.4383770    -0.2221580
  C        1.0342680    -0.2689350    -0.4861660
  C        4.3265940    -0.1505530     0.8872490
  H       -3.3622360    -0.0200820    -1.2509840
  H       -1.3293920    -1.4912640    -0.9473420
  H        3.5136740    -1.0471260    -0.9088000
  H        4.0812660     0.6062640    -1.1173180
  H       -3.0279280    -0.9272120     1.6463760
  H       -4.5820380    -0.6089360     0.8383050
  H       -3.5770120    -1.9680220     0.3103630
  H       -0.4219900     1.2292040     0.1523950
  H        2.0504598     1.4250481     0.1854550
  H        1.1311650    -1.2755230    -0.8987060
  H        4.3778580     0.8269450     1.3761990
  H        5.3504770    -0.4972710     0.7173650
  H        3.8373540    -0.8453320     1.5752720
  H       -3.6799020     1.6047450     0.3678300
units angstrom
no_reorient  #important for SAPT in psi4, default
symmetry c1  #important for SAPT in psi4, default
}

set PROPERTIES_ORIGIN ["COM"]
properties('MP2/aug-cc-pvtz', properties = ['dipole'])
--------------------------------------------------------------------------

    Molecular point group: c1
  Charge       = 0
  Multiplicity = 1
  Basis Set: AUG-CC-PVTZ
    Blend: AUG-CC-PVTZ
  Basis Set: (AUG-CC-PVTZ AUX)
    Blend: AUG-CC-PVTZ-JKFIT

    Orbital Energies [Eh]
    ---------------------

    Doubly Occupied:

       1A    -20.558826     2A    -11.287035     3A    -11.224770
       4A    -11.224123     5A    -11.223549     6A    -11.222956
       7A    -11.222415     8A    -11.220965     9A    -11.213201
      10A     -1.360147    11A     -1.097346    12A     -1.060772
      13A     -1.015597    14A     -0.962309    15A     -0.876561
      16A     -0.828381    17A     -0.754878    18A     -0.747947
      19A     -0.695185    20A     -0.637207    21A     -0.627264
      22A     -0.616687    23A     -0.590100    24A     -0.582934
      25A     -0.546749    26A     -0.543928    27A     -0.527846
      28A     -0.518392    29A     -0.500817    30A     -0.492476
      31A     -0.479880    32A     -0.467987    33A     -0.452832
      34A     -0.417829    35A     -0.297250

  @DF-RHF Final Energy:  -386.06246758353666

   => Energetics <=

    Nuclear Repulsion Energy =            417.8401552882862120
    One-Electron Energy =               -1351.6109657373463051
    Two-Electron Energy =                 547.7083428655233774
    Total Energy =                       -386.0624675835366588
  Basis Set: (AUG-CC-PVTZ AUX)
    Blend: AUG-CC-PVTZ-RI
    Molecular point group: c1

    Geometry (in Angstrom), charge = 0, multiplicity = 1:

       Center              X                  Y                   Z               Mass
    ------------   -----------------  -----------------  -----------------  -----------------
         O           -2.728287215399     1.292774268945     0.241054575898    15.994914619570
         C           -2.786787215399    -0.040045731055    -0.272545424102    12.000000000000
         C           -1.385720215399    -0.509672731055    -0.515338424102    12.000000000000
         C            3.581149784601    -0.085053731055    -0.412478424102    12.000000000000
         C           -3.514337215399    -0.963804731055     0.702012575898    12.000000000000
         C           -0.278243215399     0.204280268945    -0.241523424102    12.000000000000
         C            2.184773784601     0.415208268945    -0.205927424102    12.000000000000
         C            1.068444784601    -0.292103731055    -0.469935424102    12.000000000000
         C            4.360770784601    -0.173721731055     0.903479575898    12.000000000000
         H           -3.328059215399    -0.043250731055    -1.234753424102     1.007825032230
         H           -1.295215215399    -1.514432731055    -0.931111424102     1.007825032230
         H            3.547850784601    -1.070294731055    -0.892569424102     1.007825032230
         H            4.115442784601     0.583095268945    -1.101087424102     1.007825032230
         H           -2.993751215399    -0.950380731055     1.662606575898     1.007825032230
         H           -4.547861215399    -0.632104731055     0.854535575898     1.007825032230
         H           -3.542835215399    -1.991190731055     0.326593575898     1.007825032230
         H           -0.387813215399     1.206035268945     0.168625575898     1.007825032230
         H            2.084636584601     1.401879368945     0.201685575898     1.007825032230
         H            1.165341784601    -1.298691731055    -0.882475424102     1.007825032230
         H            4.412034784601     0.803776268945     1.392429575898     1.007825032230
         H            5.384653784601    -0.520439731055     0.733595575898     1.007825032230
         H            3.871530784601    -0.868500731055     1.591502575898     1.007825032230
         H           -3.645725215399     1.581576268945     0.384060575898     1.007825032230

  Basis Set: AUG-CC-PVTZ
    Blend: AUG-CC-PVTZ
  Basis Set: (AUG-CC-PVTZ AUX)
    Blend: AUG-CC-PVTZ-JKFIT
	 Reference Energy          =    -386.0624675835366588 [Eh]
	 Singles Energy            =      -0.0000000000000000 [Eh]
	 Same-Spin Energy          =      -0.4002320480961218 [Eh]
	 Opposite-Spin Energy      =      -1.3782640562757948 [Eh]
	 Correlation Energy        =      -1.7784961043719165 [Eh]
	 Total Energy              =    -387.8409636879085838 [Eh]

	 ================> DF-SCS-MP2 Energies <==================
	-----------------------------------------------------------
	 SCS Same-Spin Scale       =       0.3333333333333333 [-]
	 SCS Opposite-Spin Scale   =       1.2000000000000000 [-]
	 SCS Same-Spin Energy      =      -0.1334106826987073 [Eh]
	 SCS Opposite-Spin Energy  =      -1.6539168675309537 [Eh]
	 SCS Correlation Energy    =      -1.7873275502296608 [Eh]
	 SCS Total Energy          =    -387.8497951337662926 [Eh]
	-----------------------------------------------------------

  Dipole Moment: [D]
     X:    -1.2026      Y:    -0.7857      Z:    -0.1401     Total:     1.4434

*** Psi4 exiting successfully. Buy a developer a beer!
