                               Psi4 1.3.2 release

  ==> Input File <==

--------------------------------------------------------------------------
#psi4
#
memory 32 gb

molecule  {
0 1
  O       -2.7848290    -0.9154220    -0.7447340
  C       -2.7698910    -0.0438090     0.3861860
  C       -1.3446020     0.1937550     0.7721520
  C        3.5873700    -0.2293000     0.2222030
  C       -3.4755630     1.2700040     0.0649850
  C       -0.2802220    -0.2946410     0.1124460
  C        2.1660230    -0.5131760    -0.1475910
  C        1.0922740    -0.0266840     0.5021560
  C        4.3074999     0.4741872    -0.9304835
  H       -3.2865450    -0.5271910     1.2335890
  H       -1.1970340     0.8260370     1.6487790
  H        3.5832567     0.3040176     1.1798314
  H        4.1142490    -1.1721620     0.4188690
  H       -2.9813020     1.7413150    -0.7875330
  H       -4.5277090     1.0956620    -0.1864690
  H       -3.4435650     1.9541860     0.9176610
  H       -0.4470010    -0.9272420    -0.7564190
  H        2.0063450    -1.1440610    -1.0244550
  H        1.2471430     0.6066220     1.3780870
  H        4.3142870    -0.0291260    -1.8177910
  H        5.3679410     0.7151030    -0.6066950
  H        3.8442820     1.4990380    -1.0633910
  H       -3.7175750    -1.0591810    -0.9792530
units angstrom
no_reorient  #important for SAPT in psi4, default
symmetry c1  #important for SAPT in psi4, default
}

set PROPERTIES_ORIGIN ["COM"]
properties('MP2/aug-cc-pvtz', properties = ['dipole'])
--------------------------------------------------------------------------

    Molecular point group: c1
  Charge       = 0
  Multiplicity = 1
  Basis Set: AUG-CC-PVTZ
    Blend: AUG-CC-PVTZ
  Basis Set: (AUG-CC-PVTZ AUX)
    Blend: AUG-CC-PVTZ-JKFIT

    Orbital Energies [Eh]
    ---------------------

    Doubly Occupied:

       1A    -20.558528     2A    -11.286197     3A    -11.225447
       4A    -11.224095     5A    -11.223225     6A    -11.222402
       7A    -11.221377     8A    -11.220407     9A    -11.214993
      10A     -1.360556    11A     -1.097985    12A     -1.061708
      13A     -1.016147    14A     -0.962271    15A     -0.877342
      16A     -0.830045    17A     -0.753199    18A     -0.747746
      19A     -0.695000    20A     -0.637844    21A     -0.626129
      22A     -0.617513    23A     -0.593002    24A     -0.581465
      25A     -0.548188    26A     -0.543987    27A     -0.532405
      28A     -0.518796    29A     -0.499142    30A     -0.487862
      31A     -0.481620    32A     -0.463202    33A     -0.452505
      34A     -0.417479    35A     -0.296742

  @DF-RHF Final Energy:  -386.05410175502158

   => Energetics <=

    Nuclear Repulsion Energy =            418.4186584905810946
    One-Electron Energy =               -1352.7524107841327350
    Two-Electron Energy =                 548.2796505385300634
    Total Energy =                       -386.0541017550216338
  Basis Set: (AUG-CC-PVTZ AUX)
    Blend: AUG-CC-PVTZ-RI
    Molecular point group: c1

    Geometry (in Angstrom), charge = 0, multiplicity = 1:

       Center              X                  Y                   Z               Mass
    ------------   -----------------  -----------------  -----------------  -----------------
         O           -2.782977347234    -0.909358297239    -0.740166453824    15.994914619570
         C           -2.768039347234    -0.037745297239     0.390753546176    12.000000000000
         C           -1.342750347234     0.199818702761     0.776719546176    12.000000000000
         C            3.589221652766    -0.223236297239     0.226770546176    12.000000000000
         C           -3.473711347234     1.276067702761     0.069552546176    12.000000000000
         C           -0.278370347234    -0.288577297239     0.117013546176    12.000000000000
         C            2.167874652766    -0.507112297239    -0.143023453824    12.000000000000
         C            1.094125652766    -0.020620297239     0.506723546176    12.000000000000
         C            4.309351552766     0.480250902761    -0.925915953824    12.000000000000
         H           -3.284693347234    -0.521127297239     1.238156546176     1.007825032230
         H           -1.195182347234     0.832100702761     1.653346546176     1.007825032230
         H            3.585108352766     0.310081302761     1.184398946176     1.007825032230
         H            4.116100652766    -1.166098297239     0.423436546176     1.007825032230
         H           -2.979450347234     1.747378702761    -0.782965453824     1.007825032230
         H           -4.525857347234     1.101725702761    -0.181901453824     1.007825032230
         H           -3.441713347234     1.960249702761     0.922228546176     1.007825032230
         H           -0.445149347234    -0.921178297239    -0.751851453824     1.007825032230
         H            2.008196652766    -1.137997297239    -1.019887453824     1.007825032230
         H            1.248994652766     0.612685702761     1.382654546176     1.007825032230
         H            4.316138652766    -0.023062297239    -1.813223453824     1.007825032230
         H            5.369792652766     0.721166702761    -0.602127453824     1.007825032230
         H            3.846133652766     1.505101702761    -1.058823453824     1.007825032230
         H           -3.715723347234    -1.053117297239    -0.974685453824     1.007825032230

  Basis Set: AUG-CC-PVTZ
    Blend: AUG-CC-PVTZ
  Basis Set: (AUG-CC-PVTZ AUX)
    Blend: AUG-CC-PVTZ-JKFIT
	 Reference Energy          =    -386.0541017550215770 [Eh]
	 Singles Energy            =      -0.0000000000000000 [Eh]
	 Same-Spin Energy          =      -0.4005630587717640 [Eh]
	 Opposite-Spin Energy      =      -1.3787282683238518 [Eh]
	 Correlation Energy        =      -1.7792913270956157 [Eh]
	 Total Energy              =    -387.8333930821171975 [Eh]

	 ================> DF-SCS-MP2 Energies <==================
	-----------------------------------------------------------
	 SCS Same-Spin Scale       =       0.3333333333333333 [-]
	 SCS Opposite-Spin Scale   =       1.2000000000000000 [-]
	 SCS Same-Spin Energy      =      -0.1335210195905880 [Eh]
	 SCS Opposite-Spin Energy  =      -1.6544739219886220 [Eh]
	 SCS Correlation Energy    =      -1.7879949415792100 [Eh]
	 SCS Total Energy          =    -387.8420966966007768 [Eh]
	-----------------------------------------------------------

  Dipole Moment: [D]
     X:    -1.1344      Y:     0.6060      Z:     0.5562     Total:     1.4013

*** Psi4 exiting successfully. Buy a developer a beer!
