                               Psi4 1.3.2 release

  ==> Input File <==

--------------------------------------------------------------------------
#psi4
#
memory 32 gb

molecule  {
0 1
  O       -2.7848290    -0.9154220    -0.7447340
  C       -2.7698910    -0.0438090     0.3861860
  C       -1.3446020     0.1937550     0.7721520
  C        3.5873700    -0.2293000     0.2222030
  C       -3.4755630     1.2700040     0.0649850
  C       -0.2802220    -0.2946410     0.1124460
  C        2.1660230    -0.5131760    -0.1475910
  C        1.0922740    -0.0266840     0.5021560
  C        4.3244450     0.5343730    -0.8803810
  H       -3.2865450    -0.5271910     1.2335890
  H       -1.1970340     0.8260370     1.6487790
  H        3.6131550     0.3461180     1.1547940
  H        4.1142490    -1.1721620     0.4188690
  H       -2.9813020     1.7413150    -0.7875330
  H       -4.5277090     1.0956620    -0.1864690
  H       -3.4435650     1.9541860     0.9176610
  H       -0.4470010    -0.9272420    -0.7564190
  H        2.0063450    -1.1440610    -1.0244550
  H        1.2613260     0.6646207     1.4583054
  H        4.3142870    -0.0291260    -1.8177910
  H        5.3679410     0.7151030    -0.6066950
  H        3.8442820     1.4990380    -1.0633910
  H       -3.7175750    -1.0591810    -0.9792530
units angstrom
no_reorient  #important for SAPT in psi4, default
symmetry c1  #important for SAPT in psi4, default
}

set PROPERTIES_ORIGIN ["COM"]
properties('MP2/aug-cc-pvtz', properties = ['dipole'])
--------------------------------------------------------------------------

    Molecular point group: c1
  Charge       = 0
  Multiplicity = 1
  Basis Set: AUG-CC-PVTZ
    Blend: AUG-CC-PVTZ
  Basis Set: (AUG-CC-PVTZ AUX)
    Blend: AUG-CC-PVTZ-JKFIT

    Orbital Energies [Eh]
    ---------------------

    Doubly Occupied:

       1A    -20.559049     2A    -11.286746     3A    -11.235101
       4A    -11.226571     5A    -11.224359     6A    -11.223166
       7A    -11.222622     8A    -11.220855     9A    -11.212832
      10A     -1.361099    11A     -1.096694    12A     -1.061560
      13A     -1.015627    14A     -0.962132    15A     -0.876599
      16A     -0.828297    17A     -0.750717    18A     -0.741285
      19A     -0.693432    20A     -0.636389    21A     -0.627628
      22A     -0.617025    23A     -0.588256    24A     -0.580825
      25A     -0.546671    26A     -0.542991    27A     -0.523537
      28A     -0.519163    29A     -0.499761    30A     -0.489848
      31A     -0.478709    32A     -0.466234    33A     -0.453193
      34A     -0.419041    35A     -0.298051

  @DF-RHF Final Energy:  -386.05540815289197

   => Energetics <=

    Nuclear Repulsion Energy =            417.8319188191939588
    One-Electron Energy =               -1351.6025230872930933
    Two-Electron Energy =                 547.7151961152070498
    Total Energy =                       -386.0554081528920278
  Basis Set: (AUG-CC-PVTZ AUX)
    Blend: AUG-CC-PVTZ-RI
    Molecular point group: c1

    Geometry (in Angstrom), charge = 0, multiplicity = 1:

       Center              X                  Y                   Z               Mass
    ------------   -----------------  -----------------  -----------------  -----------------
         O           -2.784942126494    -0.915885520349    -0.745375173378    15.994914619570
         C           -2.770004126494    -0.044272520349     0.385544826622    12.000000000000
         C           -1.344715126494     0.193291479651     0.771510826622    12.000000000000
         C            3.587256873506    -0.229763520349     0.221561826622    12.000000000000
         C           -3.475676126494     1.269540479651     0.064343826622    12.000000000000
         C           -0.280335126494    -0.295104520349     0.111804826622    12.000000000000
         C            2.165909873506    -0.513639520349    -0.148232173378    12.000000000000
         C            1.092160873506    -0.027147520349     0.501514826622    12.000000000000
         C            4.324331873506     0.533909479651    -0.881022173378    12.000000000000
         H           -3.286658126494    -0.527654520349     1.232947826622     1.007825032230
         H           -1.197147126494     0.825573479651     1.648137826622     1.007825032230
         H            3.613041873506     0.345654479651     1.154152826622     1.007825032230
         H            4.114135873506    -1.172625520349     0.418227826622     1.007825032230
         H           -2.981415126494     1.740851479651    -0.788174173378     1.007825032230
         H           -4.527822126494     1.095198479651    -0.187110173378     1.007825032230
         H           -3.443678126494     1.953722479651     0.917019826622     1.007825032230
         H           -0.447114126494    -0.927705520349    -0.757060173378     1.007825032230
         H            2.006231873506    -1.144524520349    -1.025096173378     1.007825032230
         H            1.261212873506     0.664157179651     1.457664226622     1.007825032230
         H            4.314173873506    -0.029589520349    -1.818432173378     1.007825032230
         H            5.367827873506     0.714639479651    -0.607336173378     1.007825032230
         H            3.844168873506     1.498574479651    -1.064032173378     1.007825032230
         H           -3.717688126494    -1.059644520349    -0.979894173378     1.007825032230

  Basis Set: AUG-CC-PVTZ
    Blend: AUG-CC-PVTZ
  Basis Set: (AUG-CC-PVTZ AUX)
    Blend: AUG-CC-PVTZ-JKFIT
	 Reference Energy          =    -386.0554081528919710 [Eh]
	 Singles Energy            =      -0.0000000000000000 [Eh]
	 Same-Spin Energy          =      -0.4006312818660372 [Eh]
	 Opposite-Spin Energy      =      -1.3792406964312787 [Eh]
	 Correlation Energy        =      -1.7798719782973160 [Eh]
	 Total Energy              =    -387.8352801311892790 [Eh]

	 ================> DF-SCS-MP2 Energies <==================
	-----------------------------------------------------------
	 SCS Same-Spin Scale       =       0.3333333333333333 [-]
	 SCS Opposite-Spin Scale   =       1.2000000000000000 [-]
	 SCS Same-Spin Energy      =      -0.1335437606220124 [Eh]
	 SCS Opposite-Spin Energy  =      -1.6550888357175344 [Eh]
	 SCS Correlation Energy    =      -1.7886325963395469 [Eh]
	 SCS Total Energy          =    -387.8440407492315103 [Eh]
	-----------------------------------------------------------

  Dipole Moment: [D]
     X:    -1.1923      Y:     0.6129      Z:     0.5342     Total:     1.4431

*** Psi4 exiting successfully. Buy a developer a beer!
