                               Psi4 1.3.2 release

  ==> Input File <==

--------------------------------------------------------------------------
#psi4
#
memory 32 gb

molecule  {
0 1
  O       -2.7599216    -0.9161072    -0.7442603
  C       -2.7698910    -0.0438090     0.3861860
  C       -1.3369575     0.1783108     0.7525457
  C        3.5873700    -0.2293000     0.2222030
  C       -3.4755630     1.2700040     0.0649850
  C       -0.2802220    -0.2946410     0.1124460
  C        2.1660230    -0.5131760    -0.1475910
  C        1.0922740    -0.0266840     0.5021560
  C        4.3244450     0.5343730    -0.8803810
  H       -3.2865450    -0.5271910     1.2335890
  H       -1.1970340     0.8260370     1.6487790
  H        3.6131550     0.3461180     1.1547940
  H        4.1142490    -1.1721620     0.4188690
  H       -2.9813020     1.7413150    -0.7875330
  H       -4.5277090     1.0956620    -0.1864690
  H       -3.4435650     1.9541860     0.9176610
  H       -0.4470010    -0.9272420    -0.7564190
  H        2.0063450    -1.1440610    -1.0244550
  H        1.2471430     0.6066220     1.3780870
  H        4.3142870    -0.0291260    -1.8177910
  H        5.3679410     0.7151030    -0.6066950
  H        3.8442820     1.4990380    -1.0633910
  H       -3.7175750    -1.0591810    -0.9792530
units angstrom
no_reorient  #important for SAPT in psi4, default
symmetry c1  #important for SAPT in psi4, default
}

set PROPERTIES_ORIGIN ["COM"]
properties('MP2/aug-cc-pvtz', properties = ['dipole'])
--------------------------------------------------------------------------

    Molecular point group: c1
  Charge       = 0
  Multiplicity = 1
  Basis Set: AUG-CC-PVTZ
    Blend: AUG-CC-PVTZ
  Basis Set: (AUG-CC-PVTZ AUX)
    Blend: AUG-CC-PVTZ-JKFIT

    Orbital Energies [Eh]
    ---------------------

    Doubly Occupied:

       1A    -20.561295     2A    -11.286382     3A    -11.225706
       4A    -11.223124     5A    -11.222879     6A    -11.221451
       7A    -11.221211     8A    -11.218373     9A    -11.212740
      10A     -1.357206    11A     -1.098568    12A     -1.061251
      13A     -1.016167    14A     -0.964190    15A     -0.876095
      16A     -0.829302    17A     -0.752644    18A     -0.741254
      19A     -0.693915    20A     -0.636529    21A     -0.628737
      22A     -0.616897    23A     -0.589702    24A     -0.581371
      25A     -0.546038    26A     -0.543308    27A     -0.526912
      28A     -0.518271    29A     -0.497121    30A     -0.493814
      31A     -0.478946    32A     -0.466494    33A     -0.452996
      34A     -0.420175    35A     -0.300061

  @DF-RHF Final Energy:  -386.05970722490770

   => Energetics <=

    Nuclear Repulsion Energy =            418.6906481514420193
    One-Electron Energy =               -1353.3384666878944245
    Two-Electron Energy =                 548.5881113115447079
    Total Energy =                       -386.0597072249076973
  Basis Set: (AUG-CC-PVTZ AUX)
    Blend: AUG-CC-PVTZ-RI
    Molecular point group: c1

    Geometry (in Angstrom), charge = 0, multiplicity = 1:

       Center              X                  Y                   Z               Mass
    ------------   -----------------  -----------------  -----------------  -----------------
         O           -2.763808040577    -0.914550628063    -0.742454732731    15.994914619570
         C           -2.773777440577    -0.042252428063     0.387991567269    12.000000000000
         C           -1.340843940577     0.179867371937     0.754351267269    12.000000000000
         C            3.583483559423    -0.227743428063     0.224008567269    12.000000000000
         C           -3.479449440577     1.271560571937     0.066790567269    12.000000000000
         C           -0.284108440577    -0.293084428063     0.114251567269    12.000000000000
         C            2.162136559423    -0.511619428063    -0.145785432731    12.000000000000
         C            1.088387559423    -0.025127428063     0.503961567269    12.000000000000
         C            4.320558559423     0.535929571937    -0.878575432731    12.000000000000
         H           -3.290431440577    -0.525634428063     1.235394567269     1.007825032230
         H           -1.200920440577     0.827593571937     1.650584567269     1.007825032230
         H            3.609268559423     0.347674571937     1.156599567269     1.007825032230
         H            4.110362559423    -1.170605428063     0.420674567269     1.007825032230
         H           -2.985188440577     1.742871571937    -0.785727432731     1.007825032230
         H           -4.531595440577     1.097218571937    -0.184663432731     1.007825032230
         H           -3.447451440577     1.955742571937     0.919466567269     1.007825032230
         H           -0.450887440577    -0.925685428063    -0.754613432731     1.007825032230
         H            2.002458559423    -1.142504428063    -1.022649432731     1.007825032230
         H            1.243256559423     0.608178571937     1.379892567269     1.007825032230
         H            4.310400559423    -0.027569428063    -1.815985432731     1.007825032230
         H            5.364054559423     0.716659571937    -0.604889432731     1.007825032230
         H            3.840395559423     1.500594571937    -1.061585432731     1.007825032230
         H           -3.721461440577    -1.057624428063    -0.977447432731     1.007825032230

  Basis Set: AUG-CC-PVTZ
    Blend: AUG-CC-PVTZ
  Basis Set: (AUG-CC-PVTZ AUX)
    Blend: AUG-CC-PVTZ-JKFIT
	 Reference Energy          =    -386.0597072249076973 [Eh]
	 Singles Energy            =      -0.0000000000000000 [Eh]
	 Same-Spin Energy          =      -0.4005854109367263 [Eh]
	 Opposite-Spin Energy      =      -1.3789077448694878 [Eh]
	 Correlation Energy        =      -1.7794931558062141 [Eh]
	 Total Energy              =    -387.8392003807139190 [Eh]

	 ================> DF-SCS-MP2 Energies <==================
	-----------------------------------------------------------
	 SCS Same-Spin Scale       =       0.3333333333333333 [-]
	 SCS Opposite-Spin Scale   =       1.2000000000000000 [-]
	 SCS Same-Spin Energy      =      -0.1335284703122421 [Eh]
	 SCS Opposite-Spin Energy  =      -1.6546892938433853 [Eh]
	 SCS Correlation Energy    =      -1.7882177641556274 [Eh]
	 SCS Total Energy          =    -387.8479249890633014 [Eh]
	-----------------------------------------------------------

  Dipole Moment: [D]
     X:    -1.2150      Y:     0.6370      Z:     0.5539     Total:     1.4795

*** Psi4 exiting successfully. Buy a developer a beer!
