                               Psi4 1.3.2 release

  ==> Input File <==

--------------------------------------------------------------------------
#psi4
#
memory 32 gb

molecule  {
0 1
  O       -2.7848290    -0.9154220    -0.7447340
  C       -2.7698910    -0.0438090     0.3861860
  C       -1.3446020     0.1937550     0.7721520
  C        3.5873700    -0.2293000     0.2222030
  C       -3.4755630     1.2700040     0.0649850
  C       -0.2802220    -0.2946410     0.1124460
  C        2.1660230    -0.5131760    -0.1475910
  C        1.0922740    -0.0266840     0.5021560
  C        4.3217599     0.5244830    -0.8889451
  H       -3.2865450    -0.5271910     1.2335890
  H       -1.1970340     0.8260370     1.6487790
  H        3.6081746     0.3392077     1.1591463
  H        4.1142490    -1.1721620     0.4188690
  H       -2.9813020     1.7413150    -0.7875330
  H       -4.5277090     1.0956620    -0.1864690
  H       -3.4435650     1.9541860     0.9176610
  H       -0.4470010    -0.9272420    -0.7564190
  H        2.0063450    -1.1440610    -1.0244550
  H        1.2471430     0.6066220     1.3780870
  H        4.3142870    -0.0291260    -1.8177910
  H        5.3679410     0.7151030    -0.6066950
  H        3.8442820     1.4990380    -1.0633910
  H       -3.7175750    -1.0591810    -0.9792530
units angstrom
no_reorient  #important for SAPT in psi4, default
symmetry c1  #important for SAPT in psi4, default
}

set PROPERTIES_ORIGIN ["COM"]
properties('MP2/aug-cc-pvtz', properties = ['dipole'])
--------------------------------------------------------------------------

    Molecular point group: c1
  Charge       = 0
  Multiplicity = 1
  Basis Set: AUG-CC-PVTZ
    Blend: AUG-CC-PVTZ
  Basis Set: (AUG-CC-PVTZ AUX)
    Blend: AUG-CC-PVTZ-JKFIT

    Orbital Energies [Eh]
    ---------------------

    Doubly Occupied:

       1A    -20.558693     2A    -11.286416     3A    -11.225821
       4A    -11.223581     5A    -11.223291     6A    -11.222898
       7A    -11.221697     8A    -11.220590     9A    -11.213055
      10A     -1.360729    11A     -1.097818    12A     -1.061346
      13A     -1.016089    14A     -0.962384    15A     -0.876686
      16A     -0.828761    17A     -0.752531    18A     -0.747978
      19A     -0.695166    20A     -0.637389    21A     -0.627186
      22A     -0.617341    23A     -0.590243    24A     -0.582678
      25A     -0.546649    26A     -0.543611    27A     -0.527977
      28A     -0.518674    29A     -0.500012    30A     -0.492037
      31A     -0.480733    32A     -0.467346    33A     -0.452802
      34A     -0.418138    35A     -0.297340

  @DF-RHF Final Energy:  -386.06235047842699

   => Energetics <=

    Nuclear Repulsion Energy =            418.2934109120228072
    One-Electron Energy =               -1352.5201519273196027
    Two-Electron Energy =                 548.1643905368697460
    Total Energy =                       -386.0623504784269926
  Basis Set: (AUG-CC-PVTZ AUX)
    Blend: AUG-CC-PVTZ-RI
    Molecular point group: c1

    Geometry (in Angstrom), charge = 0, multiplicity = 1:

       Center              X                  Y                   Z               Mass
    ------------   -----------------  -----------------  -----------------  -----------------
         O           -2.784533460915    -0.914425644088    -0.743953899717    15.994914619570
         C           -2.769595460915    -0.042812644088     0.386966100283    12.000000000000
         C           -1.344306460915     0.194751355912     0.772932100283    12.000000000000
         C            3.587665539085    -0.228303644088     0.222983100283    12.000000000000
         C           -3.475267460915     1.271000355912     0.065765100283    12.000000000000
         C           -0.279926460915    -0.293644644088     0.113226100283    12.000000000000
         C            2.166318539085    -0.512179644088    -0.146810899717    12.000000000000
         C            1.092569539085    -0.025687644088     0.502936100283    12.000000000000
         C            4.322055439085     0.525479355912    -0.888164999717    12.000000000000
         H           -3.286249460915    -0.526194644088     1.234369100283     1.007825032230
         H           -1.196738460915     0.827033355912     1.649559100283     1.007825032230
         H            3.608470139085     0.340204055912     1.159926400283     1.007825032230
         H            4.114544539085    -1.171165644088     0.419649100283     1.007825032230
         H           -2.981006460915     1.742311355912    -0.786752899717     1.007825032230
         H           -4.527413460915     1.096658355912    -0.185688899717     1.007825032230
         H           -3.443269460915     1.955182355912     0.918441100283     1.007825032230
         H           -0.446705460915    -0.926245644088    -0.755638899717     1.007825032230
         H            2.006640539085    -1.143064644088    -1.023674899717     1.007825032230
         H            1.247438539085     0.607618355912     1.378867100283     1.007825032230
         H            4.314582539085    -0.028129644088    -1.817010899717     1.007825032230
         H            5.368236539085     0.716099355912    -0.605914899717     1.007825032230
         H            3.844577539085     1.500034355912    -1.062610899717     1.007825032230
         H           -3.717279460915    -1.058184644088    -0.978472899717     1.007825032230

  Basis Set: AUG-CC-PVTZ
    Blend: AUG-CC-PVTZ
  Basis Set: (AUG-CC-PVTZ AUX)
    Blend: AUG-CC-PVTZ-JKFIT
	 Reference Energy          =    -386.0623504784269926 [Eh]
	 Singles Energy            =      -0.0000000000000000 [Eh]
	 Same-Spin Energy          =      -0.4003649036157718 [Eh]
	 Opposite-Spin Energy      =      -1.3783236902093319 [Eh]
	 Correlation Energy        =      -1.7786885938251036 [Eh]
	 Total Energy              =    -387.8410390722521015 [Eh]

	 ================> DF-SCS-MP2 Energies <==================
	-----------------------------------------------------------
	 SCS Same-Spin Scale       =       0.3333333333333333 [-]
	 SCS Opposite-Spin Scale   =       1.2000000000000000 [-]
	 SCS Same-Spin Energy      =      -0.1334549678719239 [Eh]
	 SCS Opposite-Spin Energy  =      -1.6539884282511983 [Eh]
	 SCS Correlation Energy    =      -1.7874433961231222 [Eh]
	 SCS Total Energy          =    -387.8497938745501301 [Eh]
	-----------------------------------------------------------

  Dipole Moment: [D]
     X:    -1.1547      Y:     0.6361      Z:     0.5720     Total:     1.4370

*** Psi4 exiting successfully. Buy a developer a beer!
