                               Psi4 1.3.2 release

  ==> Input File <==

--------------------------------------------------------------------------
#psi4
#
memory 32 gb

molecule  {
0 1
  O       -2.7848290    -0.9154220    -0.7447340
  C       -2.7698910    -0.0438090     0.3861860
  C       -1.3446020     0.1937550     0.7721520
  C        3.5873700    -0.2293000     0.2222030
  C       -3.4755630     1.2700040     0.0649850
  C       -0.2802220    -0.2946410     0.1124460
  C        2.1743282    -0.5259175    -0.1688103
  C        1.0922740    -0.0266840     0.5021560
  C        4.3244450     0.5343730    -0.8803810
  H       -3.2865450    -0.5271910     1.2335890
  H       -1.1970340     0.8260370     1.6487790
  H        3.6322650     0.3463413     1.1539316
  H        4.1142490    -1.1721620     0.4188690
  H       -2.9813020     1.7413150    -0.7875330
  H       -4.5277090     1.0956620    -0.1864690
  H       -3.4435650     1.9541860     0.9176610
  H       -0.4470010    -0.9272420    -0.7564190
  H        2.0063450    -1.1440610    -1.0244550
  H        1.2471430     0.6066220     1.3780870
  H        4.3142870    -0.0291260    -1.8177910
  H        5.3679410     0.7151030    -0.6066950
  H        3.8442820     1.4990380    -1.0633910
  H       -3.7175750    -1.0591810    -0.9792530
units angstrom
no_reorient  #important for SAPT in psi4, default
symmetry c1  #important for SAPT in psi4, default
}

set PROPERTIES_ORIGIN ["COM"]
properties('MP2/aug-cc-pvtz', properties = ['dipole'])
--------------------------------------------------------------------------

    Molecular point group: c1
  Charge       = 0
  Multiplicity = 1
  Basis Set: AUG-CC-PVTZ
    Blend: AUG-CC-PVTZ
  Basis Set: (AUG-CC-PVTZ AUX)
    Blend: AUG-CC-PVTZ-JKFIT

    Orbital Energies [Eh]
    ---------------------

    Doubly Occupied:

       1A    -20.558673     2A    -11.286355     3A    -11.227547
       4A    -11.226027     5A    -11.223244     6A    -11.223196
       7A    -11.221622     8A    -11.220535     9A    -11.212403
      10A     -1.360705    11A     -1.095974    12A     -1.061058
      13A     -1.015566    14A     -0.960462    15A     -0.876650
      16A     -0.827216    17A     -0.757069    18A     -0.747621
      19A     -0.694937    20A     -0.637467    21A     -0.626679
      22A     -0.617226    23A     -0.590705    24A     -0.581748
      25A     -0.547091    26A     -0.544430    27A     -0.528317
      28A     -0.517301    29A     -0.500244    30A     -0.492642
      31A     -0.482072    32A     -0.467800    33A     -0.452676
      34A     -0.416278    35A     -0.294443

  @DF-RHF Final Energy:  -386.06068743367558

   => Energetics <=

    Nuclear Repulsion Energy =            418.0099159726181028
    One-Electron Energy =               -1351.9532481837300111
    Two-Electron Energy =                 547.8826447774364397
    Total Energy =                       -386.0606874336755254
  Basis Set: (AUG-CC-PVTZ AUX)
    Blend: AUG-CC-PVTZ-RI
    Molecular point group: c1

    Geometry (in Angstrom), charge = 0, multiplicity = 1:

       Center              X                  Y                   Z               Mass
    ------------   -----------------  -----------------  -----------------  -----------------
         O           -2.785771819193    -0.914211309256    -0.742707965205    15.994914619570
         C           -2.770833819193    -0.042598309256     0.388212034795    12.000000000000
         C           -1.345544819193     0.194965690744     0.774178034795    12.000000000000
         C            3.586427180807    -0.228089309256     0.224229034795    12.000000000000
         C           -3.476505819193     1.271214690744     0.067011034795    12.000000000000
         C           -0.281164819193    -0.293430309256     0.114472034795    12.000000000000
         C            2.173385380807    -0.524706809256    -0.166784265205    12.000000000000
         C            1.091331180807    -0.025473309256     0.504182034795    12.000000000000
         C            4.323502180807     0.535583690744    -0.878354965205    12.000000000000
         H           -3.287487819193    -0.525980309256     1.235615034795     1.007825032230
         H           -1.197976819193     0.827247690744     1.650805034795     1.007825032230
         H            3.631322180807     0.347551990744     1.155957634795     1.007825032230
         H            4.113306180807    -1.170951309256     0.420895034795     1.007825032230
         H           -2.982244819193     1.742525690744    -0.785506965205     1.007825032230
         H           -4.528651819193     1.096872690744    -0.184442965205     1.007825032230
         H           -3.444507819193     1.955396690744     0.919687034795     1.007825032230
         H           -0.447943819193    -0.926031309256    -0.754392965205     1.007825032230
         H            2.005402180807    -1.142850309256    -1.022428965205     1.007825032230
         H            1.246200180807     0.607832690744     1.380113034795     1.007825032230
         H            4.313344180807    -0.027915309256    -1.815764965205     1.007825032230
         H            5.366998180807     0.716313690744    -0.604668965205     1.007825032230
         H            3.843339180807     1.500248690744    -1.061364965205     1.007825032230
         H           -3.718517819193    -1.057970309256    -0.977226965205     1.007825032230

  Basis Set: AUG-CC-PVTZ
    Blend: AUG-CC-PVTZ
  Basis Set: (AUG-CC-PVTZ AUX)
    Blend: AUG-CC-PVTZ-JKFIT
	 Reference Energy          =    -386.0606874336755823 [Eh]
	 Singles Energy            =      -0.0000000000000000 [Eh]
	 Same-Spin Energy          =      -0.4005761697693317 [Eh]
	 Opposite-Spin Energy      =      -1.3788391061214527 [Eh]
	 Correlation Energy        =      -1.7794152758907844 [Eh]
	 Total Energy              =    -387.8401027095663949 [Eh]

	 ================> DF-SCS-MP2 Energies <==================
	-----------------------------------------------------------
	 SCS Same-Spin Scale       =       0.3333333333333333 [-]
	 SCS Opposite-Spin Scale   =       1.2000000000000000 [-]
	 SCS Same-Spin Energy      =      -0.1335253899231106 [Eh]
	 SCS Opposite-Spin Energy  =      -1.6546069273457431 [Eh]
	 SCS Correlation Energy    =      -1.7881323172688537 [Eh]
	 SCS Total Energy          =    -387.8488197509444149 [Eh]
	-----------------------------------------------------------

  Dipole Moment: [D]
     X:    -1.1600      Y:     0.6326      Z:     0.5782     Total:     1.4422

*** Psi4 exiting successfully. Buy a developer a beer!
