                               Psi4 1.4a3.dev225

  ==> Input File <==

--------------------------------------------------------------------------
#psi4
#
memory 32 gb

molecule  {
0 1
  O       -2.7624640     1.3159430     0.2248240
  C       -2.8209640    -0.0168770    -0.2887760
  C       -1.4198970    -0.4865040    -0.5315690
  C        3.5469730    -0.0618850    -0.4287090
  C       -3.5485140    -0.9406360     0.6857820
  C       -0.3124200     0.2274490    -0.2577540
  C        2.1505970     0.4383770    -0.2221580
  C        1.0342680    -0.2689350    -0.4861660
  C        4.3265940    -0.1505530     0.8872490
  H       -3.3622360    -0.0200820    -1.2509840
  H       -1.3293920    -1.4912640    -0.9473420
  H        3.5151924    -1.0021991    -0.8869079
  H        4.0812660     0.6062640    -1.1173180
  H       -3.0279280    -0.9272120     1.6463760
  H       -4.5820380    -0.6089360     0.8383050
  H       -3.5770120    -1.9680220     0.3103630
  H       -0.4219900     1.2292040     0.1523950
  H        2.0485920     1.4434520     0.1930580
  H        1.1311650    -1.2755230    -0.8987060
  H        4.3778580     0.8269450     1.3761990
  H        5.3504770    -0.4972710     0.7173650
  H        3.8373540    -0.8453320     1.5752720
  H       -3.6799020     1.6047450     0.3678300
units angstrom
no_reorient  #important for SAPT in psi4, default
symmetry c1  #important for SAPT in psi4, default
}

set PROPERTIES_ORIGIN ["COM"]
properties('MP2/aug-cc-pvtz', properties = ['dipole'])
--------------------------------------------------------------------------

    Molecular point group: c1
  Charge       = 0
  Multiplicity = 1
  Basis Set: AUG-CC-PVTZ
    Blend: AUG-CC-PVTZ
  Basis Set: (AUG-CC-PVTZ AUX)
    Blend: AUG-CC-PVTZ-JKFIT

    Orbital Energies [Eh]
    ---------------------

    Doubly Occupied:

       1A    -20.558758     2A    -11.286969     3A    -11.226191
       4A    -11.224216     5A    -11.223543     6A    -11.222373
       7A    -11.220911     8A    -11.217500     9A    -11.212789
      10A     -1.360078    11A     -1.097556    12A     -1.061543
      13A     -1.016185    14A     -0.962064    15A     -0.876849
      16A     -0.830428    17A     -0.754943    18A     -0.747774
      19A     -0.694894    20A     -0.638513    21A     -0.627066
      22A     -0.617113    23A     -0.590878    24A     -0.583345
      25A     -0.546393    26A     -0.543210    27A     -0.527334
      28A     -0.518262    29A     -0.501005    30A     -0.492800
      31A     -0.483781    32A     -0.467601    33A     -0.452766
      34A     -0.417795    35A     -0.297198

  @DF-RHF Final Energy:  -386.06150377969891

   => Energetics <=

    Nuclear Repulsion Energy =            417.9690402452047238
    One-Electron Energy =               -1351.8598465098193628
    Two-Electron Energy =                 547.8293024849157291
    Total Energy =                       -386.0615037796989100
  Basis Set: (AUG-CC-PVTZ AUX)
    Blend: AUG-CC-PVTZ-RI
    Molecular point group: c1

    Geometry (in Angstrom), charge = 0, multiplicity = 1:

       Center              X                  Y                   Z               Mass
    ------------   -----------------  -----------------  -----------------  -----------------
         O           -2.728284423000     1.292268130122     0.240818851492    15.994914619570
         C           -2.786784423000    -0.040551869878    -0.272781148508    12.000000000000
         C           -1.385717423000    -0.510178869878    -0.515574148508    12.000000000000
         C            3.581152577000    -0.085559869878    -0.412714148508    12.000000000000
         C           -3.514334423000    -0.964310869878     0.701776851492    12.000000000000
         C           -0.278240423000     0.203774130122    -0.241759148508    12.000000000000
         C            2.184776577000     0.414702130122    -0.206163148508    12.000000000000
         C            1.068447577000    -0.292609869878    -0.470171148508    12.000000000000
         C            4.360773577000    -0.174227869878     0.903243851492    12.000000000000
         H           -3.328056423000    -0.043756869878    -1.234989148508     1.007825032230
         H           -1.295212423000    -1.514938869878    -0.931347148508     1.007825032230
         H            3.549371977000    -1.025873969878    -0.870913048508     1.007825032230
         H            4.115445577000     0.582589130122    -1.101323148508     1.007825032230
         H           -2.993748423000    -0.950886869878     1.662370851492     1.007825032230
         H           -4.547858423000    -0.632610869878     0.854299851492     1.007825032230
         H           -3.542832423000    -1.991696869878     0.326357851492     1.007825032230
         H           -0.387810423000     1.205529130122     0.168389851492     1.007825032230
         H            2.082771577000     1.419777130122     0.209052851492     1.007825032230
         H            1.165344577000    -1.299197869878    -0.882711148508     1.007825032230
         H            4.412037577000     0.803270130122     1.392193851492     1.007825032230
         H            5.384656577000    -0.520945869878     0.733359851492     1.007825032230
         H            3.871533577000    -0.869006869878     1.591266851492     1.007825032230
         H           -3.645722423000     1.581070130122     0.383824851492     1.007825032230

  Basis Set: AUG-CC-PVTZ
    Blend: AUG-CC-PVTZ
  Basis Set: (AUG-CC-PVTZ AUX)
    Blend: AUG-CC-PVTZ-JKFIT
	 Reference Energy          =    -386.0615037796989100 [Eh]
	 Singles Energy            =      -0.0000000000000000 [Eh]
	 Same-Spin Energy          =      -0.4002422157228201 [Eh]
	 Opposite-Spin Energy      =      -1.3780680375643308 [Eh]
	 Correlation Energy        =      -1.7783102532871509 [Eh]
	 Total Energy              =    -387.8398140329860553 [Eh]

	 ================> DF-SCS-MP2 Energies <==================
	-----------------------------------------------------------
	 SCS Same-Spin Scale       =       0.3333333333333333 [-]
	 SCS Opposite-Spin Scale   =       1.2000000000000000 [-]
	 SCS Same-Spin Energy      =      -0.1334140719076067 [Eh]
	 SCS Opposite-Spin Energy  =      -1.6536816450771969 [Eh]
	 SCS Correlation Energy    =      -1.7870957169848036 [Eh]
	 SCS Total Energy          =    -387.8485994966837325 [Eh]
	-----------------------------------------------------------

  Dipole Moment: [D]
     X:    -1.1917      Y:    -0.8191      Z:    -0.1628     Total:     1.4551

*** Psi4 exiting successfully. Buy a developer a beer!
