                               Psi4 1.3.2 release

  ==> Input File <==

--------------------------------------------------------------------------
#psi4
#
memory 32 gb

molecule  {
0 1
  O       -2.7848290    -0.9154220    -0.7447340
  C       -2.7698910    -0.0438090     0.3861860
  C       -1.3446020     0.1937550     0.7721520
  C        3.5873700    -0.2293000     0.2222030
  C       -3.4755630     1.2700040     0.0649850
  C       -0.2802220    -0.2946410     0.1124460
  C        2.1660230    -0.5131760    -0.1475910
  C        1.0922740    -0.0266840     0.5021560
  C        4.3244450     0.5343730    -0.8803810
  H       -3.2865450    -0.5271910     1.2335890
  H       -1.1970340     0.8260370     1.6487790
  H        3.6131550     0.3461180     1.1547940
  H        4.1142490    -1.1721620     0.4188690
  H       -2.9813020     1.7413150    -0.7875330
  H       -4.5277090     1.0956620    -0.1864690
  H       -3.4435650     1.9541860     0.9176610
  H       -0.4470010    -0.9272420    -0.7564190
  H        2.0063450    -1.1440610    -1.0244550
  H        1.2471430     0.6066220     1.3780870
  H        4.3142870    -0.0291260    -1.8177910
  H        5.3679410     0.7151030    -0.6066950
  H        3.8442820     1.4990380    -1.0633910
  H       -3.8134910    -1.0739640    -1.0033690
units angstrom
no_reorient  #important for SAPT in psi4, default
symmetry c1  #important for SAPT in psi4, default
}

set PROPERTIES_ORIGIN ["COM"]
properties('MP2/aug-cc-pvtz', properties = ['dipole'])
--------------------------------------------------------------------------

    Molecular point group: c1
  Charge       = 0
  Multiplicity = 1
  Basis Set: AUG-CC-PVTZ
    Blend: AUG-CC-PVTZ
  Basis Set: (AUG-CC-PVTZ AUX)
    Blend: AUG-CC-PVTZ-JKFIT

    Orbital Energies [Eh]
    ---------------------

    Doubly Occupied:

       1A    -20.567047     2A    -11.285556     3A    -11.225774
       4A    -11.223554     5A    -11.223137     6A    -11.222895
       7A    -11.221672     8A    -11.220002     9A    -11.212775
      10A     -1.342700    11A     -1.097038    12A     -1.059018
      13A     -1.014471    14A     -0.962186    15A     -0.875004
      16A     -0.826679    17A     -0.752046    18A     -0.742831
      19A     -0.684585    20A     -0.635582    21A     -0.627007
      22A     -0.612160    23A     -0.589620    24A     -0.580805
      25A     -0.544241    26A     -0.542328    27A     -0.526478
      28A     -0.518680    29A     -0.500383    30A     -0.489621
      31A     -0.478740    32A     -0.466979    33A     -0.450833
      34A     -0.417957    35A     -0.297300

  @DF-RHF Final Energy:  -386.04907206088228

   => Energetics <=

    Nuclear Repulsion Energy =            417.6881316503065591
    One-Electron Energy =               -1351.3990373222952712
    Two-Electron Energy =                 547.6618336111064309
    Total Energy =                       -386.0490720608822812
  Basis Set: (AUG-CC-PVTZ AUX)
    Blend: AUG-CC-PVTZ-RI
    Molecular point group: c1

    Geometry (in Angstrom), charge = 0, multiplicity = 1:

       Center              X                  Y                   Z               Mass
    ------------   -----------------  -----------------  -----------------  -----------------
         O           -2.784062216904    -0.915303850072    -0.744541334386    15.994914619570
         C           -2.769124216904    -0.043690850072     0.386378665614    12.000000000000
         C           -1.343835216904     0.193873149928     0.772344665614    12.000000000000
         C            3.588136783096    -0.229181850072     0.222395665614    12.000000000000
         C           -3.474796216904     1.270122149928     0.065177665614    12.000000000000
         C           -0.279455216904    -0.294522850072     0.112638665614    12.000000000000
         C            2.166789783096    -0.513057850072    -0.147398334386    12.000000000000
         C            1.093040783096    -0.026565850072     0.502348665614    12.000000000000
         C            4.325211783096     0.534491149928    -0.880188334386    12.000000000000
         H           -3.285778216904    -0.527072850072     1.233781665614     1.007825032230
         H           -1.196267216904     0.826155149928     1.648971665614     1.007825032230
         H            3.613921783096     0.346236149928     1.154986665614     1.007825032230
         H            4.115015783096    -1.172043850072     0.419061665614     1.007825032230
         H           -2.980535216904     1.741433149928    -0.787340334386     1.007825032230
         H           -4.526942216904     1.095780149928    -0.186276334386     1.007825032230
         H           -3.442798216904     1.954304149928     0.917853665614     1.007825032230
         H           -0.446234216904    -0.927123850072    -0.756226334386     1.007825032230
         H            2.007111783096    -1.143942850072    -1.024262334386     1.007825032230
         H            1.247909783096     0.606740149928     1.378279665614     1.007825032230
         H            4.315053783096    -0.029007850072    -1.817598334386     1.007825032230
         H            5.368707783096     0.715221149928    -0.606502334386     1.007825032230
         H            3.845048783096     1.499156149928    -1.063198334386     1.007825032230
         H           -3.812724216904    -1.073845850072    -1.003176334386     1.007825032230

  Basis Set: AUG-CC-PVTZ
    Blend: AUG-CC-PVTZ
  Basis Set: (AUG-CC-PVTZ AUX)
    Blend: AUG-CC-PVTZ-JKFIT
	 Reference Energy          =    -386.0490720608822812 [Eh]
	 Singles Energy            =      -0.0000000000000000 [Eh]
	 Same-Spin Energy          =      -0.4015062108398031 [Eh]
	 Opposite-Spin Energy      =      -1.3816005312877111 [Eh]
	 Correlation Energy        =      -1.7831067421275142 [Eh]
	 Total Energy              =    -387.8321788030098105 [Eh]

	 ================> DF-SCS-MP2 Energies <==================
	-----------------------------------------------------------
	 SCS Same-Spin Scale       =       0.3333333333333333 [-]
	 SCS Opposite-Spin Scale   =       1.2000000000000000 [-]
	 SCS Same-Spin Energy      =      -0.1338354036132677 [Eh]
	 SCS Opposite-Spin Energy  =      -1.6579206375452533 [Eh]
	 SCS Correlation Energy    =      -1.7917560411585209 [Eh]
	 SCS Total Energy          =    -387.8408281020408026 [Eh]
	-----------------------------------------------------------

  Dipole Moment: [D]
     X:    -1.2141      Y:     0.6174      Z:     0.5512     Total:     1.4693

*** Psi4 exiting successfully. Buy a developer a beer!
