                               Psi4 1.4a3.dev225

  ==> Input File <==

--------------------------------------------------------------------------
#psi4
#
memory 32 gb

molecule  {
0 1
  O       -2.7624640     1.3159430     0.2248240
  C       -2.8209640    -0.0168770    -0.2887760
  C       -1.4198970    -0.4865040    -0.5315690
  C        3.5469730    -0.0618850    -0.4287090
  C       -3.5485140    -0.9406360     0.6857820
  C       -0.3124200     0.2274490    -0.2577540
  C        2.1505970     0.4383770    -0.2221580
  C        1.0342680    -0.2689350    -0.4861660
  C        4.3265940    -0.1505530     0.8872490
  H       -3.3622360    -0.0200820    -1.2509840
  H       -1.3293920    -1.4912640    -0.9473420
  H        3.5136740    -1.0471260    -0.9088000
  H        4.0812660     0.6062640    -1.1173180
  H       -3.0279280    -0.9272120     1.6463760
  H       -4.5820380    -0.6089360     0.8383050
  H       -3.5770120    -1.9680220     0.3103630
  H       -0.4219900     1.2292040     0.1523950
  H        2.0485920     1.4434520     0.1930580
  H        1.1293906    -1.2570899    -0.8911514
  H        4.3778580     0.8269450     1.3761990
  H        5.3504770    -0.4972710     0.7173650
  H        3.8373540    -0.8453320     1.5752720
  H       -3.6799020     1.6047450     0.3678300
units angstrom
no_reorient  #important for SAPT in psi4, default
symmetry c1  #important for SAPT in psi4, default
}

set PROPERTIES_ORIGIN ["COM"]
properties('MP2/aug-cc-pvtz', properties = ['dipole'])
--------------------------------------------------------------------------

    Molecular point group: c1
  Charge       = 0
  Multiplicity = 1
  Basis Set: AUG-CC-PVTZ
    Blend: AUG-CC-PVTZ
  Basis Set: (AUG-CC-PVTZ AUX)
    Blend: AUG-CC-PVTZ-JKFIT

    Orbital Energies [Eh]
    ---------------------

    Doubly Occupied:

       1A    -20.558764     2A    -11.286990     3A    -11.226251
       4A    -11.224029     5A    -11.223725     6A    -11.222472
       7A    -11.221374     8A    -11.220927     9A    -11.213247
      10A     -1.360084    11A     -1.097423    12A     -1.060611
      13A     -1.015797    14A     -0.962215    15A     -0.876469
      16A     -0.828569    17A     -0.754016    18A     -0.748406
      19A     -0.695234    20A     -0.637141    21A     -0.627075
      22A     -0.616748    23A     -0.590700    24A     -0.583048
      25A     -0.546453    26A     -0.543483    27A     -0.528078
      28A     -0.518482    29A     -0.501092    30A     -0.492822
      31A     -0.479365    32A     -0.468034    33A     -0.452776
      34A     -0.417773    35A     -0.297247

  @DF-RHF Final Energy:  -386.06249962528977

   => Energetics <=

    Nuclear Repulsion Energy =            417.8430434514178273
    One-Electron Energy =               -1351.6172430875230930
    Two-Electron Energy =                 547.7117000108155480
    Total Energy =                       -386.0624996252897745
  Basis Set: (AUG-CC-PVTZ AUX)
    Blend: AUG-CC-PVTZ-RI
    Molecular point group: c1

    Geometry (in Angstrom), charge = 0, multiplicity = 1:

       Center              X                  Y                   Z               Mass
    ------------   -----------------  -----------------  -----------------  -----------------
         O           -2.728258106990     1.292479868182     0.240933436581    15.994914619570
         C           -2.786758106990    -0.040340131818    -0.272666563419    12.000000000000
         C           -1.385691106990    -0.509967131818    -0.515459563419    12.000000000000
         C            3.581178893010    -0.085348131818    -0.412599563419    12.000000000000
         C           -3.514308106990    -0.964099131818     0.701891436581    12.000000000000
         C           -0.278214106990     0.203985868182    -0.241644563419    12.000000000000
         C            2.184802893010     0.414913868182    -0.206048563419    12.000000000000
         C            1.068473893010    -0.292398131818    -0.470056563419    12.000000000000
         C            4.360799893010    -0.174016131818     0.903358436581    12.000000000000
         H           -3.328030106990    -0.043545131818    -1.234874563419     1.007825032230
         H           -1.295186106990    -1.514727131818    -0.931232563419     1.007825032230
         H            3.547879893010    -1.070589131818    -0.892690563419     1.007825032230
         H            4.115471893010     0.582800868182    -1.101208563419     1.007825032230
         H           -2.993722106990    -0.950675131818     1.662485436581     1.007825032230
         H           -4.547832106990    -0.632399131818     0.854414436581     1.007825032230
         H           -3.542806106990    -1.991485131818     0.326472436581     1.007825032230
         H           -0.387784106990     1.205740868182     0.168504436581     1.007825032230
         H            2.082797893010     1.419988868182     0.209167436581     1.007825032230
         H            1.163596493010    -1.280553031818    -0.875041963419     1.007825032230
         H            4.412063893010     0.803481868182     1.392308436581     1.007825032230
         H            5.384682893010    -0.520734131818     0.733474436581     1.007825032230
         H            3.871559893010    -0.868795131818     1.591381436581     1.007825032230
         H           -3.645696106990     1.581281868182     0.383939436581     1.007825032230

  Basis Set: AUG-CC-PVTZ
    Blend: AUG-CC-PVTZ
  Basis Set: (AUG-CC-PVTZ AUX)
    Blend: AUG-CC-PVTZ-JKFIT
	 Reference Energy          =    -386.0624996252897745 [Eh]
	 Singles Energy            =      -0.0000000000000000 [Eh]
	 Same-Spin Energy          =      -0.4002199032057965 [Eh]
	 Opposite-Spin Energy      =      -1.3782561216774241 [Eh]
	 Correlation Energy        =      -1.7784760248832205 [Eh]
	 Total Energy              =    -387.8409756501729930 [Eh]

	 ================> DF-SCS-MP2 Energies <==================
	-----------------------------------------------------------
	 SCS Same-Spin Scale       =       0.3333333333333333 [-]
	 SCS Opposite-Spin Scale   =       1.2000000000000000 [-]
	 SCS Same-Spin Energy      =      -0.1334066344019322 [Eh]
	 SCS Opposite-Spin Energy  =      -1.6539073460129088 [Eh]
	 SCS Correlation Energy    =      -1.7873139804148410 [Eh]
	 SCS Total Energy          =    -387.8498136057046395 [Eh]
	-----------------------------------------------------------

  Dipole Moment: [D]
     X:    -1.1937      Y:    -0.8027      Z:    -0.1471     Total:     1.4459

*** Psi4 exiting successfully. Buy a developer a beer!
