                               Psi4 1.3.2 release

  ==> Input File <==

--------------------------------------------------------------------------
#psi4
#
memory 32 gb

molecule  {
0 1
  O       -2.7973015    -0.9322965    -0.7312893
  C       -2.7698910    -0.0438090     0.3861860
  C       -1.3446020     0.1937550     0.7721520
  C        3.5873700    -0.2293000     0.2222030
  C       -3.4755630     1.2700040     0.0649850
  C       -0.2802220    -0.2946410     0.1124460
  C        2.1660230    -0.5131760    -0.1475910
  C        1.0922740    -0.0266840     0.5021560
  C        4.3244450     0.5343730    -0.8803810
  H       -3.2898946    -0.5426101     1.2225322
  H       -1.1970340     0.8260370     1.6487790
  H        3.6131550     0.3461180     1.1547940
  H        4.1142490    -1.1721620     0.4188690
  H       -2.9813020     1.7413150    -0.7875330
  H       -4.5277090     1.0956620    -0.1864690
  H       -3.4435650     1.9541860     0.9176610
  H       -0.4470010    -0.9272420    -0.7564190
  H        2.0063450    -1.1440610    -1.0244550
  H        1.2471430     0.6066220     1.3780870
  H        4.3142870    -0.0291260    -1.8177910
  H        5.3679410     0.7151030    -0.6066950
  H        3.8442820     1.4990380    -1.0633910
  H       -3.7175750    -1.0591810    -0.9792530
units angstrom
no_reorient  #important for SAPT in psi4, default
symmetry c1  #important for SAPT in psi4, default
}

set PROPERTIES_ORIGIN ["COM"]
properties('MP2/aug-cc-pvtz', properties = ['dipole'])
--------------------------------------------------------------------------

    Molecular point group: c1
  Charge       = 0
  Multiplicity = 1
  Basis Set: AUG-CC-PVTZ
    Blend: AUG-CC-PVTZ
  Basis Set: (AUG-CC-PVTZ AUX)
    Blend: AUG-CC-PVTZ-JKFIT

    Orbital Energies [Eh]
    ---------------------

    Doubly Occupied:

       1A    -20.556613     2A    -11.286442     3A    -11.226137
       4A    -11.223984     5A    -11.223417     6A    -11.223212
       7A    -11.222134     8A    -11.221176     9A    -11.212994
      10A     -1.362162    11A     -1.098113    12A     -1.061703
      13A     -1.016350    14A     -0.962637    15A     -0.877060
      16A     -0.829172    17A     -0.752927    18A     -0.749080
      19A     -0.694691    20A     -0.637539    21A     -0.627662
      22A     -0.618724    23A     -0.590769    24A     -0.583386
      25A     -0.546575    26A     -0.543711    27A     -0.527337
      28A     -0.519159    29A     -0.501110    30A     -0.492131
      31A     -0.479262    32A     -0.468249    33A     -0.452402
      34A     -0.418374    35A     -0.297720

  @DF-RHF Final Energy:  -386.06329298089497

   => Energetics <=

    Nuclear Repulsion Energy =            418.1559957671440770
    One-Electron Energy =               -1352.2303535759806437
    Two-Electron Energy =                 548.0110648279415955
    Total Energy =                       -386.0632929808949712
  Basis Set: (AUG-CC-PVTZ AUX)
    Blend: AUG-CC-PVTZ-RI
    Molecular point group: c1

    Geometry (in Angstrom), charge = 0, multiplicity = 1:

       Center              X                  Y                   Z               Mass
    ------------   -----------------  -----------------  -----------------  -----------------
         O           -2.795692511693    -0.930032928305    -0.732906310333    15.994914619570
         C           -2.768282011693    -0.041545428305     0.384568989667    12.000000000000
         C           -1.342993011693     0.196018571695     0.770534989667    12.000000000000
         C            3.588978988307    -0.227036428305     0.220585989667    12.000000000000
         C           -3.473954011693     1.272267571695     0.063367989667    12.000000000000
         C           -0.278613011693    -0.292377428305     0.110828989667    12.000000000000
         C            2.167631988307    -0.510912428305    -0.149208010333    12.000000000000
         C            1.093882988307    -0.024420428305     0.500538989667    12.000000000000
         C            4.326053988307     0.536636571695    -0.881998010333    12.000000000000
         H           -3.288285611693    -0.540346528305     1.220915189667     1.007825032230
         H           -1.195425011693     0.828300571695     1.647161989667     1.007825032230
         H            3.614763988307     0.348381571695     1.153176989667     1.007825032230
         H            4.115857988307    -1.169898428305     0.417251989667     1.007825032230
         H           -2.979693011693     1.743578571695    -0.789150010333     1.007825032230
         H           -4.526100011693     1.097925571695    -0.188086010333     1.007825032230
         H           -3.441956011693     1.956449571695     0.916043989667     1.007825032230
         H           -0.445392011693    -0.924978428305    -0.758036010333     1.007825032230
         H            2.007953988307    -1.141797428305    -1.026072010333     1.007825032230
         H            1.248751988307     0.608885571695     1.376469989667     1.007825032230
         H            4.315895988307    -0.026862428305    -1.819408010333     1.007825032230
         H            5.369549988307     0.717366571695    -0.608312010333     1.007825032230
         H            3.845890988307     1.501301571695    -1.065008010333     1.007825032230
         H           -3.715966011693    -1.056917428305    -0.980870010333     1.007825032230

  Basis Set: AUG-CC-PVTZ
    Blend: AUG-CC-PVTZ
  Basis Set: (AUG-CC-PVTZ AUX)
    Blend: AUG-CC-PVTZ-JKFIT
	 Reference Energy          =    -386.0632929808949712 [Eh]
	 Singles Energy            =      -0.0000000000000000 [Eh]
	 Same-Spin Energy          =      -0.4001277201339972 [Eh]
	 Opposite-Spin Energy      =      -1.3778353900574440 [Eh]
	 Correlation Energy        =      -1.7779631101914413 [Eh]
	 Total Energy              =    -387.8412560910863931 [Eh]

	 ================> DF-SCS-MP2 Energies <==================
	-----------------------------------------------------------
	 SCS Same-Spin Scale       =       0.3333333333333333 [-]
	 SCS Opposite-Spin Scale   =       1.2000000000000000 [-]
	 SCS Same-Spin Energy      =      -0.1333759067113324 [Eh]
	 SCS Opposite-Spin Energy  =      -1.6534024680689328 [Eh]
	 SCS Correlation Energy    =      -1.7867783747802650 [Eh]
	 SCS Total Energy          =    -387.8500713556752544 [Eh]
	-----------------------------------------------------------

  Dipole Moment: [D]
     X:    -1.1322      Y:     0.6900      Z:     0.5551     Total:     1.4374

*** Psi4 exiting successfully. Buy a developer a beer!
