                               Psi4 1.3.2 release

  ==> Input File <==

--------------------------------------------------------------------------
#psi4
#
memory 32 gb

molecule  {
0 1
  O       -2.7848290    -0.9154220    -0.7447340
  C       -2.7698910    -0.0438090     0.3861860
  C       -1.3446020     0.1937550     0.7721520
  C        3.5873700    -0.2293000     0.2222030
  C       -3.4755630     1.2700040     0.0649850
  C       -0.2802220    -0.2946410     0.1124460
  C        2.1660230    -0.5131760    -0.1475910
  C        1.1720459    -0.0628269     0.4538844
  C        4.3244450     0.5343730    -0.8803810
  H       -3.2865450    -0.5271910     1.2335890
  H       -1.1970340     0.8260370     1.6487790
  H        3.6131550     0.3461180     1.1547940
  H        4.1142490    -1.1721620     0.4188690
  H       -2.9813020     1.7413150    -0.7875330
  H       -4.5277090     1.0956620    -0.1864690
  H       -3.4435650     1.9541860     0.9176610
  H       -0.4470010    -0.9272420    -0.7564190
  H        2.0063450    -1.1440610    -1.0244550
  H        1.2471430     0.6066220     1.3780870
  H        4.3142870    -0.0291260    -1.8177910
  H        5.3679410     0.7151030    -0.6066950
  H        3.8442820     1.4990380    -1.0633910
  H       -3.7175750    -1.0591810    -0.9792530
units angstrom
no_reorient  #important for SAPT in psi4, default
symmetry c1  #important for SAPT in psi4, default
}

set PROPERTIES_ORIGIN ["COM"]
properties('MP2/aug-cc-pvtz', properties = ['dipole'])
--------------------------------------------------------------------------

    Molecular point group: c1
  Charge       = 0
  Multiplicity = 1
  Basis Set: AUG-CC-PVTZ
    Blend: AUG-CC-PVTZ
  Basis Set: (AUG-CC-PVTZ AUX)
    Blend: AUG-CC-PVTZ-JKFIT

    Orbital Energies [Eh]
    ---------------------

    Doubly Occupied:

       1A    -20.558718     2A    -11.287503     3A    -11.226397
       4A    -11.224112     5A    -11.222192     6A    -11.221054
       7A    -11.217889     8A    -11.212530     9A    -11.209609
      10A     -1.360831    11A     -1.105879    12A     -1.063168
      13A     -1.014127    14A     -0.972216    15A     -0.872739
      16A     -0.832399    17A     -0.750168    18A     -0.741742
      19A     -0.694894    20A     -0.636663    21A     -0.628563
      22A     -0.617397    23A     -0.596234    24A     -0.581210
      25A     -0.546591    26A     -0.542503    27A     -0.528332
      28A     -0.520675    29A     -0.500758    30A     -0.490577
      31A     -0.480592    32A     -0.453172    33A     -0.448015
      34A     -0.422175    35A     -0.315722

  @DF-RHF Final Energy:  -386.05045152652264

   => Energetics <=

    Nuclear Repulsion Energy =            418.7323153703110847
    One-Electron Energy =               -1353.3708466219352431
    Two-Electron Energy =                 548.5880797251015792
    Total Energy =                       -386.0504515265225791
  Basis Set: (AUG-CC-PVTZ AUX)
    Blend: AUG-CC-PVTZ-RI
    Molecular point group: c1

    Geometry (in Angstrom), charge = 0, multiplicity = 1:

       Center              X                  Y                   Z               Mass
    ------------   -----------------  -----------------  -----------------  -----------------
         O           -2.792419806345    -0.911982666145    -0.740140582270    15.994914619570
         C           -2.777481806345    -0.040369666145     0.390779417730    12.000000000000
         C           -1.352192806345     0.197194333855     0.776745417730    12.000000000000
         C            3.579779193655    -0.225860666145     0.226796417730    12.000000000000
         C           -3.483153806345     1.273443333855     0.069578417730    12.000000000000
         C           -0.287812806345    -0.291201666145     0.117039417730    12.000000000000
         C            2.158432193655    -0.509736666145    -0.142997582270    12.000000000000
         C            1.164455093655    -0.059387566145     0.458477817730    12.000000000000
         C            4.316854193655     0.537812333855    -0.875787582270    12.000000000000
         H           -3.294135806345    -0.523751666145     1.238182417730     1.007825032230
         H           -1.204624806345     0.829476333855     1.653372417730     1.007825032230
         H            3.605564193655     0.349557333855     1.159387417730     1.007825032230
         H            4.106658193655    -1.168722666145     0.423462417730     1.007825032230
         H           -2.988892806345     1.744754333855    -0.782939582270     1.007825032230
         H           -4.535299806345     1.099101333855    -0.181875582270     1.007825032230
         H           -3.451155806345     1.957625333855     0.922254417730     1.007825032230
         H           -0.454591806345    -0.923802666145    -0.751825582270     1.007825032230
         H            1.998754193655    -1.140621666145    -1.019861582270     1.007825032230
         H            1.239552193655     0.610061333855     1.382680417730     1.007825032230
         H            4.306696193655    -0.025686666145    -1.813197582270     1.007825032230
         H            5.360350193655     0.718542333855    -0.602101582270     1.007825032230
         H            3.836691193655     1.502477333855    -1.058797582270     1.007825032230
         H           -3.725165806345    -1.055741666145    -0.974659582270     1.007825032230

  Basis Set: AUG-CC-PVTZ
    Blend: AUG-CC-PVTZ
  Basis Set: (AUG-CC-PVTZ AUX)
    Blend: AUG-CC-PVTZ-JKFIT
	 Reference Energy          =    -386.0504515265226360 [Eh]
	 Singles Energy            =      -0.0000000000000000 [Eh]
	 Same-Spin Energy          =      -0.3990407025876254 [Eh]
	 Opposite-Spin Energy      =      -1.3760626616792699 [Eh]
	 Correlation Energy        =      -1.7751033642668954 [Eh]
	 Total Energy              =    -387.8255548907895331 [Eh]

	 ================> DF-SCS-MP2 Energies <==================
	-----------------------------------------------------------
	 SCS Same-Spin Scale       =       0.3333333333333333 [-]
	 SCS Opposite-Spin Scale   =       1.2000000000000000 [-]
	 SCS Same-Spin Energy      =      -0.1330135675292085 [Eh]
	 SCS Opposite-Spin Energy  =      -1.6512751940151238 [Eh]
	 SCS Correlation Energy    =      -1.7842887615443321 [Eh]
	 SCS Total Energy          =    -387.8347402880669961 [Eh]
	-----------------------------------------------------------

  Dipole Moment: [D]
     X:    -1.1791      Y:     0.6208      Z:     0.5450     Total:     1.4397

*** Psi4 exiting successfully. Buy a developer a beer!
