                               Psi4 1.3.2 release

  ==> Input File <==

--------------------------------------------------------------------------
#psi4
#
memory 32 gb

molecule  {
0 1
  O       -2.7848290    -0.9154220    -0.7447340
  C       -2.7698910    -0.0438090     0.3861860
  C       -1.3446020     0.1937550     0.7721520
  C        3.5790177    -0.2144214     0.2419628
  C       -3.4755630     1.2700040     0.0649850
  C       -0.2802220    -0.2946410     0.1124460
  C        2.1660230    -0.5131760    -0.1475910
  C        1.1066034    -0.0154409     0.5169934
  C        4.3244450     0.5343730    -0.8803810
  H       -3.2865450    -0.5271910     1.2335890
  H       -1.1970340     0.8260370     1.6487790
  H        3.6131550     0.3461180     1.1547940
  H        4.1142490    -1.1721620     0.4188690
  H       -2.9813020     1.7413150    -0.7875330
  H       -4.5277090     1.0956620    -0.1864690
  H       -3.4435650     1.9541860     0.9176610
  H       -0.4470010    -0.9272420    -0.7564190
  H        2.0063450    -1.1440610    -1.0244550
  H        1.2471430     0.6066220     1.3780870
  H        4.3142870    -0.0291260    -1.8177910
  H        5.3679410     0.7151030    -0.6066950
  H        3.8442820     1.4990380    -1.0633910
  H       -3.7175750    -1.0591810    -0.9792530
units angstrom
no_reorient  #important for SAPT in psi4, default
symmetry c1  #important for SAPT in psi4, default
}

set PROPERTIES_ORIGIN ["COM"]
properties('MP2/aug-cc-pvtz', properties = ['dipole'])
--------------------------------------------------------------------------

    Molecular point group: c1
  Charge       = 0
  Multiplicity = 1
  Basis Set: AUG-CC-PVTZ
    Blend: AUG-CC-PVTZ
  Basis Set: (AUG-CC-PVTZ AUX)
    Blend: AUG-CC-PVTZ-JKFIT

    Orbital Energies [Eh]
    ---------------------

    Doubly Occupied:

       1A    -20.558482     2A    -11.286007     3A    -11.226017
       4A    -11.223854     5A    -11.222409     6A    -11.222237
       7A    -11.221324     8A    -11.220314     9A    -11.213036
      10A     -1.360491    11A     -1.096433    12A     -1.060603
      13A     -1.013944    14A     -0.961710    15A     -0.875131
      16A     -0.828506    17A     -0.755579    18A     -0.747279
      19A     -0.694932    20A     -0.637964    21A     -0.624940
      22A     -0.617328    23A     -0.591739    24A     -0.580449
      25A     -0.546382    26A     -0.543425    27A     -0.529671
      28A     -0.514877    29A     -0.501245    30A     -0.492541
      31A     -0.486313    32A     -0.464836    33A     -0.452271
      34A     -0.415249    35A     -0.298023

  @DF-RHF Final Energy:  -386.06177587412702

   => Energetics <=

    Nuclear Repulsion Energy =            418.0815995241652558
    One-Electron Energy =               -1352.1156698823112947
    Two-Electron Energy =                 547.9722944840190166
    Total Energy =                       -386.0617758741269654
  Basis Set: (AUG-CC-PVTZ AUX)
    Blend: AUG-CC-PVTZ-RI
    Molecular point group: c1

    Geometry (in Angstrom), charge = 0, multiplicity = 1:

       Center              X                  Y                   Z               Mass
    ------------   -----------------  -----------------  -----------------  -----------------
         O           -2.785397552220    -0.917907715663    -0.748026310974    15.994914619570
         C           -2.770459552220    -0.046294715663     0.382893689026    12.000000000000
         C           -1.345170552220     0.191269284337     0.768859689026    12.000000000000
         C            3.578449147780    -0.216907115663     0.238670489026    12.000000000000
         C           -3.476131552220     1.267518284337     0.061692689026    12.000000000000
         C           -0.280790552220    -0.297126715663     0.109153689026    12.000000000000
         C            2.165454447780    -0.515661715663    -0.150883310974    12.000000000000
         C            1.106034847780    -0.017926615663     0.513701089026    12.000000000000
         C            4.323876447780     0.531887284337    -0.883673310974    12.000000000000
         H           -3.287113552220    -0.529676715663     1.230296689026     1.007825032230
         H           -1.197602552220     0.823551284337     1.645486689026     1.007825032230
         H            3.612586447780     0.343632284337     1.151501689026     1.007825032230
         H            4.113680447780    -1.174647715663     0.415576689026     1.007825032230
         H           -2.981870552220     1.738829284337    -0.790825310974     1.007825032230
         H           -4.528277552220     1.093176284337    -0.189761310974     1.007825032230
         H           -3.444133552220     1.951700284337     0.914368689026     1.007825032230
         H           -0.447569552220    -0.929727715663    -0.759711310974     1.007825032230
         H            2.005776447780    -1.146546715663    -1.027747310974     1.007825032230
         H            1.246574447780     0.604136284337     1.374794689026     1.007825032230
         H            4.313718447780    -0.031611715663    -1.821083310974     1.007825032230
         H            5.367372447780     0.712617284337    -0.609987310974     1.007825032230
         H            3.843713447780     1.496552284337    -1.066683310974     1.007825032230
         H           -3.718143552220    -1.061666715663    -0.982545310974     1.007825032230

  Basis Set: AUG-CC-PVTZ
    Blend: AUG-CC-PVTZ
  Basis Set: (AUG-CC-PVTZ AUX)
    Blend: AUG-CC-PVTZ-JKFIT
	 Reference Energy          =    -386.0617758741270222 [Eh]
	 Singles Energy            =      -0.0000000000000000 [Eh]
	 Same-Spin Energy          =      -0.4000422404984298 [Eh]
	 Opposite-Spin Energy      =      -1.3780007174790638 [Eh]
	 Correlation Energy        =      -1.7780429579774937 [Eh]
	 Total Energy              =    -387.8398188321045268 [Eh]

	 ================> DF-SCS-MP2 Energies <==================
	-----------------------------------------------------------
	 SCS Same-Spin Scale       =       0.3333333333333333 [-]
	 SCS Opposite-Spin Scale   =       1.2000000000000000 [-]
	 SCS Same-Spin Energy      =      -0.1333474134994766 [Eh]
	 SCS Opposite-Spin Energy  =      -1.6536008609748765 [Eh]
	 SCS Correlation Energy    =      -1.7869482744743530 [Eh]
	 SCS Total Energy          =    -387.8487241486013772 [Eh]
	-----------------------------------------------------------

  Dipole Moment: [D]
     X:    -1.1393      Y:     0.6468      Z:     0.5897     Total:     1.4367

*** Psi4 exiting successfully. Buy a developer a beer!
