                               Psi4 1.3.2 release

  ==> Input File <==

--------------------------------------------------------------------------
#psi4
#
memory 32 gb

molecule  {
0 1
  O       -2.7848290    -0.9154220    -0.7447340
  C       -2.7698910    -0.0438090     0.3861860
  C       -1.3446020     0.1937550     0.7721520
  C        3.5873700    -0.2293000     0.2222030
  C       -3.4755630     1.2700040     0.0649850
  C       -0.2802220    -0.2946410     0.1124460
  C        2.1660230    -0.5131760    -0.1475910
  C        1.0922740    -0.0266840     0.5021560
  C        4.3244450     0.5343730    -0.8803810
  H       -3.2865450    -0.5271910     1.2335890
  H       -1.1970340     0.8260370     1.6487790
  H        3.6131550     0.3461180     1.1547940
  H        4.1142490    -1.1721620     0.4188690
  H       -2.9813020     1.7413150    -0.7875330
  H       -4.5277090     1.0956620    -0.1864690
  H       -3.4435650     1.9541860     0.9176610
  H       -0.4470010    -0.9272420    -0.7564190
  H        1.9917221    -1.2018358    -1.1047559
  H        1.2471430     0.6066220     1.3780870
  H        4.3142870    -0.0291260    -1.8177910
  H        5.3679410     0.7151030    -0.6066950
  H        3.8442820     1.4990380    -1.0633910
  H       -3.7175750    -1.0591810    -0.9792530
units angstrom
no_reorient  #important for SAPT in psi4, default
symmetry c1  #important for SAPT in psi4, default
}

set PROPERTIES_ORIGIN ["COM"]
properties('MP2/aug-cc-pvtz', properties = ['dipole'])
--------------------------------------------------------------------------

    Molecular point group: c1
  Charge       = 0
  Multiplicity = 1
  Basis Set: AUG-CC-PVTZ
    Blend: AUG-CC-PVTZ
  Basis Set: (AUG-CC-PVTZ AUX)
    Blend: AUG-CC-PVTZ-JKFIT

    Orbital Energies [Eh]
    ---------------------

    Doubly Occupied:

       1A    -20.558738     2A    -11.286541     3A    -11.237247
       4A    -11.224706     5A    -11.224644     6A    -11.223514
       7A    -11.221926     8A    -11.220685     9A    -11.213029
      10A     -1.360782    11A     -1.097010    12A     -1.060949
      13A     -1.016417    14A     -0.961765    15A     -0.876235
      16A     -0.829036    17A     -0.748653    18A     -0.741581
      19A     -0.693596    20A     -0.636229    21A     -0.626477
      22A     -0.617193    23A     -0.590304    24A     -0.582295
      25A     -0.546072    26A     -0.540472    27A     -0.523964
      28A     -0.519630    29A     -0.501086    30A     -0.492388
      31A     -0.476065    32A     -0.466155    33A     -0.452911
      34A     -0.418717    35A     -0.298071

  @DF-RHF Final Energy:  -386.05557057552619

   => Energetics <=

    Nuclear Repulsion Energy =            417.8464953652448344
    One-Electron Energy =               -1351.6339608459720694
    Two-Electron Energy =                 547.7318949052009884
    Total Energy =                       -386.0555705755261897
  Basis Set: (AUG-CC-PVTZ AUX)
    Blend: AUG-CC-PVTZ-RI
    Molecular point group: c1

    Geometry (in Angstrom), charge = 0, multiplicity = 1:

       Center              X                  Y                   Z               Mass
    ------------   -----------------  -----------------  -----------------  -----------------
         O           -2.784711910165    -0.914960260238    -0.744092305491    15.994914619570
         C           -2.769773910165    -0.043347260238     0.386827694509    12.000000000000
         C           -1.344484910165     0.194216739762     0.772793694509    12.000000000000
         C            3.587487089835    -0.228838260238     0.222844694509    12.000000000000
         C           -3.475445910165     1.270465739762     0.065626694509    12.000000000000
         C           -0.280104910165    -0.294179260238     0.113087694509    12.000000000000
         C            2.166140089835    -0.512714260238    -0.146949305491    12.000000000000
         C            1.092391089835    -0.026222260238     0.502797694509    12.000000000000
         C            4.324562089835     0.534834739762    -0.879739305491    12.000000000000
         H           -3.286427910165    -0.526729260238     1.234230694509     1.007825032230
         H           -1.196916910165     0.826498739762     1.649420694509     1.007825032230
         H            3.613272089835     0.346579739762     1.155435694509     1.007825032230
         H            4.114366089835    -1.171700260238     0.419510694509     1.007825032230
         H           -2.981184910165     1.741776739762    -0.786891305491     1.007825032230
         H           -4.527591910165     1.096123739762    -0.185827305491     1.007825032230
         H           -3.443447910165     1.954647739762     0.918302694509     1.007825032230
         H           -0.446883910165    -0.926780260238    -0.755777305491     1.007825032230
         H            1.991839189835    -1.201374060238    -1.104114205491     1.007825032230
         H            1.247260089835     0.607083739762     1.378728694509     1.007825032230
         H            4.314404089835    -0.028664260238    -1.817149305491     1.007825032230
         H            5.368058089835     0.715564739762    -0.606053305491     1.007825032230
         H            3.844399089835     1.499499739762    -1.062749305491     1.007825032230
         H           -3.717457910165    -1.058719260238    -0.978611305491     1.007825032230

  Basis Set: AUG-CC-PVTZ
    Blend: AUG-CC-PVTZ
  Basis Set: (AUG-CC-PVTZ AUX)
    Blend: AUG-CC-PVTZ-JKFIT
	 Reference Energy          =    -386.0555705755261897 [Eh]
	 Singles Energy            =      -0.0000000000000000 [Eh]
	 Same-Spin Energy          =      -0.4005678858805524 [Eh]
	 Opposite-Spin Energy      =      -1.3791827546729083 [Eh]
	 Correlation Energy        =      -1.7797506405534607 [Eh]
	 Total Energy              =    -387.8353212160796488 [Eh]

	 ================> DF-SCS-MP2 Energies <==================
	-----------------------------------------------------------
	 SCS Same-Spin Scale       =       0.3333333333333333 [-]
	 SCS Opposite-Spin Scale   =       1.2000000000000000 [-]
	 SCS Same-Spin Energy      =      -0.1335226286268508 [Eh]
	 SCS Opposite-Spin Energy  =      -1.6550193056074900 [Eh]
	 SCS Correlation Energy    =      -1.7885419342343407 [Eh]
	 SCS Total Energy          =    -387.8441125097605209 [Eh]
	-----------------------------------------------------------

  Dipole Moment: [D]
     X:    -1.1431      Y:     0.6756      Z:     0.6215     Total:     1.4661

*** Psi4 exiting successfully. Buy a developer a beer!
