                               Psi4 1.3.2 release

  ==> Input File <==

--------------------------------------------------------------------------
#psi4
#
memory 32 gb

molecule  {
0 1
  O       -2.7848290    -0.9154220    -0.7447340
  C       -2.7698910    -0.0438090     0.3861860
  C       -1.3446020     0.1937550     0.7721520
  C        3.5873700    -0.2293000     0.2222030
  C       -3.4755630     1.2700040     0.0649850
  C       -0.2802220    -0.2946410     0.1124460
  C        2.1660230    -0.5131760    -0.1475910
  C        1.0782748    -0.0375840     0.4867580
  C        4.3244450     0.5343730    -0.8803810
  H       -3.2865450    -0.5271910     1.2335890
  H       -1.1970340     0.8260370     1.6487790
  H        3.6131550     0.3461180     1.1547940
  H        4.1142490    -1.1721620     0.4188690
  H       -2.9813020     1.7413150    -0.7875330
  H       -4.5277090     1.0956620    -0.1864690
  H       -3.4435650     1.9541860     0.9176610
  H       -0.4470010    -0.9272420    -0.7564190
  H        1.9875182    -1.1421353    -1.0222050
  H        1.2471430     0.6066220     1.3780870
  H        4.3142870    -0.0291260    -1.8177910
  H        5.3679410     0.7151030    -0.6066950
  H        3.8442820     1.4990380    -1.0633910
  H       -3.7175750    -1.0591810    -0.9792530
units angstrom
no_reorient  #important for SAPT in psi4, default
symmetry c1  #important for SAPT in psi4, default
}

set PROPERTIES_ORIGIN ["COM"]
properties('MP2/aug-cc-pvtz', properties = ['dipole'])
--------------------------------------------------------------------------

    Molecular point group: c1
  Charge       = 0
  Multiplicity = 1
  Basis Set: AUG-CC-PVTZ
    Blend: AUG-CC-PVTZ
  Basis Set: (AUG-CC-PVTZ AUX)
    Blend: AUG-CC-PVTZ-JKFIT

    Orbital Energies [Eh]
    ---------------------

    Doubly Occupied:

       1A    -20.558915     2A    -11.286813     3A    -11.225858
       4A    -11.224228     5A    -11.223805     6A    -11.223236
       7A    -11.221195     8A    -11.220871     9A    -11.213144
      10A     -1.360977    11A     -1.099367    12A     -1.061579
      13A     -1.017555    14A     -0.962711    15A     -0.878069
      16A     -0.829114    17A     -0.752680    18A     -0.746830
      19A     -0.695172    20A     -0.637175    21A     -0.628843
      22A     -0.617322    23A     -0.590344    24A     -0.583890
      25A     -0.546631    26A     -0.543252    27A     -0.525018
      28A     -0.519601    29A     -0.500175    30A     -0.491360
      31A     -0.478354    32A     -0.469938    33A     -0.453337
      34A     -0.420570    35A     -0.296358

  @DF-RHF Final Energy:  -386.06131965729833

   => Energetics <=

    Nuclear Repulsion Energy =            418.4702809059245396
    One-Electron Energy =               -1352.8546282478457670
    Two-Electron Energy =                 548.3230276846229572
    Total Energy =                       -386.0613196572983270
  Basis Set: (AUG-CC-PVTZ AUX)
    Blend: AUG-CC-PVTZ-RI
    Molecular point group: c1

    Geometry (in Angstrom), charge = 0, multiplicity = 1:

       Center              X                  Y                   Z               Mass
    ------------   -----------------  -----------------  -----------------  -----------------
         O           -2.783346159986    -0.914400150478    -0.743286789711    15.994914619570
         C           -2.768408159986    -0.042787150478     0.387633210289    12.000000000000
         C           -1.343119159986     0.194776849522     0.773599210289    12.000000000000
         C            3.588852840014    -0.228278150478     0.223650210289    12.000000000000
         C           -3.474080159986     1.271025849522     0.066432210289    12.000000000000
         C           -0.278739159986    -0.293619150478     0.113893210289    12.000000000000
         C            2.167505840014    -0.512154150478    -0.146143789711    12.000000000000
         C            1.079757640014    -0.036562150478     0.488205210289    12.000000000000
         C            4.325927840014     0.535394849522    -0.878933789711    12.000000000000
         H           -3.285062159986    -0.526169150478     1.235036210289     1.007825032230
         H           -1.195551159986     0.827058849522     1.650226210289     1.007825032230
         H            3.614637840014     0.347139849522     1.156241210289     1.007825032230
         H            4.115731840014    -1.171140150478     0.420316210289     1.007825032230
         H           -2.979819159986     1.742336849522    -0.786085789711     1.007825032230
         H           -4.526226159986     1.096683849522    -0.185021789711     1.007825032230
         H           -3.442082159986     1.955207849522     0.919108210289     1.007825032230
         H           -0.445518159986    -0.926220150478    -0.754971789711     1.007825032230
         H            1.989001040014    -1.141113450478    -1.020757789711     1.007825032230
         H            1.248625840014     0.607643849522     1.379534210289     1.007825032230
         H            4.315769840014    -0.028104150478    -1.816343789711     1.007825032230
         H            5.369423840014     0.716124849522    -0.605247789711     1.007825032230
         H            3.845764840014     1.500059849522    -1.061943789711     1.007825032230
         H           -3.716092159986    -1.058159150478    -0.977805789711     1.007825032230

  Basis Set: AUG-CC-PVTZ
    Blend: AUG-CC-PVTZ
  Basis Set: (AUG-CC-PVTZ AUX)
    Blend: AUG-CC-PVTZ-JKFIT
	 Reference Energy          =    -386.0613196572983270 [Eh]
	 Singles Energy            =      -0.0000000000000000 [Eh]
	 Same-Spin Energy          =      -0.4006851181504460 [Eh]
	 Opposite-Spin Energy      =      -1.3786664388363403 [Eh]
	 Correlation Energy        =      -1.7793515569867864 [Eh]
	 Total Energy              =    -387.8406712142851234 [Eh]

	 ================> DF-SCS-MP2 Energies <==================
	-----------------------------------------------------------
	 SCS Same-Spin Scale       =       0.3333333333333333 [-]
	 SCS Opposite-Spin Scale   =       1.2000000000000000 [-]
	 SCS Same-Spin Energy      =      -0.1335617060501487 [Eh]
	 SCS Opposite-Spin Energy  =      -1.6543997266036083 [Eh]
	 SCS Correlation Energy    =      -1.7879614326537570 [Eh]
	 SCS Total Energy          =    -387.8492810899520578 [Eh]
	-----------------------------------------------------------

  Dipole Moment: [D]
     X:    -1.1719      Y:     0.6424      Z:     0.5710     Total:     1.4533

*** Psi4 exiting successfully. Buy a developer a beer!
