                               Psi4 1.3.2 release

  ==> Input File <==

--------------------------------------------------------------------------
#psi4
#
memory 32 gb

molecule  {
0 1
  O       -2.7848290    -0.9154220    -0.7447340
  C       -2.7698910    -0.0438090     0.3861860
  C       -1.3446020     0.1937550     0.7721520
  C        3.5873700    -0.2293000     0.2222030
  C       -3.4755630     1.2700040     0.0649850
  C       -0.3246347    -0.3263112     0.0679892
  C        2.1660230    -0.5131760    -0.1475910
  C        1.0922740    -0.0266840     0.5021560
  C        4.3244450     0.5343730    -0.8803810
  H       -3.2865450    -0.5271910     1.2335890
  H       -1.2538018     0.8300932     1.6535490
  H        3.6131550     0.3461180     1.1547940
  H        4.1142490    -1.1721620     0.4188690
  H       -2.9813020     1.7413150    -0.7875330
  H       -4.5277090     1.0956620    -0.1864690
  H       -3.4435650     1.9541860     0.9176610
  H       -0.4470010    -0.9272420    -0.7564190
  H        2.0063450    -1.1440610    -1.0244550
  H        1.2471430     0.6066220     1.3780870
  H        4.3142870    -0.0291260    -1.8177910
  H        5.3679410     0.7151030    -0.6066950
  H        3.8442820     1.4990380    -1.0633910
  H       -3.7175750    -1.0591810    -0.9792530
units angstrom
no_reorient  #important for SAPT in psi4, default
symmetry c1  #important for SAPT in psi4, default
}

set PROPERTIES_ORIGIN ["COM"]
properties('MP2/aug-cc-pvtz', properties = ['dipole'])
--------------------------------------------------------------------------

    Molecular point group: c1
  Charge       = 0
  Multiplicity = 1
  Basis Set: AUG-CC-PVTZ
    Blend: AUG-CC-PVTZ
  Basis Set: (AUG-CC-PVTZ AUX)
    Blend: AUG-CC-PVTZ-JKFIT

    Orbital Energies [Eh]
    ---------------------

    Doubly Occupied:

       1A    -20.558140     2A    -11.283685     3A    -11.226551
       4A    -11.224680     5A    -11.223163     6A    -11.222976
       7A    -11.222077     8A    -11.220258     9A    -11.212076
      10A     -1.360411    11A     -1.093203    12A     -1.061577
      13A     -1.012356    14A     -0.962086    15A     -0.873519
      16A     -0.827809    17A     -0.757517    18A     -0.747479
      19A     -0.694532    20A     -0.640216    21A     -0.623802
      22A     -0.616541    23A     -0.590706    24A     -0.578912
      25A     -0.551379    26A     -0.544118    27A     -0.527102
      28A     -0.521002    29A     -0.508102    30A     -0.491849
      31A     -0.478165    32A     -0.459040    33A     -0.451569
      34A     -0.411911    35A     -0.301030

  @DF-RHF Final Energy:  -386.05703261074109

   => Energetics <=

    Nuclear Repulsion Energy =            418.0001518516975239
    One-Electron Energy =               -1351.9552930477202608
    Two-Electron Energy =                 547.8981085852816477
    Total Energy =                       -386.0570326107410892
  Basis Set: (AUG-CC-PVTZ AUX)
    Blend: AUG-CC-PVTZ-RI
    Molecular point group: c1

    Geometry (in Angstrom), charge = 0, multiplicity = 1:

       Center              X                  Y                   Z               Mass
    ------------   -----------------  -----------------  -----------------  -----------------
         O           -2.780148811746    -0.912440701789    -0.740541717355    15.994914619570
         C           -2.765210811746    -0.040827701789     0.390378282645    12.000000000000
         C           -1.339921811746     0.196736298211     0.776344282645    12.000000000000
         C            3.592050188254    -0.226318701789     0.226395282645    12.000000000000
         C           -3.470882811746     1.272985298211     0.069177282645    12.000000000000
         C           -0.319954511746    -0.323329901789     0.072181482645    12.000000000000
         C            2.170703188254    -0.510194701789    -0.143398717355    12.000000000000
         C            1.096954188254    -0.023702701789     0.506348282645    12.000000000000
         C            4.329125188254     0.537354298211    -0.876188717355    12.000000000000
         H           -3.281864811746    -0.524209701789     1.237781282645     1.007825032230
         H           -1.249121611746     0.833074498211     1.657741282645     1.007825032230
         H            3.617835188254     0.349099298211     1.158986282645     1.007825032230
         H            4.118929188254    -1.169180701789     0.423061282645     1.007825032230
         H           -2.976621811746     1.744296298211    -0.783340717355     1.007825032230
         H           -4.523028811746     1.098643298211    -0.182276717355     1.007825032230
         H           -3.438884811746     1.957167298211     0.921853282645     1.007825032230
         H           -0.442320811746    -0.924260701789    -0.752226717355     1.007825032230
         H            2.011025188254    -1.141079701789    -1.020262717355     1.007825032230
         H            1.251823188254     0.609603298211     1.382279282645     1.007825032230
         H            4.318967188254    -0.026144701789    -1.813598717355     1.007825032230
         H            5.372621188254     0.718084298211    -0.602502717355     1.007825032230
         H            3.848962188254     1.502019298211    -1.059198717355     1.007825032230
         H           -3.712894811746    -1.056199701789    -0.975060717355     1.007825032230

  Basis Set: AUG-CC-PVTZ
    Blend: AUG-CC-PVTZ
  Basis Set: (AUG-CC-PVTZ AUX)
    Blend: AUG-CC-PVTZ-JKFIT
	 Reference Energy          =    -386.0570326107410892 [Eh]
	 Singles Energy            =      -0.0000000000000000 [Eh]
	 Same-Spin Energy          =      -0.3997026851445881 [Eh]
	 Opposite-Spin Energy      =      -1.3779870820831004 [Eh]
	 Correlation Energy        =      -1.7776897672276886 [Eh]
	 Total Energy              =    -387.8347223779687738 [Eh]

	 ================> DF-SCS-MP2 Energies <==================
	-----------------------------------------------------------
	 SCS Same-Spin Scale       =       0.3333333333333333 [-]
	 SCS Opposite-Spin Scale   =       1.2000000000000000 [-]
	 SCS Same-Spin Energy      =      -0.1332342283815294 [Eh]
	 SCS Opposite-Spin Energy  =      -1.6535844984997203 [Eh]
	 SCS Correlation Energy    =      -1.7868187268812497 [Eh]
	 SCS Total Energy          =    -387.8438513376223113 [Eh]
	-----------------------------------------------------------

  Dipole Moment: [D]
     X:    -1.2074      Y:     0.6425      Z:     0.5935     Total:     1.4909

*** Psi4 exiting successfully. Buy a developer a beer!
