                               Psi4 1.4a3.dev225

  ==> Input File <==

--------------------------------------------------------------------------
#psi4
#
memory 32 gb

molecule  {
0 1
  O       -2.7624640     1.3159430     0.2248240
  C       -2.8209640    -0.0168770    -0.2887760
  C       -1.4198970    -0.4865040    -0.5315690
  C        3.5469730    -0.0618850    -0.4287090
  C       -3.5485140    -0.9406360     0.6857820
  C       -0.3124200     0.2274490    -0.2577540
  C        2.1505970     0.4383770    -0.2221580
  C        1.0342680    -0.2689350    -0.4861660
  C        4.3265940    -0.1505530     0.8872490
  H       -3.3622360    -0.0200820    -1.2509840
  H       -1.3293920    -1.4912640    -0.9473420
  H        3.5136740    -1.0471260    -0.9088000
  H        4.0812660     0.6062640    -1.1173180
  H       -3.0279280    -0.9272120     1.6463760
  H       -4.5820380    -0.6089360     0.8383050
  H       -3.5770120    -1.9680220     0.3103630
  H       -0.4169546     1.1831674     0.1335462
  H        2.0485920     1.4434520     0.1930580
  H        1.1311650    -1.2755230    -0.8987060
  H        4.3778580     0.8269450     1.3761990
  H        5.3504770    -0.4972710     0.7173650
  H        3.8373540    -0.8453320     1.5752720
  H       -3.6799020     1.6047450     0.3678300
units angstrom
no_reorient  #important for SAPT in psi4, default
symmetry c1  #important for SAPT in psi4, default
}

set PROPERTIES_ORIGIN ["COM"]
properties('MP2/aug-cc-pvtz', properties = ['dipole'])
--------------------------------------------------------------------------

    Molecular point group: c1
  Charge       = 0
  Multiplicity = 1
  Basis Set: AUG-CC-PVTZ
    Blend: AUG-CC-PVTZ
  Basis Set: (AUG-CC-PVTZ AUX)
    Blend: AUG-CC-PVTZ-JKFIT

    Orbital Energies [Eh]
    ---------------------

    Doubly Occupied:

       1A    -20.558945     2A    -11.287036     3A    -11.226415
       4A    -11.223740     5A    -11.223496     6A    -11.223281
       7A    -11.221003     8A    -11.217642     9A    -11.213195
      10A     -1.360235    11A     -1.097917    12A     -1.060919
      13A     -1.016141    14A     -0.962357    15A     -0.876902
      16A     -0.828834    17A     -0.753970    18A     -0.752152
      19A     -0.695197    20A     -0.639521    21A     -0.627106
      22A     -0.616942    23A     -0.590569    24A     -0.582963
      25A     -0.546998    26A     -0.543937    27A     -0.527283
      28A     -0.518955    29A     -0.504384    30A     -0.492993
      31A     -0.479264    32A     -0.468143    33A     -0.452878
      34A     -0.417818    35A     -0.297270

  @DF-RHF Final Energy:  -386.06163931214530

   => Energetics <=

    Nuclear Repulsion Energy =            417.9771557869863727
    One-Electron Energy =               -1351.8647887942593115
    Two-Electron Energy =                 547.8259936951276359
    Total Energy =                       -386.0616393121453029
  Basis Set: (AUG-CC-PVTZ AUX)
    Blend: AUG-CC-PVTZ-RI
    Molecular point group: c1

    Geometry (in Angstrom), charge = 0, multiplicity = 1:

       Center              X                  Y                   Z               Mass
    ------------   -----------------  -----------------  -----------------  -----------------
         O           -2.728312530812     1.292995109078     0.241144452166    15.994914619570
         C           -2.786812530812    -0.039824890922    -0.272455547834    12.000000000000
         C           -1.385745530812    -0.509451890922    -0.515248547834    12.000000000000
         C            3.581124469188    -0.084832890922    -0.412388547834    12.000000000000
         C           -3.514362530812    -0.963583890922     0.702102452166    12.000000000000
         C           -0.278268530812     0.204501109078    -0.241433547834    12.000000000000
         C            2.184748469188     0.415429109078    -0.205837547834    12.000000000000
         C            1.068419469188    -0.291882890922    -0.469845547834    12.000000000000
         C            4.360745469188    -0.173500890922     0.903569452166    12.000000000000
         H           -3.328084530812    -0.043029890922    -1.234663547834     1.007825032230
         H           -1.295240530812    -1.514211890922    -0.931021547834     1.007825032230
         H            3.547825469188    -1.070073890922    -0.892479547834     1.007825032230
         H            4.115417469188     0.583316109078    -1.100997547834     1.007825032230
         H           -2.993776530812    -0.950159890922     1.662696452166     1.007825032230
         H           -4.547886530812    -0.631883890922     0.854625452166     1.007825032230
         H           -3.542860530812    -1.990969890922     0.326683452166     1.007825032230
         H           -0.382803130812     1.160219509078     0.149866652166     1.007825032230
         H            2.082743469188     1.420504109078     0.209378452166     1.007825032230
         H            1.165316469188    -1.298470890922    -0.882385547834     1.007825032230
         H            4.412009469188     0.803997109078     1.392519452166     1.007825032230
         H            5.384628469188    -0.520218890922     0.733685452166     1.007825032230
         H            3.871505469188    -0.868279890922     1.591592452166     1.007825032230
         H           -3.645750530812     1.581797109078     0.384150452166     1.007825032230

  Basis Set: AUG-CC-PVTZ
    Blend: AUG-CC-PVTZ
  Basis Set: (AUG-CC-PVTZ AUX)
    Blend: AUG-CC-PVTZ-JKFIT
	 Reference Energy          =    -386.0616393121453029 [Eh]
	 Singles Energy            =      -0.0000000000000000 [Eh]
	 Same-Spin Energy          =      -0.4001034918732539 [Eh]
	 Opposite-Spin Energy      =      -1.3780369953784650 [Eh]
	 Correlation Energy        =      -1.7781404872517190 [Eh]
	 Total Energy              =    -387.8397797993970357 [Eh]

	 ================> DF-SCS-MP2 Energies <==================
	-----------------------------------------------------------
	 SCS Same-Spin Scale       =       0.3333333333333333 [-]
	 SCS Opposite-Spin Scale   =       1.2000000000000000 [-]
	 SCS Same-Spin Energy      =      -0.1333678306244180 [Eh]
	 SCS Opposite-Spin Energy  =      -1.6536443944541579 [Eh]
	 SCS Correlation Energy    =      -1.7870122250785758 [Eh]
	 SCS Total Energy          =    -387.8486515372238728 [Eh]
	-----------------------------------------------------------

  Dipole Moment: [D]
     X:    -1.2019      Y:    -0.7917      Z:    -0.1426     Total:     1.4462

*** Psi4 exiting successfully. Buy a developer a beer!
