                               Psi4 1.3.2 release

  ==> Input File <==

--------------------------------------------------------------------------
#psi4
#
memory 32 gb

molecule  {
0 1
  O       -2.7848290    -0.9154220    -0.7447340
  C       -2.7698910    -0.0438090     0.3861860
  C       -1.3446020     0.1937550     0.7721520
  C        3.5873700    -0.2293000     0.2222030
  C       -3.4755630     1.2700040     0.0649850
  C       -0.2802220    -0.2946410     0.1124460
  C        2.1660230    -0.5131760    -0.1475910
  C        1.0922740    -0.0266840     0.5021560
  C        4.3244450     0.5343730    -0.8803810
  H       -3.2865450    -0.5271910     1.2335890
  H       -1.1970340     0.8260370     1.6487790
  H        3.6131550     0.3461180     1.1547940
  H        4.1142490    -1.1721620     0.4188690
  H       -2.9813020     1.7413150    -0.7875330
  H       -4.5277090     1.0956620    -0.1864690
  H       -3.4435650     1.9541860     0.9176610
  H       -0.4470010    -0.9272420    -0.7564190
  H        2.0063450    -1.1440610    -1.0244550
  H        1.2329600     0.5486233     1.2978686
  H        4.3142870    -0.0291260    -1.8177910
  H        5.3679410     0.7151030    -0.6066950
  H        3.8442820     1.4990380    -1.0633910
  H       -3.7175750    -1.0591810    -0.9792530
units angstrom
no_reorient  #important for SAPT in psi4, default
symmetry c1  #important for SAPT in psi4, default
}

set PROPERTIES_ORIGIN ["COM"]
properties('MP2/aug-cc-pvtz', properties = ['dipole'])
--------------------------------------------------------------------------

    Molecular point group: c1
  Charge       = 0
  Multiplicity = 1
  Basis Set: AUG-CC-PVTZ
    Blend: AUG-CC-PVTZ
  Basis Set: (AUG-CC-PVTZ AUX)
    Blend: AUG-CC-PVTZ-JKFIT

    Orbital Energies [Eh]
    ---------------------

    Doubly Occupied:

       1A    -20.558461     2A    -11.286227     3A    -11.225090
       4A    -11.223312     5A    -11.222808     6A    -11.221103
       7A    -11.220437     8A    -11.212979     9A    -11.211069
      10A     -1.360489    11A     -1.099909    12A     -1.061174
      13A     -1.017114    14A     -0.963286    15A     -0.877101
      16A     -0.829560    17A     -0.763772    18A     -0.748839
      19A     -0.696933    20A     -0.638745    21A     -0.627388
      22A     -0.617842    23A     -0.594162    24A     -0.583708
      25A     -0.546529    26A     -0.544178    27A     -0.530771
      28A     -0.518858    29A     -0.501763    30A     -0.493888
      31A     -0.479395    32A     -0.468597    33A     -0.452583
      34A     -0.417721    35A     -0.297074

  @DF-RHF Final Energy:  -386.05695288763940

   => Energetics <=

    Nuclear Repulsion Energy =            418.7627586935931276
    One-Electron Energy =               -1353.4136877044161338
    Two-Electron Energy =                 548.5939761231835519
    Total Energy =                       -386.0569528876394543
  Basis Set: (AUG-CC-PVTZ AUX)
    Blend: AUG-CC-PVTZ-RI
    Molecular point group: c1

    Geometry (in Angstrom), charge = 0, multiplicity = 1:

       Center              X                  Y                   Z               Mass
    ------------   -----------------  -----------------  -----------------  -----------------
         O           -2.784715425839    -0.914958470832    -0.744092964829    15.994914619570
         C           -2.769777425839    -0.043345470832     0.386827035171    12.000000000000
         C           -1.344488425839     0.194218529168     0.772793035171    12.000000000000
         C            3.587483574161    -0.228836470832     0.222844035171    12.000000000000
         C           -3.475449425839     1.270467529168     0.065626035171    12.000000000000
         C           -0.280108425839    -0.294177470832     0.113087035171    12.000000000000
         C            2.166136574161    -0.512712470832    -0.146949964829    12.000000000000
         C            1.092387574161    -0.026220470832     0.502797035171    12.000000000000
         C            4.324558574161     0.534836529168    -0.879739964829    12.000000000000
         H           -3.286431425839    -0.526727470832     1.234230035171     1.007825032230
         H           -1.196920425839     0.826500529168     1.649420035171     1.007825032230
         H            3.613268574161     0.346581529168     1.155435035171     1.007825032230
         H            4.114362574161    -1.171698470832     0.419510035171     1.007825032230
         H           -2.981188425839     1.741778529168    -0.786891964829     1.007825032230
         H           -4.527595425839     1.096125529168    -0.185827964829     1.007825032230
         H           -3.443451425839     1.954649529168     0.918302035171     1.007825032230
         H           -0.446887425839    -0.926778470832    -0.755777964829     1.007825032230
         H            2.006458574161    -1.143597470832    -1.023813964829     1.007825032230
         H            1.233073574161     0.549086829168     1.298509635171     1.007825032230
         H            4.314400574161    -0.028662470832    -1.817149964829     1.007825032230
         H            5.368054574161     0.715566529168    -0.606053964829     1.007825032230
         H            3.844395574161     1.499501529168    -1.062749964829     1.007825032230
         H           -3.717461425839    -1.058717470832    -0.978611964829     1.007825032230

  Basis Set: AUG-CC-PVTZ
    Blend: AUG-CC-PVTZ
  Basis Set: (AUG-CC-PVTZ AUX)
    Blend: AUG-CC-PVTZ-JKFIT
	 Reference Energy          =    -386.0569528876393974 [Eh]
	 Singles Energy            =      -0.0000000000000000 [Eh]
	 Same-Spin Energy          =      -0.4001346502923602 [Eh]
	 Opposite-Spin Energy      =      -1.3777392666318575 [Eh]
	 Correlation Energy        =      -1.7778739169242177 [Eh]
	 Total Energy              =    -387.8348268045635905 [Eh]

	 ================> DF-SCS-MP2 Energies <==================
	-----------------------------------------------------------
	 SCS Same-Spin Scale       =       0.3333333333333333 [-]
	 SCS Opposite-Spin Scale   =       1.2000000000000000 [-]
	 SCS Same-Spin Energy      =      -0.1333782167641200 [Eh]
	 SCS Opposite-Spin Energy  =      -1.6532871199582291 [Eh]
	 SCS Correlation Energy    =      -1.7866653367223491 [Eh]
	 SCS Total Energy          =    -387.8436182243617623 [Eh]
	-----------------------------------------------------------

  Dipole Moment: [D]
     X:    -1.1298      Y:     0.6632      Z:     0.6089     Total:     1.4446

*** Psi4 exiting successfully. Buy a developer a beer!
