                               Psi4 1.3.2 release

  ==> Input File <==

--------------------------------------------------------------------------
#psi4
#
memory 32 gb

molecule  {
0 1
  O       -2.7848290    -0.9154220    -0.7447340
  C       -2.7698910    -0.0438090     0.3861860
  C       -1.3446020     0.1937550     0.7721520
  C        3.5873700    -0.2293000     0.2222030
  C       -3.4755630     1.2700040     0.0649850
  C       -0.2802220    -0.2946410     0.1124460
  C        2.1660230    -0.5131760    -0.1475910
  C        1.0922740    -0.0266840     0.5021560
  C        4.3244450     0.5343730    -0.8803810
  H       -3.2865450    -0.5271910     1.2335890
  H       -1.1970340     0.8260370     1.6487790
  H        3.6131550     0.3461180     1.1547940
  H        4.1142490    -1.1721620     0.4188690
  H       -2.9813020     1.7413150    -0.7875330
  H       -4.5277090     1.0956620    -0.1864690
  H       -3.4435650     1.9541860     0.9176610
  H       -0.4470010    -0.9272420    -0.7564190
  H        2.0063450    -1.1440610    -1.0244550
  H        1.2187770     0.4906247     1.2176501
  H        4.3142870    -0.0291260    -1.8177910
  H        5.3679410     0.7151030    -0.6066950
  H        3.8442820     1.4990380    -1.0633910
  H       -3.7175750    -1.0591810    -0.9792530
units angstrom
no_reorient  #important for SAPT in psi4, default
symmetry c1  #important for SAPT in psi4, default
}

set PROPERTIES_ORIGIN ["COM"]
properties('MP2/aug-cc-pvtz', properties = ['dipole'])
--------------------------------------------------------------------------

    Molecular point group: c1
  Charge       = 0
  Multiplicity = 1
  Basis Set: AUG-CC-PVTZ
    Blend: AUG-CC-PVTZ
  Basis Set: (AUG-CC-PVTZ AUX)
    Blend: AUG-CC-PVTZ-JKFIT

    Orbital Energies [Eh]
    ---------------------

    Doubly Occupied:

       1A    -20.558229     2A    -11.286013     3A    -11.224830
       4A    -11.223480     5A    -11.222300     6A    -11.220455
       7A    -11.220259     8A    -11.213146     9A    -11.198810
      10A     -1.360248    11A     -1.103335    12A     -1.061112
      13A     -1.018747    14A     -0.964683    15A     -0.878116
      16A     -0.831606    17A     -0.779092    18A     -0.748586
      19A     -0.698426    20A     -0.640588    21A     -0.627378
      22A     -0.618501    23A     -0.598099    24A     -0.583997
      25A     -0.546993    26A     -0.544796    27A     -0.533215
      28A     -0.518830    29A     -0.502515    30A     -0.494669
      31A     -0.479611    32A     -0.468875    33A     -0.452350
      34A     -0.417398    35A     -0.296845

  @DF-RHF Final Energy:  -386.02898876517639

   => Energetics <=

    Nuclear Repulsion Energy =            419.3239047104606811
    One-Electron Energy =               -1354.4335176288007005
    Two-Electron Energy =                 549.0806241531636260
    Total Energy =                       -386.0289887651763365
  Basis Set: (AUG-CC-PVTZ AUX)
    Blend: AUG-CC-PVTZ-RI
    Molecular point group: c1

    Geometry (in Angstrom), charge = 0, multiplicity = 1:

       Center              X                  Y                   Z               Mass
    ------------   -----------------  -----------------  -----------------  -----------------
         O           -2.784602075511    -0.914494946873    -0.743451859756    15.994914619570
         C           -2.769664075511    -0.042881946873     0.387468140244    12.000000000000
         C           -1.344375075511     0.194682053127     0.773434140244    12.000000000000
         C            3.587596924489    -0.228372946873     0.223485140244    12.000000000000
         C           -3.475336075511     1.270931053127     0.066267140244    12.000000000000
         C           -0.279995075511    -0.293713946873     0.113728140244    12.000000000000
         C            2.166249924489    -0.512248946873    -0.146308859756    12.000000000000
         C            1.092500924489    -0.025756946873     0.503438140244    12.000000000000
         C            4.324671924489     0.535300053127    -0.879098859756    12.000000000000
         H           -3.286318075511    -0.526263946873     1.234871140244     1.007825032230
         H           -1.196807075511     0.826964053127     1.650061140244     1.007825032230
         H            3.613381924489     0.347045053127     1.156076140244     1.007825032230
         H            4.114475924489    -1.171234946873     0.420151140244     1.007825032230
         H           -2.981075075511     1.742242053127    -0.786250859756     1.007825032230
         H           -4.527482075511     1.096589053127    -0.185186859756     1.007825032230
         H           -3.443338075511     1.955113053127     0.918943140244     1.007825032230
         H           -0.446774075511    -0.926314946873    -0.755136859756     1.007825032230
         H            2.006571924489    -1.143133946873    -1.023172859756     1.007825032230
         H            1.219003924489     0.491551753127     1.218932240244     1.007825032230
         H            4.314513924489    -0.028198946873    -1.816508859756     1.007825032230
         H            5.368167924489     0.716030053127    -0.605412859756     1.007825032230
         H            3.844508924489     1.499965053127    -1.062108859756     1.007825032230
         H           -3.717348075511    -1.058253946873    -0.977970859756     1.007825032230

  Basis Set: AUG-CC-PVTZ
    Blend: AUG-CC-PVTZ
  Basis Set: (AUG-CC-PVTZ AUX)
    Blend: AUG-CC-PVTZ-JKFIT
	 Reference Energy          =    -386.0289887651763934 [Eh]
	 Singles Energy            =      -0.0000000000000000 [Eh]
	 Same-Spin Energy          =      -0.4000214633633158 [Eh]
	 Opposite-Spin Energy      =      -1.3775899756812642 [Eh]
	 Correlation Energy        =      -1.7776114390445801 [Eh]
	 Total Energy              =    -387.8066002042209561 [Eh]

	 ================> DF-SCS-MP2 Energies <==================
	-----------------------------------------------------------
	 SCS Same-Spin Scale       =       0.3333333333333333 [-]
	 SCS Opposite-Spin Scale   =       1.2000000000000000 [-]
	 SCS Same-Spin Energy      =      -0.1333404877877719 [Eh]
	 SCS Opposite-Spin Energy  =      -1.6531079708175169 [Eh]
	 SCS Correlation Energy    =      -1.7864484586052889 [Eh]
	 SCS Total Energy          =    -387.8154372237816574 [Eh]
	-----------------------------------------------------------

  Dipole Moment: [D]
     X:    -1.1007      Y:     0.6764      Z:     0.6284     Total:     1.4367

*** Psi4 exiting successfully. Buy a developer a beer!
