                               Psi4 1.3.2 release

  ==> Input File <==

--------------------------------------------------------------------------
#psi4
#
memory 32 gb

molecule  {
0 1
  O       -2.7848290    -0.9154220    -0.7447340
  C       -2.7719833    -0.1658918     0.2277833
  C       -1.3446020     0.1937550     0.7721520
  C        3.5873700    -0.2293000     0.2222030
  C       -3.4755630     1.2700040     0.0649850
  C       -0.2802220    -0.2946410     0.1124460
  C        2.1660230    -0.5131760    -0.1475910
  C        1.0922740    -0.0266840     0.5021560
  C        4.3244450     0.5343730    -0.8803810
  H       -3.2865450    -0.5271910     1.2335890
  H       -1.1970340     0.8260370     1.6487790
  H        3.6131550     0.3461180     1.1547940
  H        4.1142490    -1.1721620     0.4188690
  H       -2.9813020     1.7413150    -0.7875330
  H       -4.5277090     1.0956620    -0.1864690
  H       -3.4435650     1.9541860     0.9176610
  H       -0.4470010    -0.9272420    -0.7564190
  H        2.0063450    -1.1440610    -1.0244550
  H        1.2471430     0.6066220     1.3780870
  H        4.3142870    -0.0291260    -1.8177910
  H        5.3679410     0.7151030    -0.6066950
  H        3.8442820     1.4990380    -1.0633910
  H       -3.7175750    -1.0591810    -0.9792530
units angstrom
no_reorient  #important for SAPT in psi4, default
symmetry c1  #important for SAPT in psi4, default
}

set PROPERTIES_ORIGIN ["COM"]
properties('MP2/aug-cc-pvtz', properties = ['dipole'])
--------------------------------------------------------------------------

    Molecular point group: c1
  Charge       = 0
  Multiplicity = 1
  Basis Set: AUG-CC-PVTZ
    Blend: AUG-CC-PVTZ
  Basis Set: (AUG-CC-PVTZ AUX)
    Blend: AUG-CC-PVTZ-JKFIT

    Orbital Energies [Eh]
    ---------------------

    Doubly Occupied:

       1A    -20.586034     2A    -11.296549     3A    -11.223213
       4A    -11.222290     5A    -11.221109     6A    -11.220319
       7A    -11.215992     8A    -11.215677     9A    -11.211254
      10A     -1.467601    11A     -1.093587    12A     -1.051444
      13A     -1.000055    14A     -0.955076    15A     -0.875528
      16A     -0.835482    17A     -0.769658    18A     -0.750483
      19A     -0.714373    20A     -0.666977    21A     -0.646259
      22A     -0.625801    23A     -0.598989    24A     -0.582317
      25A     -0.553235    26A     -0.543314    27A     -0.536371
      28A     -0.516903    29A     -0.504352    30A     -0.484609
      31A     -0.475668    32A     -0.438947    33A     -0.434582
      34A     -0.399871    35A     -0.291302

  @DF-RHF Final Energy:  -386.01757838493120

   => Energetics <=

    Nuclear Repulsion Energy =            419.7791441069348934
    One-Electron Energy =               -1355.1429969937648821
    Two-Electron Energy =                 549.3462745018988471
    Total Energy =                       -386.0175783849311983
  Basis Set: (AUG-CC-PVTZ AUX)
    Blend: AUG-CC-PVTZ-RI
    Molecular point group: c1

    Geometry (in Angstrom), charge = 0, multiplicity = 1:

       Center              X                  Y                   Z               Mass
    ------------   -----------------  -----------------  -----------------  -----------------
         O           -2.784629674573    -0.903804694021    -0.729660594910    15.994914619570
         C           -2.771783974573    -0.154274494021     0.242856705090    12.000000000000
         C           -1.344402674573     0.205372305979     0.787225405090    12.000000000000
         C            3.587569325427    -0.217682694021     0.237276405090    12.000000000000
         C           -3.475363674573     1.281621305979     0.080058405090    12.000000000000
         C           -0.280022674573    -0.283023694021     0.127519405090    12.000000000000
         C            2.166222325427    -0.501558694021    -0.132517594910    12.000000000000
         C            1.092473325427    -0.015066694021     0.517229405090    12.000000000000
         C            4.324644325427     0.545990305979    -0.865307594910    12.000000000000
         H           -3.286345674573    -0.515573694021     1.248662405090     1.007825032230
         H           -1.196834674573     0.837654305979     1.663852405090     1.007825032230
         H            3.613354325427     0.357735305979     1.169867405090     1.007825032230
         H            4.114448325427    -1.160544694021     0.433942405090     1.007825032230
         H           -2.981102674573     1.752932305979    -0.772459594910     1.007825032230
         H           -4.527509674573     1.107279305979    -0.171395594910     1.007825032230
         H           -3.443365674573     1.965803305979     0.932734405090     1.007825032230
         H           -0.446801674573    -0.915624694021    -0.741345594910     1.007825032230
         H            2.006544325427    -1.132443694021    -1.009381594910     1.007825032230
         H            1.247342325427     0.618239305979     1.393160405090     1.007825032230
         H            4.314486325427    -0.017508694021    -1.802717594910     1.007825032230
         H            5.368140325427     0.726720305979    -0.591621594910     1.007825032230
         H            3.844481325427     1.510655305979    -1.048317594910     1.007825032230
         H           -3.717375674573    -1.047563694021    -0.964179594910     1.007825032230

  Basis Set: AUG-CC-PVTZ
    Blend: AUG-CC-PVTZ
  Basis Set: (AUG-CC-PVTZ AUX)
    Blend: AUG-CC-PVTZ-JKFIT
	 Reference Energy          =    -386.0175783849311983 [Eh]
	 Singles Energy            =      -0.0000000000000000 [Eh]
	 Same-Spin Energy          =      -0.4012339387612398 [Eh]
	 Opposite-Spin Energy      =      -1.3774139196687791 [Eh]
	 Correlation Energy        =      -1.7786478584300189 [Eh]
	 Total Energy              =    -387.7962262433612182 [Eh]

	 ================> DF-SCS-MP2 Energies <==================
	-----------------------------------------------------------
	 SCS Same-Spin Scale       =       0.3333333333333333 [-]
	 SCS Opposite-Spin Scale   =       1.2000000000000000 [-]
	 SCS Same-Spin Energy      =      -0.1337446462537466 [Eh]
	 SCS Opposite-Spin Energy  =      -1.6528967036025348 [Eh]
	 SCS Correlation Energy    =      -1.7866413498562814 [Eh]
	 SCS Total Energy          =    -387.8042197347874662 [Eh]
	-----------------------------------------------------------

  Dipole Moment: [D]
     X:    -1.3746      Y:     0.1267      Z:    -0.0021     Total:     1.3804

*** Psi4 exiting successfully. Buy a developer a beer!
