                               Psi4 1.3.2 release

  ==> Input File <==

--------------------------------------------------------------------------
#psi4
#
memory 32 gb

molecule  {
0 1
  O       -2.7848290    -0.9154220    -0.7447340
  C       -2.7698910    -0.0438090     0.3861860
  C       -1.3446020     0.1937550     0.7721520
  C        3.5873700    -0.2293000     0.2222030
  C       -3.4755630     1.2700040     0.0649850
  C       -0.2842951    -0.2875418     0.1221155
  C        2.1730645    -0.5076911    -0.1399551
  C        1.0922740    -0.0266840     0.5021560
  C        4.3244450     0.5343730    -0.8803810
  H       -3.2865450    -0.5271910     1.2335890
  H       -1.1970340     0.8260370     1.6487790
  H        3.6131550     0.3461180     1.1547940
  H        4.1142490    -1.1721620     0.4188690
  H       -2.9813020     1.7413150    -0.7875330
  H       -4.5277090     1.0956620    -0.1864690
  H       -3.4435650     1.9541860     0.9176610
  H       -0.4470010    -0.9272420    -0.7564190
  H        2.0063450    -1.1440610    -1.0244550
  H        1.2471430     0.6066220     1.3780870
  H        4.3142870    -0.0291260    -1.8177910
  H        5.3679410     0.7151030    -0.6066950
  H        3.8442820     1.4990380    -1.0633910
  H       -3.7175750    -1.0591810    -0.9792530
units angstrom
no_reorient  #important for SAPT in psi4, default
symmetry c1  #important for SAPT in psi4, default
}

set PROPERTIES_ORIGIN ["COM"]
properties('MP2/aug-cc-pvtz', properties = ['dipole'])
--------------------------------------------------------------------------

    Molecular point group: c1
  Charge       = 0
  Multiplicity = 1
  Basis Set: AUG-CC-PVTZ
    Blend: AUG-CC-PVTZ
  Basis Set: (AUG-CC-PVTZ AUX)
    Blend: AUG-CC-PVTZ-JKFIT

    Orbital Energies [Eh]
    ---------------------

    Doubly Occupied:

       1A    -20.558762     2A    -11.286713     3A    -11.226610
       4A    -11.223361     5A    -11.223040     6A    -11.222554
       7A    -11.220875     8A    -11.220766     9A    -11.213186
      10A     -1.360826    11A     -1.098759    12A     -1.062971
      13A     -1.016402    14A     -0.963472    15A     -0.877303
      16A     -0.829801    17A     -0.751567    18A     -0.746353
      19A     -0.695076    20A     -0.637079    21A     -0.628755
      22A     -0.617479    23A     -0.591197    24A     -0.583388
      25A     -0.546255    26A     -0.542846    27A     -0.526569
      28A     -0.520081    29A     -0.499601    30A     -0.492411
      31A     -0.478036    32A     -0.468198    33A     -0.453200
      34A     -0.418895    35A     -0.299042

  @DF-RHF Final Energy:  -386.06240128372315

   => Energetics <=

    Nuclear Repulsion Energy =            418.4132396246174039
    One-Electron Energy =               -1352.7484192291735781
    Two-Electron Energy =                 548.2727783208330266
    Total Energy =                       -386.0624012837231476
  Basis Set: (AUG-CC-PVTZ AUX)
    Blend: AUG-CC-PVTZ-RI
    Molecular point group: c1

    Geometry (in Angstrom), charge = 0, multiplicity = 1:

       Center              X                  Y                   Z               Mass
    ------------   -----------------  -----------------  -----------------  -----------------
         O           -2.785111246736    -0.916619488478    -0.746380837122    15.994914619570
         C           -2.770173246736    -0.045006488478     0.384539162878    12.000000000000
         C           -1.344884246736     0.192557511522     0.770505162878    12.000000000000
         C            3.587087753264    -0.230497488478     0.220556162878    12.000000000000
         C           -3.475845246736     1.268806511522     0.063338162878    12.000000000000
         C           -0.284577346736    -0.288739288478     0.120468662878    12.000000000000
         C            2.172782253264    -0.508888588478    -0.141601937122    12.000000000000
         C            1.091991753264    -0.027881488478     0.500509162878    12.000000000000
         C            4.324162753264     0.533175511522    -0.882027837122    12.000000000000
         H           -3.286827246736    -0.528388488478     1.231942162878     1.007825032230
         H           -1.197316246736     0.824839511522     1.647132162878     1.007825032230
         H            3.612872753264     0.344920511522     1.153147162878     1.007825032230
         H            4.113966753264    -1.173359488478     0.417222162878     1.007825032230
         H           -2.981584246736     1.740117511522    -0.789179837122     1.007825032230
         H           -4.527991246736     1.094464511522    -0.188115837122     1.007825032230
         H           -3.443847246736     1.952988511522     0.916014162878     1.007825032230
         H           -0.447283246736    -0.928439488478    -0.758065837122     1.007825032230
         H            2.006062753264    -1.145258488478    -1.026101837122     1.007825032230
         H            1.246860753264     0.605424511522     1.376440162878     1.007825032230
         H            4.314004753264    -0.030323488478    -1.819437837122     1.007825032230
         H            5.367658753264     0.713905511522    -0.608341837122     1.007825032230
         H            3.843999753264     1.497840511522    -1.065037837122     1.007825032230
         H           -3.717857246736    -1.060378488478    -0.980899837122     1.007825032230

  Basis Set: AUG-CC-PVTZ
    Blend: AUG-CC-PVTZ
  Basis Set: (AUG-CC-PVTZ AUX)
    Blend: AUG-CC-PVTZ-JKFIT
	 Reference Energy          =    -386.0624012837231476 [Eh]
	 Singles Energy            =      -0.0000000000000000 [Eh]
	 Same-Spin Energy          =      -0.4003693085138777 [Eh]
	 Opposite-Spin Energy      =      -1.3781901055235510 [Eh]
	 Correlation Energy        =      -1.7785594140374288 [Eh]
	 Total Energy              =    -387.8409606977605790 [Eh]

	 ================> DF-SCS-MP2 Energies <==================
	-----------------------------------------------------------
	 SCS Same-Spin Scale       =       0.3333333333333333 [-]
	 SCS Opposite-Spin Scale   =       1.2000000000000000 [-]
	 SCS Same-Spin Energy      =      -0.1334564361712925 [Eh]
	 SCS Opposite-Spin Energy  =      -1.6538281266282613 [Eh]
	 SCS Correlation Energy    =      -1.7872845627995537 [Eh]
	 SCS Total Energy          =    -387.8496858465226751 [Eh]
	-----------------------------------------------------------

  Dipole Moment: [D]
     X:    -1.1526      Y:     0.6474      Z:     0.5800     Total:     1.4436

*** Psi4 exiting successfully. Buy a developer a beer!
