                               Psi4 1.3.2 release

  ==> Input File <==

--------------------------------------------------------------------------
#psi4
#
memory 32 gb

molecule  {
0 1
  O       -2.7848290    -0.9154220    -0.7447340
  C       -2.7698910    -0.0438090     0.3861860
  C       -1.3001867     0.2257223     0.8163931
  C        3.5873700    -0.2293000     0.2222030
  C       -3.4755630     1.2700040     0.0649850
  C       -0.2802220    -0.2946410     0.1124460
  C        2.1660230    -0.5131760    -0.1475910
  C        1.0922740    -0.0266840     0.5021560
  C        4.3244450     0.5343730    -0.8803810
  H       -3.2865450    -0.5271910     1.2335890
  H       -1.1970340     0.8260370     1.6487790
  H        3.6131550     0.3461180     1.1547940
  H        4.1142490    -1.1721620     0.4188690
  H       -2.9813020     1.7413150    -0.7875330
  H       -4.5277090     1.0956620    -0.1864690
  H       -3.4435650     1.9541860     0.9176610
  H       -0.3905247    -0.9317678    -0.7620987
  H        2.0063450    -1.1440610    -1.0244550
  H        1.2471430     0.6066220     1.3780870
  H        4.3142870    -0.0291260    -1.8177910
  H        5.3679410     0.7151030    -0.6066950
  H        3.8442820     1.4990380    -1.0633910
  H       -3.7175750    -1.0591810    -0.9792530
units angstrom
no_reorient  #important for SAPT in psi4, default
symmetry c1  #important for SAPT in psi4, default
}

set PROPERTIES_ORIGIN ["COM"]
properties('MP2/aug-cc-pvtz', properties = ['dipole'])
--------------------------------------------------------------------------

    Molecular point group: c1
  Charge       = 0
  Multiplicity = 1
  Basis Set: AUG-CC-PVTZ
    Blend: AUG-CC-PVTZ
  Basis Set: (AUG-CC-PVTZ AUX)
    Blend: AUG-CC-PVTZ-JKFIT

    Orbital Energies [Eh]
    ---------------------

    Doubly Occupied:

       1A    -20.558751     2A    -11.288099     3A    -11.225115
       4A    -11.224613     5A    -11.222675     6A    -11.222052
       7A    -11.221144     8A    -11.219357     9A    -11.212511
      10A     -1.359000    11A     -1.097913    12A     -1.057858
      13A     -1.014009    14A     -0.961556    15A     -0.872667
      16A     -0.825134    17A     -0.760745    18A     -0.750305
      19A     -0.692249    20A     -0.637022    21A     -0.627089
      22A     -0.615360    23A     -0.591036    24A     -0.584972
      25A     -0.553152    26A     -0.543179    27A     -0.525135
      28A     -0.520027    29A     -0.506009    30A     -0.489021
      31A     -0.478061    32A     -0.458121    33A     -0.450360
      34A     -0.419495    35A     -0.297938

  @DF-RHF Final Energy:  -386.05722170532385

   => Energetics <=

    Nuclear Repulsion Energy =            417.6309093475737768
    One-Electron Energy =               -1351.2128094033525940
    Two-Electron Energy =                 547.5246783504549057
    Total Energy =                       -386.0572217053238546
  Basis Set: (AUG-CC-PVTZ AUX)
    Blend: AUG-CC-PVTZ-RI
    Molecular point group: c1

    Geometry (in Angstrom), charge = 0, multiplicity = 1:

       Center              X                  Y                   Z               Mass
    ------------   -----------------  -----------------  -----------------  -----------------
         O           -2.789506658338    -0.918427808155    -0.748898624703    15.994914619570
         C           -2.774568658338    -0.046814808155     0.382021375297    12.000000000000
         C           -1.304864358338     0.222716491845     0.812228475297    12.000000000000
         C            3.582692341662    -0.232305808155     0.218038375297    12.000000000000
         C           -3.480240658338     1.266998191845     0.060820375297    12.000000000000
         C           -0.284899658338    -0.297646808155     0.108281375297    12.000000000000
         C            2.161345341662    -0.516181808155    -0.151755624703    12.000000000000
         C            1.087596341662    -0.029689808155     0.497991375297    12.000000000000
         C            4.319767341662     0.531367191845    -0.884545624703    12.000000000000
         H           -3.291222658338    -0.530196808155     1.229424375297     1.007825032230
         H           -1.201711658338     0.823031191845     1.644614375297     1.007825032230
         H            3.608477341662     0.343112191845     1.150629375297     1.007825032230
         H            4.109571341662    -1.175167808155     0.414704375297     1.007825032230
         H           -2.985979658338     1.738309191845    -0.791697624703     1.007825032230
         H           -4.532386658338     1.092656191845    -0.190633624703     1.007825032230
         H           -3.448242658338     1.951180191845     0.913496375297     1.007825032230
         H           -0.395202358338    -0.934773608155    -0.766263324703     1.007825032230
         H            2.001667341662    -1.147066808155    -1.028619624703     1.007825032230
         H            1.242465341662     0.603616191845     1.373922375297     1.007825032230
         H            4.309609341662    -0.032131808155    -1.821955624703     1.007825032230
         H            5.363263341662     0.712097191845    -0.610859624703     1.007825032230
         H            3.839604341662     1.496032191845    -1.067555624703     1.007825032230
         H           -3.722252658338    -1.062186808155    -0.983417624703     1.007825032230

  Basis Set: AUG-CC-PVTZ
    Blend: AUG-CC-PVTZ
  Basis Set: (AUG-CC-PVTZ AUX)
    Blend: AUG-CC-PVTZ-JKFIT
	 Reference Energy          =    -386.0572217053238546 [Eh]
	 Singles Energy            =      -0.0000000000000000 [Eh]
	 Same-Spin Energy          =      -0.3998835703717725 [Eh]
	 Opposite-Spin Energy      =      -1.3780508282521755 [Eh]
	 Correlation Energy        =      -1.7779343986239480 [Eh]
	 Total Energy              =    -387.8351561039477815 [Eh]

	 ================> DF-SCS-MP2 Energies <==================
	-----------------------------------------------------------
	 SCS Same-Spin Scale       =       0.3333333333333333 [-]
	 SCS Opposite-Spin Scale   =       1.2000000000000000 [-]
	 SCS Same-Spin Energy      =      -0.1332945234572575 [Eh]
	 SCS Opposite-Spin Energy  =      -1.6536609939026106 [Eh]
	 SCS Correlation Energy    =      -1.7869555173598681 [Eh]
	 SCS Total Energy          =    -387.8441772226836974 [Eh]
	-----------------------------------------------------------

  Dipole Moment: [D]
     X:    -1.1194      Y:     0.6417      Z:     0.5993     Total:     1.4226

*** Psi4 exiting successfully. Buy a developer a beer!
