                               Psi4 1.4a3.dev225

  ==> Input File <==

--------------------------------------------------------------------------
#psi4
#
memory 32 gb

molecule  {
0 1
  O       -2.7624640     1.3159430     0.2248240
  C       -2.8209640    -0.0168770    -0.2887760
  C       -1.4198970    -0.4865040    -0.5315690
  C        3.5469730    -0.0618850    -0.4287090
  C       -3.5485140    -0.9406360     0.6857820
  C       -0.3535653     0.2009240    -0.2679269
  C        2.1505970     0.4383770    -0.2221580
  C        1.0342680    -0.2689350    -0.4861660
  C        4.3265940    -0.1505530     0.8872490
  H       -3.3622360    -0.0200820    -1.2509840
  H       -1.3293920    -1.4912640    -0.9473420
  H        3.5136740    -1.0471260    -0.9088000
  H        4.0812660     0.6062640    -1.1173180
  H       -3.0279280    -0.9272120     1.6463760
  H       -4.5820380    -0.6089360     0.8383050
  H       -3.5770120    -1.9680220     0.3103630
  H       -0.4219900     1.2292040     0.1523950
  H        2.0485920     1.4434520     0.1930580
  H        1.1311650    -1.2755230    -0.8987060
  H        4.3778580     0.8269450     1.3761990
  H        5.3504770    -0.4972710     0.7173650
  H        3.8373540    -0.8453320     1.5752720
  H       -3.6799020     1.6047450     0.3678300
units angstrom
no_reorient  #important for SAPT in psi4, default
symmetry c1  #important for SAPT in psi4, default
}

set PROPERTIES_ORIGIN ["COM"]
properties('MP2/aug-cc-pvtz', properties = ['dipole'])
--------------------------------------------------------------------------

    Molecular point group: c1
  Charge       = 0
  Multiplicity = 1
  Basis Set: AUG-CC-PVTZ
    Blend: AUG-CC-PVTZ
  Basis Set: (AUG-CC-PVTZ AUX)
    Blend: AUG-CC-PVTZ-JKFIT

    Orbital Energies [Eh]
    ---------------------

    Doubly Occupied:

       1A    -20.558656     2A    -11.286810     3A    -11.227068
       4A    -11.225113     5A    -11.223886     6A    -11.221046
       7A    -11.220072     8A    -11.216180     9A    -11.213209
      10A     -1.360130    11A     -1.098035    12A     -1.064412
      13A     -1.014098    14A     -0.966349    15A     -0.874295
      16A     -0.830382    17A     -0.752319    18A     -0.744078
      19A     -0.694011    20A     -0.637107    21A     -0.628234
      22A     -0.616670    23A     -0.591048    24A     -0.583190
      25A     -0.546228    26A     -0.543827    27A     -0.527505
      28A     -0.518946    29A     -0.497650    30A     -0.492885
      31A     -0.479269    32A     -0.460499    33A     -0.453659
      34A     -0.418818    35A     -0.306356

  @DF-RHF Final Energy:  -386.06096132592910

   => Energetics <=

    Nuclear Repulsion Energy =            418.0744446538491275
    One-Electron Energy =               -1352.0867346670061124
    Two-Electron Energy =                 547.9513286872279423
    Total Energy =                       -386.0609613259290427
  Basis Set: (AUG-CC-PVTZ AUX)
    Blend: AUG-CC-PVTZ-RI
    Molecular point group: c1

    Geometry (in Angstrom), charge = 0, multiplicity = 1:

       Center              X                  Y                   Z               Mass
    ------------   -----------------  -----------------  -----------------  -----------------
         O           -2.724356934141     1.295151283024     0.241961857858    15.994914619570
         C           -2.782856934141    -0.037668716976    -0.271638142142    12.000000000000
         C           -1.381789934141    -0.507295716976    -0.514431142142    12.000000000000
         C            3.585080065859    -0.082676716976    -0.411571142142    12.000000000000
         C           -3.510406934141    -0.961427716976     0.702919857858    12.000000000000
         C           -0.315458234141     0.180132283024    -0.250789042142    12.000000000000
         C            2.188704065859     0.417585283024    -0.205020142142    12.000000000000
         C            1.072375065859    -0.289726716976    -0.469028142142    12.000000000000
         C            4.364701065859    -0.171344716976     0.904386857858    12.000000000000
         H           -3.324128934141    -0.040873716976    -1.233846142142     1.007825032230
         H           -1.291284934141    -1.512055716976    -0.930204142142     1.007825032230
         H            3.551781065859    -1.067917716976    -0.891662142142     1.007825032230
         H            4.119373065859     0.585472283024    -1.100180142142     1.007825032230
         H           -2.989820934141    -0.948003716976     1.663513857858     1.007825032230
         H           -4.543930934141    -0.629727716976     0.855442857858     1.007825032230
         H           -3.538904934141    -1.988813716976     0.327500857858     1.007825032230
         H           -0.383882934141     1.208412283024     0.169532857858     1.007825032230
         H            2.086699065859     1.422660283024     0.210195857858     1.007825032230
         H            1.169272065859    -1.296314716976    -0.881568142142     1.007825032230
         H            4.415965065859     0.806153283024     1.393336857858     1.007825032230
         H            5.388584065859    -0.518062716976     0.734502857858     1.007825032230
         H            3.875461065859    -0.866123716976     1.592409857858     1.007825032230
         H           -3.641794934141     1.583953283024     0.384967857858     1.007825032230

  Basis Set: AUG-CC-PVTZ
    Blend: AUG-CC-PVTZ
  Basis Set: (AUG-CC-PVTZ AUX)
    Blend: AUG-CC-PVTZ-JKFIT
	 Reference Energy          =    -386.0609613259290995 [Eh]
	 Singles Energy            =      -0.0000000000000000 [Eh]
	 Same-Spin Energy          =      -0.3995266502460461 [Eh]
	 Opposite-Spin Energy      =      -1.3770807577329387 [Eh]
	 Correlation Energy        =      -1.7766074079789846 [Eh]
	 Total Energy              =    -387.8375687339080855 [Eh]

	 ================> DF-SCS-MP2 Energies <==================
	-----------------------------------------------------------
	 SCS Same-Spin Scale       =       0.3333333333333333 [-]
	 SCS Opposite-Spin Scale   =       1.2000000000000000 [-]
	 SCS Same-Spin Energy      =      -0.1331755500820153 [Eh]
	 SCS Opposite-Spin Energy  =      -1.6524969092795263 [Eh]
	 SCS Correlation Energy    =      -1.7856724593615416 [Eh]
	 SCS Total Energy          =    -387.8466337852906349 [Eh]
	-----------------------------------------------------------

  Dipole Moment: [D]
     X:    -1.2068      Y:    -0.7977      Z:    -0.1439     Total:     1.4538

*** Psi4 exiting successfully. Buy a developer a beer!
