                               Psi4 1.3.2 release

  ==> Input File <==

--------------------------------------------------------------------------
#psi4
#
memory 32 gb

molecule  {
0 1
  O       -2.7848290    -0.9154220    -0.7447340
  C       -2.7698910    -0.0438090     0.3861860
  C       -1.3446020     0.1937550     0.7721520
  C        3.5873700    -0.2293000     0.2222030
  C       -3.4755630     1.2700040     0.0649850
  C       -0.2760440    -0.3016891     0.1027839
  C        2.1660230    -0.5131760    -0.1475910
  C        1.0922740    -0.0266840     0.5021560
  C        4.3244450     0.5343730    -0.8803810
  H       -3.2865450    -0.5271910     1.2335890
  H       -1.1970340     0.8260370     1.6487790
  H        3.6131550     0.3461180     1.1547940
  H        4.1142490    -1.1721620     0.4188690
  H       -2.9813020     1.7413150    -0.7875330
  H       -4.5277090     1.0956620    -0.1864690
  H       -3.4435650     1.9541860     0.9176610
  H       -0.4470010    -0.9272420    -0.7564190
  H        2.0063450    -1.1440610    -1.0244550
  H        1.2565692     0.6057392     1.3770069
  H        4.3142870    -0.0291260    -1.8177910
  H        5.3679410     0.7151030    -0.6066950
  H        3.8442820     1.4990380    -1.0633910
  H       -3.7175750    -1.0591810    -0.9792530
units angstrom
no_reorient  #important for SAPT in psi4, default
symmetry c1  #important for SAPT in psi4, default
}

set PROPERTIES_ORIGIN ["COM"]
properties('MP2/aug-cc-pvtz', properties = ['dipole'])
--------------------------------------------------------------------------

    Molecular point group: c1
  Charge       = 0
  Multiplicity = 1
  Basis Set: AUG-CC-PVTZ
    Blend: AUG-CC-PVTZ
  Basis Set: (AUG-CC-PVTZ AUX)
    Blend: AUG-CC-PVTZ-JKFIT

    Orbital Energies [Eh]
    ---------------------

    Doubly Occupied:

       1A    -20.558773     2A    -11.286338     3A    -11.225528
       4A    -11.224660     5A    -11.223385     6A    -11.223059
       7A    -11.222663     8A    -11.220576     9A    -11.212808
      10A     -1.360791    11A     -1.097350    12A     -1.060548
      13A     -1.016080    14A     -0.961559    15A     -0.876672
      16A     -0.828185    17A     -0.751841    18A     -0.749689
      19A     -0.695430    20A     -0.637465    21A     -0.626812
      22A     -0.617240    23A     -0.590152    24A     -0.582620
      25A     -0.546705    26A     -0.543394    27A     -0.527114
      28A     -0.518952    29A     -0.502807    30A     -0.492459
      31A     -0.479017    32A     -0.468470    33A     -0.452617
      34A     -0.417546    35A     -0.295856

  @DF-RHF Final Energy:  -386.06191470538681

   => Energetics <=

    Nuclear Repulsion Energy =            418.1780169700733722
    One-Electron Energy =               -1352.2895354290812975
    Two-Electron Energy =                 548.0496037536211134
    Total Energy =                       -386.0619147053868119
  Basis Set: (AUG-CC-PVTZ AUX)
    Blend: AUG-CC-PVTZ-RI
    Molecular point group: c1

    Geometry (in Angstrom), charge = 0, multiplicity = 1:

       Center              X                  Y                   Z               Mass
    ------------   -----------------  -----------------  -----------------  -----------------
         O           -2.785301685356    -0.914744248709    -0.743805999255    15.994914619570
         C           -2.770363685356    -0.043131248709     0.387114000745    12.000000000000
         C           -1.345074685356     0.194432751291     0.773080000745    12.000000000000
         C            3.586897314644    -0.228622248709     0.223131000745    12.000000000000
         C           -3.476035685356     1.270681751291     0.065913000745    12.000000000000
         C           -0.276516685356    -0.301011348709     0.103711900745    12.000000000000
         C            2.165550314644    -0.512498248709    -0.146662999255    12.000000000000
         C            1.091801314644    -0.026006248709     0.503084000745    12.000000000000
         C            4.323972314644     0.535050751291    -0.879452999255    12.000000000000
         H           -3.287017685356    -0.526513248709     1.234517000745     1.007825032230
         H           -1.197506685356     0.826714751291     1.649707000745     1.007825032230
         H            3.612682314644     0.346795751291     1.155722000745     1.007825032230
         H            4.113776314644    -1.171484248709     0.419797000745     1.007825032230
         H           -2.981774685356     1.741992751291    -0.786604999255     1.007825032230
         H           -4.528181685356     1.096339751291    -0.185540999255     1.007825032230
         H           -3.444037685356     1.954863751291     0.918589000745     1.007825032230
         H           -0.447473685356    -0.926564248709    -0.755490999255     1.007825032230
         H            2.005872314644    -1.143383248709    -1.023526999255     1.007825032230
         H            1.256096514644     0.606416951291     1.377934900745     1.007825032230
         H            4.313814314644    -0.028448248709    -1.816862999255     1.007825032230
         H            5.367468314644     0.715780751291    -0.605766999255     1.007825032230
         H            3.843809314644     1.499715751291    -1.062462999255     1.007825032230
         H           -3.718047685356    -1.058503248709    -0.978324999255     1.007825032230

  Basis Set: AUG-CC-PVTZ
    Blend: AUG-CC-PVTZ
  Basis Set: (AUG-CC-PVTZ AUX)
    Blend: AUG-CC-PVTZ-JKFIT
	 Reference Energy          =    -386.0619147053868119 [Eh]
	 Singles Energy            =      -0.0000000000000000 [Eh]
	 Same-Spin Energy          =      -0.4004592092544966 [Eh]
	 Opposite-Spin Energy      =      -1.3785712987273406 [Eh]
	 Correlation Energy        =      -1.7790305079818372 [Eh]
	 Total Energy              =    -387.8409452133686273 [Eh]

	 ================> DF-SCS-MP2 Energies <==================
	-----------------------------------------------------------
	 SCS Same-Spin Scale       =       0.3333333333333333 [-]
	 SCS Opposite-Spin Scale   =       1.2000000000000000 [-]
	 SCS Same-Spin Energy      =      -0.1334864030848322 [Eh]
	 SCS Opposite-Spin Energy  =      -1.6542855584728087 [Eh]
	 SCS Correlation Energy    =      -1.7877719615576408 [Eh]
	 SCS Total Energy          =    -387.8496866669444785 [Eh]
	-----------------------------------------------------------

  Dipole Moment: [D]
     X:    -1.1610      Y:     0.6410      Z:     0.5779     Total:     1.4466

*** Psi4 exiting successfully. Buy a developer a beer!
