                               Psi4 1.4a3.dev225

  ==> Input File <==

--------------------------------------------------------------------------
#psi4
#
memory 32 gb

molecule  {
0 1
  O       -2.7624640     1.3159430     0.2248240
  C       -2.8209640    -0.0168770    -0.2887760
  C       -1.4198970    -0.4865040    -0.5315690
  C        3.5469730    -0.0618850    -0.4287090
  C       -3.5485140    -0.9406360     0.6857820
  C       -0.3124200     0.2274490    -0.2577540
  C        2.1505970     0.4383770    -0.2221580
  C        1.0342680    -0.2689350    -0.4861660
  C        4.3265940    -0.1505530     0.8872490
  H       -3.3622360    -0.0200820    -1.2509840
  H       -1.3310509    -1.4728474    -0.9397212
  H        3.5136740    -1.0471260    -0.9088000
  H        4.0812660     0.6062640    -1.1173180
  H       -3.0279280    -0.9272120     1.6463760
  H       -4.5820380    -0.6089360     0.8383050
  H       -3.5770120    -1.9680220     0.3103630
  H       -0.4219900     1.2292040     0.1523950
  H        2.0485920     1.4434520     0.1930580
  H        1.1311650    -1.2755230    -0.8987060
  H        4.3778580     0.8269450     1.3761990
  H        5.3504770    -0.4972710     0.7173650
  H        3.8373540    -0.8453320     1.5752720
  H       -3.6799020     1.6047450     0.3678300
units angstrom
no_reorient  #important for SAPT in psi4, default
symmetry c1  #important for SAPT in psi4, default
}

set PROPERTIES_ORIGIN ["COM"]
properties('MP2/aug-cc-pvtz', properties = ['dipole'])
--------------------------------------------------------------------------

    Molecular point group: c1
  Charge       = 0
  Multiplicity = 1
  Basis Set: AUG-CC-PVTZ
    Blend: AUG-CC-PVTZ
  Basis Set: (AUG-CC-PVTZ AUX)
    Blend: AUG-CC-PVTZ-JKFIT

    Orbital Energies [Eh]
    ---------------------

    Doubly Occupied:

       1A    -20.558656     2A    -11.286803     3A    -11.226513
       4A    -11.224058     5A    -11.223676     6A    -11.223167
       7A    -11.220968     8A    -11.220637     9A    -11.213225
      10A     -1.359972    11A     -1.097262    12A     -1.060966
      13A     -1.015598    14A     -0.962323    15A     -0.876510
      16A     -0.828389    17A     -0.752834    18A     -0.750092
      19A     -0.694827    20A     -0.636827    21A     -0.627338
      22A     -0.616574    23A     -0.590426    24A     -0.583348
      25A     -0.547039    26A     -0.543680    27A     -0.527413
      28A     -0.518655    29A     -0.501464    30A     -0.492357
      31A     -0.479301    32A     -0.467923    33A     -0.452709
      34A     -0.417819    35A     -0.297248

  @DF-RHF Final Energy:  -386.06247621914088

   => Energetics <=

    Nuclear Repulsion Energy =            417.8472015085841349
    One-Electron Energy =               -1351.6261610888032010
    Two-Electron Energy =                 547.7164833610781898
    Total Energy =                       -386.0624762191408763
  Basis Set: (AUG-CC-PVTZ AUX)
    Blend: AUG-CC-PVTZ-RI
    Molecular point group: c1

    Geometry (in Angstrom), charge = 0, multiplicity = 1:

       Center              X                  Y                   Z               Mass
    ------------   -----------------  -----------------  -----------------  -----------------
         O           -2.728259030065     1.292480000050     0.240932907512    15.994914619570
         C           -2.786759030065    -0.040339999950    -0.272667092488    12.000000000000
         C           -1.385692030065    -0.509966999950    -0.515460092488    12.000000000000
         C            3.581177969935    -0.085347999950    -0.412600092488    12.000000000000
         C           -3.514309030065    -0.964098999950     0.701890907512    12.000000000000
         C           -0.278215030065     0.203986000050    -0.241645092488    12.000000000000
         C            2.184801969935     0.414914000050    -0.206049092488    12.000000000000
         C            1.068472969935    -0.292397999950    -0.470057092488    12.000000000000
         C            4.360798969935    -0.174015999950     0.903357907512    12.000000000000
         H           -3.328031030065    -0.043544999950    -1.234875092488     1.007825032230
         H           -1.296845930065    -1.496310399950    -0.923612292488     1.007825032230
         H            3.547878969935    -1.070588999950    -0.892691092488     1.007825032230
         H            4.115470969935     0.582801000050    -1.101209092488     1.007825032230
         H           -2.993723030065    -0.950674999950     1.662484907512     1.007825032230
         H           -4.547833030065    -0.632398999950     0.854413907512     1.007825032230
         H           -3.542807030065    -1.991484999950     0.326471907512     1.007825032230
         H           -0.387785030065     1.205741000050     0.168503907512     1.007825032230
         H            2.082796969935     1.419989000050     0.209166907512     1.007825032230
         H            1.165369969935    -1.298985999950    -0.882597092488     1.007825032230
         H            4.412062969935     0.803482000050     1.392307907512     1.007825032230
         H            5.384681969935    -0.520733999950     0.733473907512     1.007825032230
         H            3.871558969935    -0.868794999950     1.591380907512     1.007825032230
         H           -3.645697030065     1.581282000050     0.383938907512     1.007825032230

  Basis Set: AUG-CC-PVTZ
    Blend: AUG-CC-PVTZ
  Basis Set: (AUG-CC-PVTZ AUX)
    Blend: AUG-CC-PVTZ-JKFIT
	 Reference Energy          =    -386.0624762191408763 [Eh]
	 Singles Energy            =      -0.0000000000000000 [Eh]
	 Same-Spin Energy          =      -0.4002321938172897 [Eh]
	 Opposite-Spin Energy      =      -1.3782586388342768 [Eh]
	 Correlation Energy        =      -1.7784908326515665 [Eh]
	 Total Energy              =    -387.8409670517924610 [Eh]

	 ================> DF-SCS-MP2 Energies <==================
	-----------------------------------------------------------
	 SCS Same-Spin Scale       =       0.3333333333333333 [-]
	 SCS Opposite-Spin Scale   =       1.2000000000000000 [-]
	 SCS Same-Spin Energy      =      -0.1334107312724299 [Eh]
	 SCS Opposite-Spin Energy  =      -1.6539103666011321 [Eh]
	 SCS Correlation Energy    =      -1.7873210978735621 [Eh]
	 SCS Total Energy          =    -387.8497973170144633 [Eh]
	-----------------------------------------------------------

  Dipole Moment: [D]
     X:    -1.1976      Y:    -0.8023      Z:    -0.1469     Total:     1.4489

*** Psi4 exiting successfully. Buy a developer a beer!
