                               Psi4 1.3.2 release

  ==> Input File <==

--------------------------------------------------------------------------
#psi4
#
memory 32 gb

molecule  {
0 1
  O       -2.7723754    -0.9157978    -0.7445402
  C       -2.7698910    -0.0438090     0.3861860
  C       -1.3407253     0.1860417     0.7623632
  C        3.5873700    -0.2293000     0.2222030
  C       -3.4755630     1.2700040     0.0649850
  C       -0.2802220    -0.2946410     0.1124460
  C        2.1660230    -0.5131760    -0.1475910
  C        1.0922740    -0.0266840     0.5021560
  C        4.3244450     0.5343730    -0.8803810
  H       -3.2865450    -0.5271910     1.2335890
  H       -1.1970340     0.8260370     1.6487790
  H        3.6131550     0.3461180     1.1547940
  H        4.1142490    -1.1721620     0.4188690
  H       -2.9813020     1.7413150    -0.7875330
  H       -4.5277090     1.0956620    -0.1864690
  H       -3.4435650     1.9541860     0.9176610
  H       -0.4470010    -0.9272420    -0.7564190
  H        2.0063450    -1.1440610    -1.0244550
  H        1.2471430     0.6066220     1.3780870
  H        4.3142870    -0.0291260    -1.8177910
  H        5.3679410     0.7151030    -0.6066950
  H        3.8442820     1.4990380    -1.0633910
  H       -3.7175750    -1.0591810    -0.9792530
units angstrom
no_reorient  #important for SAPT in psi4, default
symmetry c1  #important for SAPT in psi4, default
}

set PROPERTIES_ORIGIN ["COM"]
properties('MP2/aug-cc-pvtz', properties = ['dipole'])
--------------------------------------------------------------------------

    Molecular point group: c1
  Charge       = 0
  Multiplicity = 1
  Basis Set: AUG-CC-PVTZ
    Blend: AUG-CC-PVTZ
  Basis Set: (AUG-CC-PVTZ AUX)
    Blend: AUG-CC-PVTZ-JKFIT

    Orbital Energies [Eh]
    ---------------------

    Doubly Occupied:

       1A    -20.560019     2A    -11.286398     3A    -11.225806
       4A    -11.223236     5A    -11.223005     6A    -11.222195
       7A    -11.221039     8A    -11.220161     9A    -11.212803
      10A     -1.358929    11A     -1.098172    12A     -1.061260
      13A     -1.016138    14A     -0.963326    15A     -0.876375
      16A     -0.828942    17A     -0.752464    18A     -0.744658
      19A     -0.694559    20A     -0.636890    21A     -0.628105
      22A     -0.617132    23A     -0.589931    24A     -0.582173
      25A     -0.546146    26A     -0.543450    27A     -0.527117
      28A     -0.518619    29A     -0.498919    30A     -0.493171
      31A     -0.479054    32A     -0.467381    33A     -0.452919
      34A     -0.419197    35A     -0.298767

  @DF-RHF Final Energy:  -386.06157901761031

   => Energetics <=

    Nuclear Repulsion Energy =            418.4784648121221835
    One-Electron Energy =               -1352.9031733130552766
    Two-Electron Energy =                 548.3631294833228367
    Total Energy =                       -386.0615790176102564
  Basis Set: (AUG-CC-PVTZ AUX)
    Blend: AUG-CC-PVTZ-RI
    Molecular point group: c1

    Geometry (in Angstrom), charge = 0, multiplicity = 1:

       Center              X                  Y                   Z               Mass
    ------------   -----------------  -----------------  -----------------  -----------------
         O           -2.774323677106    -0.915016138186    -0.743633356050    15.994914619570
         C           -2.771839277106    -0.043027338186     0.387092843950    12.000000000000
         C           -1.342673577106     0.186823361814     0.763270043950    12.000000000000
         C            3.585421722894    -0.228518338186     0.223109843950    12.000000000000
         C           -3.477511277106     1.270785661814     0.065891843950    12.000000000000
         C           -0.282170277106    -0.293859338186     0.113352843950    12.000000000000
         C            2.164074722894    -0.512394338186    -0.146684156050    12.000000000000
         C            1.090325722894    -0.025902338186     0.503062843950    12.000000000000
         C            4.322496722894     0.535154661814    -0.879474156050    12.000000000000
         H           -3.288493277106    -0.526409338186     1.234495843950     1.007825032230
         H           -1.198982277106     0.826818661814     1.649685843950     1.007825032230
         H            3.611206722894     0.346899661814     1.155700843950     1.007825032230
         H            4.112300722894    -1.171380338186     0.419775843950     1.007825032230
         H           -2.983250277106     1.742096661814    -0.786626156050     1.007825032230
         H           -4.529657277106     1.096443661814    -0.185562156050     1.007825032230
         H           -3.445513277106     1.954967661814     0.918567843950     1.007825032230
         H           -0.448949277106    -0.926460338186    -0.755512156050     1.007825032230
         H            2.004396722894    -1.143279338186    -1.023548156050     1.007825032230
         H            1.245194722894     0.607403661814     1.378993843950     1.007825032230
         H            4.312338722894    -0.028344338186    -1.816884156050     1.007825032230
         H            5.365992722894     0.715884661814    -0.605788156050     1.007825032230
         H            3.842333722894     1.499819661814    -1.062484156050     1.007825032230
         H           -3.719523277106    -1.058399338186    -0.978346156050     1.007825032230

  Basis Set: AUG-CC-PVTZ
    Blend: AUG-CC-PVTZ
  Basis Set: (AUG-CC-PVTZ AUX)
    Blend: AUG-CC-PVTZ-JKFIT
	 Reference Energy          =    -386.0615790176103133 [Eh]
	 Singles Energy            =      -0.0000000000000000 [Eh]
	 Same-Spin Energy          =      -0.4004581261766450 [Eh]
	 Opposite-Spin Energy      =      -1.3785849337993246 [Eh]
	 Correlation Energy        =      -1.7790430599759697 [Eh]
	 Total Energy              =    -387.8406220775862607 [Eh]

	 ================> DF-SCS-MP2 Energies <==================
	-----------------------------------------------------------
	 SCS Same-Spin Scale       =       0.3333333333333333 [-]
	 SCS Opposite-Spin Scale   =       1.2000000000000000 [-]
	 SCS Same-Spin Energy      =      -0.1334860420588816 [Eh]
	 SCS Opposite-Spin Energy  =      -1.6543019205591893 [Eh]
	 SCS Correlation Energy    =      -1.7877879626180710 [Eh]
	 SCS Total Energy          =    -387.8493669802284103 [Eh]
	-----------------------------------------------------------

  Dipole Moment: [D]
     X:    -1.1878      Y:     0.6398      Z:     0.5661     Total:     1.4632

*** Psi4 exiting successfully. Buy a developer a beer!
