                               Psi4 1.3.2 release

  ==> Input File <==

--------------------------------------------------------------------------
#psi4
#
memory 32 gb

molecule  {
0 1
  O       -2.7848290    -0.9154220    -0.7447340
  C       -2.7698910    -0.0438090     0.3861860
  C       -1.3587638     0.1828856     0.7569329
  C        3.5873700    -0.2293000     0.2222030
  C       -3.4755630     1.2700040     0.0649850
  C       -0.2802220    -0.2946410     0.1124460
  C        2.1660230    -0.5131760    -0.1475910
  C        1.1003163    -0.0408249     0.4827318
  C        4.3244450     0.5343730    -0.8803810
  H       -3.2865450    -0.5271910     1.2335890
  H       -1.1970340     0.8260370     1.6487790
  H        3.6131550     0.3461180     1.1547940
  H        4.1142490    -1.1721620     0.4188690
  H       -2.9813020     1.7413150    -0.7875330
  H       -4.5277090     1.0956620    -0.1864690
  H       -3.4435650     1.9541860     0.9176610
  H       -0.4470010    -0.9272420    -0.7564190
  H        2.0063450    -1.1440610    -1.0244550
  H        1.2471430     0.6066220     1.3780870
  H        4.3142870    -0.0291260    -1.8177910
  H        5.3679410     0.7151030    -0.6066950
  H        3.8442820     1.4990380    -1.0633910
  H       -3.7175750    -1.0591810    -0.9792530
units angstrom
no_reorient  #important for SAPT in psi4, default
symmetry c1  #important for SAPT in psi4, default
}

set PROPERTIES_ORIGIN ["COM"]
properties('MP2/aug-cc-pvtz', properties = ['dipole'])
--------------------------------------------------------------------------

    Molecular point group: c1
  Charge       = 0
  Multiplicity = 1
  Basis Set: AUG-CC-PVTZ
    Blend: AUG-CC-PVTZ
  Basis Set: (AUG-CC-PVTZ AUX)
    Blend: AUG-CC-PVTZ-JKFIT

    Orbital Energies [Eh]
    ---------------------

    Doubly Occupied:

       1A    -20.558683     2A    -11.286260     3A    -11.224542
       4A    -11.224046     5A    -11.223525     6A    -11.222390
       7A    -11.221826     8A    -11.221287     9A    -11.213084
      10A     -1.361419    11A     -1.099737    12A     -1.063394
      13A     -1.017145    14A     -0.964983    15A     -0.878517
      16A     -0.830760    17A     -0.751412    18A     -0.743920
      19A     -0.696225    20A     -0.637556    21A     -0.629093
      22A     -0.617934    23A     -0.591721    24A     -0.581802
      25A     -0.546312    26A     -0.542147    27A     -0.526600
      28A     -0.519488    29A     -0.498758    30A     -0.492080
      31A     -0.479823    32A     -0.466922    33A     -0.453735
      34A     -0.419764    35A     -0.300700

  @DF-RHF Final Energy:  -386.06134342010614

   => Energetics <=

    Nuclear Repulsion Energy =            418.6737645673016459
    One-Electron Energy =               -1353.2550362820754799
    Two-Electron Energy =                 548.5199282946676931
    Total Energy =                       -386.0613434201061409
  Basis Set: (AUG-CC-PVTZ AUX)
    Blend: AUG-CC-PVTZ-RI
    Molecular point group: c1

    Geometry (in Angstrom), charge = 0, multiplicity = 1:

       Center              X                  Y                   Z               Mass
    ------------   -----------------  -----------------  -----------------  -----------------
         O           -2.784246449443    -0.913042035454    -0.741437440394    15.994914619570
         C           -2.769308449443    -0.041429035454     0.389482559606    12.000000000000
         C           -1.358181249443     0.185265564546     0.760229459606    12.000000000000
         C            3.587952550557    -0.226920035454     0.225499559606    12.000000000000
         C           -3.474980449443     1.272383964546     0.068281559606    12.000000000000
         C           -0.279639449443    -0.292261035454     0.115742559606    12.000000000000
         C            2.166605550557    -0.510796035454    -0.144294440394    12.000000000000
         C            1.100898850557    -0.038444935454     0.486028359606    12.000000000000
         C            4.325027550557     0.536752964546    -0.877084440394    12.000000000000
         H           -3.285962449443    -0.524811035454     1.236885559606     1.007825032230
         H           -1.196451449443     0.828416964546     1.652075559606     1.007825032230
         H            3.613737550557     0.348497964546     1.158090559606     1.007825032230
         H            4.114831550557    -1.169782035454     0.422165559606     1.007825032230
         H           -2.980719449443     1.743694964546    -0.784236440394     1.007825032230
         H           -4.527126449443     1.098041964546    -0.183172440394     1.007825032230
         H           -3.442982449443     1.956565964546     0.920957559606     1.007825032230
         H           -0.446418449443    -0.924862035454    -0.753122440394     1.007825032230
         H            2.006927550557    -1.141681035454    -1.021158440394     1.007825032230
         H            1.247725550557     0.609001964546     1.381383559606     1.007825032230
         H            4.314869550557    -0.026746035454    -1.814494440394     1.007825032230
         H            5.368523550557     0.717482964546    -0.603398440394     1.007825032230
         H            3.844864550557     1.501417964546    -1.060094440394     1.007825032230
         H           -3.716992449443    -1.056801035454    -0.975956440394     1.007825032230

  Basis Set: AUG-CC-PVTZ
    Blend: AUG-CC-PVTZ
  Basis Set: (AUG-CC-PVTZ AUX)
    Blend: AUG-CC-PVTZ-JKFIT
	 Reference Energy          =    -386.0613434201061409 [Eh]
	 Singles Energy            =      -0.0000000000000000 [Eh]
	 Same-Spin Energy          =      -0.4003989722197295 [Eh]
	 Opposite-Spin Energy      =      -1.3781584284485719 [Eh]
	 Correlation Energy        =      -1.7785574006683014 [Eh]
	 Total Energy              =    -387.8399008207744600 [Eh]

	 ================> DF-SCS-MP2 Energies <==================
	-----------------------------------------------------------
	 SCS Same-Spin Scale       =       0.3333333333333333 [-]
	 SCS Opposite-Spin Scale   =       1.2000000000000000 [-]
	 SCS Same-Spin Energy      =      -0.1334663240732432 [Eh]
	 SCS Opposite-Spin Energy  =      -1.6537901141382862 [Eh]
	 SCS Correlation Energy    =      -1.7872564382115295 [Eh]
	 SCS Total Energy          =    -387.8485998583176979 [Eh]
	-----------------------------------------------------------

  Dipole Moment: [D]
     X:    -1.1750      Y:     0.6364      Z:     0.5577     Total:     1.4480

*** Psi4 exiting successfully. Buy a developer a beer!
