                               Psi4 1.3.2 release

  ==> Input File <==

--------------------------------------------------------------------------
#psi4
#
memory 32 gb

molecule  {
0 1
  O       -2.7848290    -0.9154220    -0.7447340
  C       -2.7698910    -0.0438090     0.3861860
  C       -1.3446020     0.1937550     0.7721520
  C        3.5873700    -0.2293000     0.2222030
  C       -3.4755630     1.2700040     0.0649850
  C       -0.2842955    -0.2875725     0.1221378
  C        2.1660230    -0.5131760    -0.1475910
  C        1.0922740    -0.0266840     0.5021560
  C        4.3244450     0.5343730    -0.8803810
  H       -3.2865450    -0.5271910     1.2335890
  H       -1.1970340     0.8260370     1.6487790
  H        3.6131550     0.3461180     1.1547940
  H        4.1142490    -1.1721620     0.4188690
  H       -2.9813020     1.7413150    -0.7875330
  H       -4.5277090     1.0956620    -0.1864690
  H       -3.4435650     1.9541860     0.9176610
  H       -0.4470010    -0.9272420    -0.7564190
  H        2.0063450    -1.1440610    -1.0244550
  H        1.2377050     0.6074566     1.3791004
  H        4.3142870    -0.0291260    -1.8177910
  H        5.3679410     0.7151030    -0.6066950
  H        3.8442820     1.4990380    -1.0633910
  H       -3.7175750    -1.0591810    -0.9792530
units angstrom
no_reorient  #important for SAPT in psi4, default
symmetry c1  #important for SAPT in psi4, default
}

set PROPERTIES_ORIGIN ["COM"]
properties('MP2/aug-cc-pvtz', properties = ['dipole'])
--------------------------------------------------------------------------

    Molecular point group: c1
  Charge       = 0
  Multiplicity = 1
  Basis Set: AUG-CC-PVTZ
    Blend: AUG-CC-PVTZ
  Basis Set: (AUG-CC-PVTZ AUX)
    Blend: AUG-CC-PVTZ-JKFIT

    Orbital Energies [Eh]
    ---------------------

    Doubly Occupied:

       1A    -20.558689     2A    -11.286606     3A    -11.226348
       4A    -11.223470     5A    -11.223265     6A    -11.222304
       7A    -11.220692     8A    -11.220584     9A    -11.212942
      10A     -1.360748    11A     -1.098352    12A     -1.062097
      13A     -1.016183    14A     -0.963385    15A     -0.876679
      16A     -0.829109    17A     -0.753138    18A     -0.746367
      19A     -0.694972    20A     -0.637239    21A     -0.628137
      22A     -0.617437    23A     -0.590692    24A     -0.583060
      25A     -0.546334    26A     -0.543535    27A     -0.527554
      28A     -0.519010    29A     -0.498906    30A     -0.492310
      31A     -0.479246    32A     -0.467083    33A     -0.453122
      34A     -0.419021    35A     -0.299084

  @DF-RHF Final Energy:  -386.06272931889112

   => Energetics <=

    Nuclear Repulsion Energy =            418.3646646328506336
    One-Electron Energy =               -1352.6593856056033474
    Two-Electron Energy =                 548.2319916538615416
    Total Energy =                       -386.0627293188911153
  Basis Set: (AUG-CC-PVTZ AUX)
    Blend: AUG-CC-PVTZ-RI
    Molecular point group: c1

    Geometry (in Angstrom), charge = 0, multiplicity = 1:

       Center              X                  Y                   Z               Mass
    ------------   -----------------  -----------------  -----------------  -----------------
         O           -2.784365716809    -0.916101298506    -0.745664432115    15.994914619570
         C           -2.769427716809    -0.044488298506     0.385255567885    12.000000000000
         C           -1.344138716809     0.193075701494     0.771221567885    12.000000000000
         C            3.587833283191    -0.229979298506     0.221272567885    12.000000000000
         C           -3.475099716809     1.269324701494     0.064054567885    12.000000000000
         C           -0.283832216809    -0.288251798506     0.121207367885    12.000000000000
         C            2.166486283191    -0.513855298506    -0.148521432115    12.000000000000
         C            1.092737283191    -0.027363298506     0.501225567885    12.000000000000
         C            4.324908283191     0.533693701494    -0.881311432115    12.000000000000
         H           -3.286081716809    -0.527870298506     1.232658567885     1.007825032230
         H           -1.196570716809     0.825357701494     1.647848567885     1.007825032230
         H            3.613618283191     0.345438701494     1.153863567885     1.007825032230
         H            4.114712283191    -1.172841298506     0.417938567885     1.007825032230
         H           -2.980838716809     1.740635701494    -0.788463432115     1.007825032230
         H           -4.527245716809     1.094982701494    -0.187399432115     1.007825032230
         H           -3.443101716809     1.953506701494     0.916730567885     1.007825032230
         H           -0.446537716809    -0.927921298506    -0.757349432115     1.007825032230
         H            2.006808283191    -1.144740298506    -1.025385432115     1.007825032230
         H            1.238168283191     0.606777301494     1.378169967885     1.007825032230
         H            4.314750283191    -0.029805298506    -1.818721432115     1.007825032230
         H            5.368404283191     0.714423701494    -0.607625432115     1.007825032230
         H            3.844745283191     1.498358701494    -1.064321432115     1.007825032230
         H           -3.717111716809    -1.059860298506    -0.980183432115     1.007825032230

  Basis Set: AUG-CC-PVTZ
    Blend: AUG-CC-PVTZ
  Basis Set: (AUG-CC-PVTZ AUX)
    Blend: AUG-CC-PVTZ-JKFIT
	 Reference Energy          =    -386.0627293188911153 [Eh]
	 Singles Energy            =      -0.0000000000000000 [Eh]
	 Same-Spin Energy          =      -0.4002544395472847 [Eh]
	 Opposite-Spin Energy      =      -1.3780772944511352 [Eh]
	 Correlation Energy        =      -1.7783317339984199 [Eh]
	 Total Energy              =    -387.8410610528895290 [Eh]

	 ================> DF-SCS-MP2 Energies <==================
	-----------------------------------------------------------
	 SCS Same-Spin Scale       =       0.3333333333333333 [-]
	 SCS Opposite-Spin Scale   =       1.2000000000000000 [-]
	 SCS Same-Spin Energy      =      -0.1334181465157616 [Eh]
	 SCS Opposite-Spin Energy  =      -1.6536927533413623 [Eh]
	 SCS Correlation Energy    =      -1.7871108998571239 [Eh]
	 SCS Total Energy          =    -387.8498402187482270 [Eh]
	-----------------------------------------------------------

  Dipole Moment: [D]
     X:    -1.1588      Y:     0.6433      Z:     0.5773     Total:     1.4457

*** Psi4 exiting successfully. Buy a developer a beer!
