                               Psi4 1.3.2 release

  ==> Input File <==

--------------------------------------------------------------------------
#psi4
#
memory 32 gb

molecule  {
0 1
  O       -2.7848290    -0.9154220    -0.7447340
  C       -2.7698910    -0.0438090     0.3861860
  C       -1.3446020     0.1937550     0.7721520
  C        3.5873700    -0.2293000     0.2222030
  C       -3.4755630     1.2700040     0.0649850
  C       -0.2802220    -0.2946410     0.1124460
  C        2.1220783    -0.5451198    -0.1924733
  C        1.0922740    -0.0266840     0.5021560
  C        4.3244450     0.5343730    -0.8803810
  H       -3.2865450    -0.5271910     1.2335890
  H       -1.1970340     0.8260370     1.6487790
  H        3.6131550     0.3461180     1.1547940
  H        4.1142490    -1.1721620     0.4188690
  H       -2.9813020     1.7413150    -0.7875330
  H       -4.5277090     1.0956620    -0.1864690
  H       -3.4435650     1.9541860     0.9176610
  H       -0.4470010    -0.9272420    -0.7564190
  H        2.0063450    -1.1440610    -1.0244550
  H        1.1903649     0.6110353     1.3830693
  H        4.3142870    -0.0291260    -1.8177910
  H        5.3679410     0.7151030    -0.6066950
  H        3.8442820     1.4990380    -1.0633910
  H       -3.7175750    -1.0591810    -0.9792530
units angstrom
no_reorient  #important for SAPT in psi4, default
symmetry c1  #important for SAPT in psi4, default
}

set PROPERTIES_ORIGIN ["COM"]
properties('MP2/aug-cc-pvtz', properties = ['dipole'])
--------------------------------------------------------------------------

    Molecular point group: c1
  Charge       = 0
  Multiplicity = 1
  Basis Set: AUG-CC-PVTZ
    Blend: AUG-CC-PVTZ
  Basis Set: (AUG-CC-PVTZ AUX)
    Blend: AUG-CC-PVTZ-JKFIT

    Orbital Energies [Eh]
    ---------------------

    Doubly Occupied:

       1A    -20.558351     2A    -11.285893     3A    -11.225712
       4A    -11.225002     5A    -11.223872     6A    -11.221792
       7A    -11.220242     8A    -11.219926     9A    -11.211501
      10A     -1.360357    11A     -1.096283    12A     -1.056564
      13A     -1.014744    14A     -0.962179    15A     -0.873571
      16A     -0.824655    17A     -0.764095    18A     -0.747003
      19A     -0.694606    20A     -0.639805    21A     -0.623677
      22A     -0.617153    23A     -0.588454    24A     -0.580920
      25A     -0.551929    26A     -0.545143    27A     -0.531602
      28A     -0.513667    29A     -0.499030    30A     -0.490625
      31A     -0.483444    32A     -0.457316    33A     -0.452271
      34A     -0.419320    35A     -0.297867

  @DF-RHF Final Energy:  -386.05713251396890

   => Energetics <=

    Nuclear Repulsion Energy =            418.0083136482255100
    One-Electron Energy =               -1351.9737532870781251
    Two-Electron Energy =                 547.9083071248836632
    Total Energy =                       -386.0571325139688952
  Basis Set: (AUG-CC-PVTZ AUX)
    Blend: AUG-CC-PVTZ-RI
    Molecular point group: c1

    Geometry (in Angstrom), charge = 0, multiplicity = 1:

       Center              X                  Y                   Z               Mass
    ------------   -----------------  -----------------  -----------------  -----------------
         O           -2.780193263934    -0.912417520170    -0.740502923814    15.994914619570
         C           -2.765255263934    -0.040804520170     0.390417076186    12.000000000000
         C           -1.339966263934     0.196759479830     0.776383076186    12.000000000000
         C            3.592005736066    -0.226295520170     0.226434076186    12.000000000000
         C           -3.470927263934     1.273008479830     0.069216076186    12.000000000000
         C           -0.275586263934    -0.291636520170     0.116677076186    12.000000000000
         C            2.126714036066    -0.542115320170    -0.188242223814    12.000000000000
         C            1.096909736066    -0.023679520170     0.506387076186    12.000000000000
         C            4.329080736066     0.537377479830    -0.876149923814    12.000000000000
         H           -3.281909263934    -0.524186520170     1.237820076186     1.007825032230
         H           -1.192398263934     0.829041479830     1.653010076186     1.007825032230
         H            3.617790736066     0.349122479830     1.159025076186     1.007825032230
         H            4.118884736066    -1.169157520170     0.423100076186     1.007825032230
         H           -2.976666263934     1.744319479830    -0.783301923814     1.007825032230
         H           -4.523073263934     1.098666479830    -0.182237923814     1.007825032230
         H           -3.438929263934     1.957190479830     0.921892076186     1.007825032230
         H           -0.442365263934    -0.924237520170    -0.752187923814     1.007825032230
         H            2.010980736066    -1.141056520170    -1.020223923814     1.007825032230
         H            1.195000636066     0.614039779830     1.387300376186     1.007825032230
         H            4.318922736066    -0.026121520170    -1.813559923814     1.007825032230
         H            5.372576736066     0.718107479830    -0.602463923814     1.007825032230
         H            3.848917736066     1.502042479830    -1.059159923814     1.007825032230
         H           -3.712939263934    -1.056176520170    -0.975021923814     1.007825032230

  Basis Set: AUG-CC-PVTZ
    Blend: AUG-CC-PVTZ
  Basis Set: (AUG-CC-PVTZ AUX)
    Blend: AUG-CC-PVTZ-JKFIT
	 Reference Energy          =    -386.0571325139688952 [Eh]
	 Singles Energy            =      -0.0000000000000000 [Eh]
	 Same-Spin Energy          =      -0.3998819886837797 [Eh]
	 Opposite-Spin Energy      =      -1.3781065840907274 [Eh]
	 Correlation Energy        =      -1.7779885727745071 [Eh]
	 Total Energy              =    -387.8351210867434133 [Eh]

	 ================> DF-SCS-MP2 Energies <==================
	-----------------------------------------------------------
	 SCS Same-Spin Scale       =       0.3333333333333333 [-]
	 SCS Opposite-Spin Scale   =       1.2000000000000000 [-]
	 SCS Same-Spin Energy      =      -0.1332939962279265 [Eh]
	 SCS Opposite-Spin Energy  =      -1.6537279009088728 [Eh]
	 SCS Correlation Energy    =      -1.7870218971367993 [Eh]
	 SCS Total Energy          =    -387.8441544111057055 [Eh]
	-----------------------------------------------------------

  Dipole Moment: [D]
     X:    -1.2025      Y:     0.6243      Z:     0.5693     Total:     1.4696

*** Psi4 exiting successfully. Buy a developer a beer!
