                               Psi4 1.3.2 release

  ==> Input File <==

--------------------------------------------------------------------------
#psi4
#
memory 32 gb

molecule  {
0 1
  O       -2.7848290    -0.9154220    -0.7447340
  C       -2.7698910    -0.0438090     0.3861860
  C       -1.3446020     0.1937550     0.7721520
  C        3.5873700    -0.2293000     0.2222030
  C       -3.4755630     1.2700040     0.0649850
  C       -0.2802220    -0.2946410     0.1124460
  C        2.1626915    -0.5251811    -0.1246484
  C        1.0922740    -0.0266840     0.5021560
  C        4.3465094     0.5343442    -0.8653274
  H       -3.2865450    -0.5271910     1.2335890
  H       -1.1970340     0.8260370     1.6487790
  H        3.6131550     0.3461180     1.1547940
  H        4.1142490    -1.1721620     0.4188690
  H       -2.9813020     1.7413150    -0.7875330
  H       -4.5277090     1.0956620    -0.1864690
  H       -3.4435650     1.9541860     0.9176610
  H       -0.4470010    -0.9272420    -0.7564190
  H        2.0063450    -1.1440610    -1.0244550
  H        1.2471430     0.6066220     1.3780870
  H        4.3142870    -0.0291260    -1.8177910
  H        5.3679410     0.7151030    -0.6066950
  H        3.8442820     1.4990380    -1.0633910
  H       -3.7175750    -1.0591810    -0.9792530
units angstrom
no_reorient  #important for SAPT in psi4, default
symmetry c1  #important for SAPT in psi4, default
}

set PROPERTIES_ORIGIN ["COM"]
properties('MP2/aug-cc-pvtz', properties = ['dipole'])
--------------------------------------------------------------------------

    Molecular point group: c1
  Charge       = 0
  Multiplicity = 1
  Basis Set: AUG-CC-PVTZ
    Blend: AUG-CC-PVTZ
  Basis Set: (AUG-CC-PVTZ AUX)
    Blend: AUG-CC-PVTZ-JKFIT

    Orbital Energies [Eh]
    ---------------------

    Doubly Occupied:

       1A    -20.558901     2A    -11.286710     3A    -11.225789
       4A    -11.223905     5A    -11.223128     6A    -11.222581
       7A    -11.221952     8A    -11.220828     9A    -11.213446
      10A     -1.360950    11A     -1.098651    12A     -1.061288
      13A     -1.016486    14A     -0.963851    15A     -0.877261
      16A     -0.829466    17A     -0.750332    18A     -0.748270
      19A     -0.695410    20A     -0.637340    21A     -0.627076
      22A     -0.617171    23A     -0.592798    24A     -0.582184
      25A     -0.546544    26A     -0.544478    27A     -0.526932
      28A     -0.520048    29A     -0.501203    30A     -0.491610
      31A     -0.475043    32A     -0.468514    33A     -0.453151
      34A     -0.419292    35A     -0.299148

  @DF-RHF Final Energy:  -386.06172251573031

   => Energetics <=

    Nuclear Repulsion Energy =            418.2036055541239534
    One-Electron Energy =               -1352.3271789049172185
    Two-Electron Energy =                 548.0618508350630691
    Total Energy =                       -386.0617225157302528
  Basis Set: (AUG-CC-PVTZ AUX)
    Blend: AUG-CC-PVTZ-RI
    Molecular point group: c1

    Geometry (in Angstrom), charge = 0, multiplicity = 1:

       Center              X                  Y                   Z               Mass
    ------------   -----------------  -----------------  -----------------  -----------------
         O           -2.786611383942    -0.914276859295    -0.748349757095    15.994914619570
         C           -2.771673383942    -0.042663859295     0.382570242905    12.000000000000
         C           -1.346384383942     0.194900140705     0.768536242905    12.000000000000
         C            3.585587616058    -0.228154859295     0.218587242905    12.000000000000
         C           -3.477345383942     1.271149140705     0.061369242905    12.000000000000
         C           -0.282004383942    -0.293495859295     0.108830242905    12.000000000000
         C            2.160909116058    -0.524035959295    -0.128264157095    12.000000000000
         C            1.090491616058    -0.025538859295     0.498540242905    12.000000000000
         C            4.344727016058     0.535489340705    -0.868943157095    12.000000000000
         H           -3.288327383942    -0.526045859295     1.229973242905     1.007825032230
         H           -1.198816383942     0.827182140705     1.645163242905     1.007825032230
         H            3.611372616058     0.347263140705     1.151178242905     1.007825032230
         H            4.112466616058    -1.171016859295     0.415253242905     1.007825032230
         H           -2.983084383942     1.742460140705    -0.791148757095     1.007825032230
         H           -4.529491383942     1.096807140705    -0.190084757095     1.007825032230
         H           -3.445347383942     1.955331140705     0.914045242905     1.007825032230
         H           -0.448783383942    -0.926096859295    -0.760034757095     1.007825032230
         H            2.004562616058    -1.142915859295    -1.028070757095     1.007825032230
         H            1.245360616058     0.607767140705     1.374471242905     1.007825032230
         H            4.312504616058    -0.027980859295    -1.821406757095     1.007825032230
         H            5.366158616058     0.716248140705    -0.610310757095     1.007825032230
         H            3.842499616058     1.500183140705    -1.067006757095     1.007825032230
         H           -3.719357383942    -1.058035859295    -0.982868757095     1.007825032230

  Basis Set: AUG-CC-PVTZ
    Blend: AUG-CC-PVTZ
  Basis Set: (AUG-CC-PVTZ AUX)
    Blend: AUG-CC-PVTZ-JKFIT
	 Reference Energy          =    -386.0617225157303096 [Eh]
	 Singles Energy            =      -0.0000000000000000 [Eh]
	 Same-Spin Energy          =      -0.4002556724405676 [Eh]
	 Opposite-Spin Energy      =      -1.3781266882641092 [Eh]
	 Correlation Energy        =      -1.7783823607046769 [Eh]
	 Total Energy              =    -387.8401048764349639 [Eh]

	 ================> DF-SCS-MP2 Energies <==================
	-----------------------------------------------------------
	 SCS Same-Spin Scale       =       0.3333333333333333 [-]
	 SCS Opposite-Spin Scale   =       1.2000000000000000 [-]
	 SCS Same-Spin Energy      =      -0.1334185574801892 [Eh]
	 SCS Opposite-Spin Energy  =      -1.6537520259169309 [Eh]
	 SCS Correlation Energy    =      -1.7871705833971201 [Eh]
	 SCS Total Energy          =    -387.8488930991274515 [Eh]
	-----------------------------------------------------------

  Dipole Moment: [D]
     X:    -1.1711      Y:     0.6701      Z:     0.5755     Total:     1.4669

*** Psi4 exiting successfully. Buy a developer a beer!
