                               Psi4 1.3.2 release

  ==> Input File <==

--------------------------------------------------------------------------
#psi4
#
memory 32 gb

molecule  {
0 1
  O       -2.7848290    -0.9154220    -0.7447340
  C       -2.7698910    -0.0438090     0.3861860
  C       -1.3446020     0.1937550     0.7721520
  C        3.5873700    -0.2293000     0.2222030
  C       -3.4755630     1.2700040     0.0649850
  C       -0.2717625    -0.3087777     0.0931968
  C        2.1516952    -0.5240343    -0.1627138
  C        1.0922740    -0.0266840     0.5021560
  C        4.3244450     0.5343730    -0.8803810
  H       -3.2865450    -0.5271910     1.2335890
  H       -1.1970340     0.8260370     1.6487790
  H        3.6131550     0.3461180     1.1547940
  H        4.1142490    -1.1721620     0.4188690
  H       -2.9813020     1.7413150    -0.7875330
  H       -4.5277090     1.0956620    -0.1864690
  H       -3.4435650     1.9541860     0.9176610
  H       -0.4470010    -0.9272420    -0.7564190
  H        2.0063450    -1.1440610    -1.0244550
  H        1.2471430     0.6066220     1.3780870
  H        4.3142870    -0.0291260    -1.8177910
  H        5.3679410     0.7151030    -0.6066950
  H        3.8442820     1.4990380    -1.0633910
  H       -3.7175750    -1.0591810    -0.9792530
units angstrom
no_reorient  #important for SAPT in psi4, default
symmetry c1  #important for SAPT in psi4, default
}

set PROPERTIES_ORIGIN ["COM"]
properties('MP2/aug-cc-pvtz', properties = ['dipole'])
--------------------------------------------------------------------------

    Molecular point group: c1
  Charge       = 0
  Multiplicity = 1
  Basis Set: AUG-CC-PVTZ
    Blend: AUG-CC-PVTZ
  Basis Set: (AUG-CC-PVTZ AUX)
    Blend: AUG-CC-PVTZ-JKFIT

    Orbital Energies [Eh]
    ---------------------

    Doubly Occupied:

       1A    -20.558665     2A    -11.285994     3A    -11.225380
       4A    -11.224921     5A    -11.223727     6A    -11.223407
       7A    -11.222900     8A    -11.220370     9A    -11.212273
      10A     -1.360651    11A     -1.096172    12A     -1.058219
      13A     -1.015573    14A     -0.960470    15A     -0.875507
      16A     -0.826381    17A     -0.755439    18A     -0.750618
      19A     -0.695400    20A     -0.638219    21A     -0.624726
      22A     -0.616982    23A     -0.589674    24A     -0.581195
      25A     -0.547627    26A     -0.544417    27A     -0.528764
      28A     -0.517181    29A     -0.504631    30A     -0.491629
      31A     -0.481068    32A     -0.465393    33A     -0.452220
      34A     -0.417185    35A     -0.294302

  @DF-RHF Final Energy:  -386.06045361216206

   => Energetics <=

    Nuclear Repulsion Energy =            417.9923090357241335
    One-Electron Energy =               -1351.9309581807651739
    Two-Electron Energy =                 547.8781955328789763
    Total Energy =                       -386.0604536121620640
  Basis Set: (AUG-CC-PVTZ AUX)
    Blend: AUG-CC-PVTZ-RI
    Molecular point group: c1

    Geometry (in Angstrom), charge = 0, multiplicity = 1:

       Center              X                  Y                   Z               Mass
    ------------   -----------------  -----------------  -----------------  -----------------
         O           -2.784270353434    -0.913043491389    -0.741463257085    15.994914619570
         C           -2.769332353434    -0.041430491389     0.389456742915    12.000000000000
         C           -1.344043353434     0.196133508611     0.775422742915    12.000000000000
         C            3.587928646566    -0.226921491389     0.225473742915    12.000000000000
         C           -3.475004353434     1.272382508611     0.068255742915    12.000000000000
         C           -0.271203853434    -0.306399191389     0.096467542915    12.000000000000
         C            2.152253846566    -0.521655791389    -0.159443057085    12.000000000000
         C            1.092832646566    -0.024305491389     0.505426742915    12.000000000000
         C            4.325003646566     0.536751508611    -0.877110257085    12.000000000000
         H           -3.285986353434    -0.524812491389     1.236859742915     1.007825032230
         H           -1.196475353434     0.828415508611     1.652049742915     1.007825032230
         H            3.613713646566     0.348496508611     1.158064742915     1.007825032230
         H            4.114807646566    -1.169783491389     0.422139742915     1.007825032230
         H           -2.980743353434     1.743693508611    -0.784262257085     1.007825032230
         H           -4.527150353434     1.098040508611    -0.183198257085     1.007825032230
         H           -3.443006353434     1.956564508611     0.920931742915     1.007825032230
         H           -0.446442353434    -0.924863491389    -0.753148257085     1.007825032230
         H            2.006903646566    -1.141682491389    -1.021184257085     1.007825032230
         H            1.247701646566     0.609000508611     1.381357742915     1.007825032230
         H            4.314845646566    -0.026747491389    -1.814520257085     1.007825032230
         H            5.368499646566     0.717481508611    -0.603424257085     1.007825032230
         H            3.844840646566     1.501416508611    -1.060120257085     1.007825032230
         H           -3.717016353434    -1.056802491389    -0.975982257085     1.007825032230

  Basis Set: AUG-CC-PVTZ
    Blend: AUG-CC-PVTZ
  Basis Set: (AUG-CC-PVTZ AUX)
    Blend: AUG-CC-PVTZ-JKFIT
	 Reference Energy          =    -386.0604536121620640 [Eh]
	 Singles Energy            =      -0.0000000000000000 [Eh]
	 Same-Spin Energy          =      -0.4003792725861378 [Eh]
	 Opposite-Spin Energy      =      -1.3786962622333130 [Eh]
	 Correlation Energy        =      -1.7790755348194507 [Eh]
	 Total Energy              =    -387.8395291469815334 [Eh]

	 ================> DF-SCS-MP2 Energies <==================
	-----------------------------------------------------------
	 SCS Same-Spin Scale       =       0.3333333333333333 [-]
	 SCS Opposite-Spin Scale   =       1.2000000000000000 [-]
	 SCS Same-Spin Energy      =      -0.1334597575287126 [Eh]
	 SCS Opposite-Spin Energy  =      -1.6544355146799756 [Eh]
	 SCS Correlation Energy    =      -1.7878952722086883 [Eh]
	 SCS Total Energy          =    -387.8483488843707505 [Eh]
	-----------------------------------------------------------

  Dipole Moment: [D]
     X:    -1.1741      Y:     0.6331      Z:     0.5747     Total:     1.4524

*** Psi4 exiting successfully. Buy a developer a beer!
