                               Psi4 1.3.2 release

  ==> Input File <==

--------------------------------------------------------------------------
#psi4
#
memory 32 gb

molecule  {
0 1
  O       -2.8220680    -0.8626812    -0.7824193
  C       -2.7698910    -0.0438090     0.3861860
  C       -1.3446020     0.1937550     0.7721520
  C        3.5873700    -0.2293000     0.2222030
  C       -3.4894727     1.2421261    -0.0085553
  C       -0.2802220    -0.2946410     0.1124460
  C        2.1660230    -0.5131760    -0.1475910
  C        1.0922740    -0.0266840     0.5021560
  C        4.3244450     0.5343730    -0.8803810
  H       -3.2865450    -0.5271910     1.2335890
  H       -1.1970340     0.8260370     1.6487790
  H        3.6131550     0.3461180     1.1547940
  H        4.1142490    -1.1721620     0.4188690
  H       -2.9813020     1.7413150    -0.7875330
  H       -4.5277090     1.0956620    -0.1864690
  H       -3.4435650     1.9541860     0.9176610
  H       -0.4470010    -0.9272420    -0.7564190
  H        2.0063450    -1.1440610    -1.0244550
  H        1.2471430     0.6066220     1.3780870
  H        4.3142870    -0.0291260    -1.8177910
  H        5.3679410     0.7151030    -0.6066950
  H        3.8442820     1.4990380    -1.0633910
  H       -3.7175750    -1.0591810    -0.9792530
units angstrom
no_reorient  #important for SAPT in psi4, default
symmetry c1  #important for SAPT in psi4, default
}

set PROPERTIES_ORIGIN ["COM"]
properties('MP2/aug-cc-pvtz', properties = ['dipole'])
--------------------------------------------------------------------------

    Molecular point group: c1
  Charge       = 0
  Multiplicity = 1
  Basis Set: AUG-CC-PVTZ
    Blend: AUG-CC-PVTZ
  Basis Set: (AUG-CC-PVTZ AUX)
    Blend: AUG-CC-PVTZ-JKFIT

    Orbital Energies [Eh]
    ---------------------

    Doubly Occupied:

       1A    -20.551455     2A    -11.287317     3A    -11.227098
       4A    -11.225370     5A    -11.224230     6A    -11.223913
       7A    -11.223510     8A    -11.218776     9A    -11.213432
      10A     -1.366587    11A     -1.099058    12A     -1.062121
      13A     -1.015811    14A     -0.962950    15A     -0.878367
      16A     -0.830323    17A     -0.753891    18A     -0.751343
      19A     -0.701344    20A     -0.638945    21A     -0.630406
      22A     -0.611422    23A     -0.591748    24A     -0.584183
      25A     -0.558409    26A     -0.540918    27A     -0.521566
      28A     -0.517410    29A     -0.502337    30A     -0.489721
      31A     -0.479961    32A     -0.469794    33A     -0.447746
      34A     -0.418974    35A     -0.298925

  @DF-RHF Final Energy:  -386.05611991451502

   => Energetics <=

    Nuclear Repulsion Energy =            418.4022498394698459
    One-Electron Energy =               -1352.6780191874415777
    Two-Electron Energy =                 548.2196494334567660
    Total Energy =                       -386.0561199145149658
  Basis Set: (AUG-CC-PVTZ AUX)
    Blend: AUG-CC-PVTZ-RI
    Molecular point group: c1

    Geometry (in Angstrom), charge = 0, multiplicity = 1:

       Center              X                  Y                   Z               Mass
    ------------   -----------------  -----------------  -----------------  -----------------
         O           -2.816020797377    -0.866717926508    -0.770641382059    15.994914619570
         C           -2.763843797377    -0.047845726508     0.397963917941    12.000000000000
         C           -1.338554797377     0.189718273492     0.783929917941    12.000000000000
         C            3.593417202623    -0.233336726508     0.233980917941    12.000000000000
         C           -3.483425497377     1.238089373492     0.003222617941    12.000000000000
         C           -0.274174797377    -0.298677726508     0.124223917941    12.000000000000
         C            2.172070202623    -0.517212726508    -0.135813082059    12.000000000000
         C            1.098321202623    -0.030720726508     0.513933917941    12.000000000000
         C            4.330492202623     0.530336273492    -0.868603082059    12.000000000000
         H           -3.280497797377    -0.531227726508     1.245366917941     1.007825032230
         H           -1.190986797377     0.822000273492     1.660556917941     1.007825032230
         H            3.619202202623     0.342081273492     1.166571917941     1.007825032230
         H            4.120296202623    -1.176198726508     0.430646917941     1.007825032230
         H           -2.975254797377     1.737278273492    -0.775755082059     1.007825032230
         H           -4.521661797377     1.091625273492    -0.174691082059     1.007825032230
         H           -3.437517797377     1.950149273492     0.929438917941     1.007825032230
         H           -0.440953797377    -0.931278726508    -0.744641082059     1.007825032230
         H            2.012392202623    -1.148097726508    -1.012677082059     1.007825032230
         H            1.253190202623     0.602585273492     1.389864917941     1.007825032230
         H            4.320334202623    -0.033162726508    -1.806013082059     1.007825032230
         H            5.373988202623     0.711066273492    -0.594917082059     1.007825032230
         H            3.850329202623     1.495001273492    -1.051613082059     1.007825032230
         H           -3.711527797377    -1.063217726508    -0.967475082059     1.007825032230

  Basis Set: AUG-CC-PVTZ
    Blend: AUG-CC-PVTZ
  Basis Set: (AUG-CC-PVTZ AUX)
    Blend: AUG-CC-PVTZ-JKFIT
	 Reference Energy          =    -386.0561199145150226 [Eh]
	 Singles Energy            =      -0.0000000000000000 [Eh]
	 Same-Spin Energy          =      -0.3998618366195891 [Eh]
	 Opposite-Spin Energy      =      -1.3772815790995221 [Eh]
	 Correlation Energy        =      -1.7771434157191113 [Eh]
	 Total Energy              =    -387.8332633302341605 [Eh]

	 ================> DF-SCS-MP2 Energies <==================
	-----------------------------------------------------------
	 SCS Same-Spin Scale       =       0.3333333333333333 [-]
	 SCS Opposite-Spin Scale   =       1.2000000000000000 [-]
	 SCS Same-Spin Energy      =      -0.1332872788731964 [Eh]
	 SCS Opposite-Spin Energy  =      -1.6527378949194265 [Eh]
	 SCS Correlation Energy    =      -1.7860251737926229 [Eh]
	 SCS Total Energy          =    -387.8421450883076318 [Eh]
	-----------------------------------------------------------

  Dipole Moment: [D]
     X:    -1.0282      Y:     0.4768      Z:     0.6359     Total:     1.2995

*** Psi4 exiting successfully. Buy a developer a beer!
