                               Psi4 1.3.2 release

  ==> Input File <==

--------------------------------------------------------------------------
#psi4
#
memory 32 gb

molecule  {
0 1
  O       -2.7848290    -0.9154220    -0.7447340
  C       -2.7698910    -0.0438090     0.3861860
  C       -1.3301152     0.2045639     0.7871060
  C        3.5873700    -0.2293000     0.2222030
  C       -3.4755630     1.2700040     0.0649850
  C       -0.2802220    -0.2946410     0.1124460
  C        2.1660230    -0.5131760    -0.1475910
  C        1.0922740    -0.0266840     0.5021560
  C        4.3244450     0.5343730    -0.8803810
  H       -3.2865450    -0.5271910     1.2335890
  H       -1.1970340     0.8260370     1.6487790
  H        3.6131550     0.3461180     1.1547940
  H        4.1142490    -1.1721620     0.4188690
  H       -2.9813020     1.7413150    -0.7875330
  H       -4.5277090     1.0956620    -0.1864690
  H       -3.4435650     1.9541860     0.9176610
  H       -0.4282187    -0.9289440    -0.7585778
  H        2.0063450    -1.1440610    -1.0244550
  H        1.2471430     0.6066220     1.3780870
  H        4.3142870    -0.0291260    -1.8177910
  H        5.3679410     0.7151030    -0.6066950
  H        3.8442820     1.4990380    -1.0633910
  H       -3.7175750    -1.0591810    -0.9792530
units angstrom
no_reorient  #important for SAPT in psi4, default
symmetry c1  #important for SAPT in psi4, default
}

set PROPERTIES_ORIGIN ["COM"]
properties('MP2/aug-cc-pvtz', properties = ['dipole'])
--------------------------------------------------------------------------

    Molecular point group: c1
  Charge       = 0
  Multiplicity = 1
  Basis Set: AUG-CC-PVTZ
    Blend: AUG-CC-PVTZ
  Basis Set: (AUG-CC-PVTZ AUX)
    Blend: AUG-CC-PVTZ-JKFIT

    Orbital Energies [Eh]
    ---------------------

    Doubly Occupied:

       1A    -20.558738     2A    -11.287047     3A    -11.225464
       4A    -11.223845     5A    -11.223031     6A    -11.222456
       7A    -11.221837     8A    -11.220200     9A    -11.212739
      10A     -1.360131    11A     -1.097762    12A     -1.060036
      13A     -1.015438    14A     -0.962106    15A     -0.875189
      16A     -0.827444    17A     -0.753165    18A     -0.750672
      19A     -0.694147    20A     -0.637195    21A     -0.626924
      22A     -0.616679    23A     -0.590457    24A     -0.583542
      25A     -0.548203    26A     -0.543796    27A     -0.526628
      28A     -0.519338    29A     -0.503055    30A     -0.491244
      31A     -0.478714    32A     -0.465158    33A     -0.452114
      34A     -0.418626    35A     -0.297593

  @DF-RHF Final Energy:  -386.06225898922645

   => Energetics <=

    Nuclear Repulsion Energy =            418.0505305863507601
    One-Electron Energy =               -1352.0441556563459926
    Two-Electron Energy =                 547.9313660807687256
    Total Energy =                       -386.0622589892265069
  Basis Set: (AUG-CC-PVTZ AUX)
    Blend: AUG-CC-PVTZ-RI
    Molecular point group: c1

    Geometry (in Angstrom), charge = 0, multiplicity = 1:

       Center              X                  Y                   Z               Mass
    ------------   -----------------  -----------------  -----------------  -----------------
         O           -2.786357436329    -0.916436959508    -0.746139826681    15.994914619570
         C           -2.771419436329    -0.044823959508     0.384780173319    12.000000000000
         C           -1.331643636329     0.203548940492     0.785700173319    12.000000000000
         C            3.585841563671    -0.230314959508     0.220797173319    12.000000000000
         C           -3.477091436329     1.268989040492     0.063579173319    12.000000000000
         C           -0.281750436329    -0.295655959508     0.111040173319    12.000000000000
         C            2.164494563671    -0.514190959508    -0.148996826681    12.000000000000
         C            1.090745563671    -0.027698959508     0.500750173319    12.000000000000
         C            4.322916563671     0.533358040492    -0.881786826681    12.000000000000
         H           -3.288073436329    -0.528205959508     1.232183173319     1.007825032230
         H           -1.198562436329     0.825022040492     1.647373173319     1.007825032230
         H            3.611626563671     0.345103040492     1.153388173319     1.007825032230
         H            4.112720563671    -1.173176959508     0.417463173319     1.007825032230
         H           -2.982830436329     1.740300040492    -0.788938826681     1.007825032230
         H           -4.529237436329     1.094647040492    -0.187874826681     1.007825032230
         H           -3.445093436329     1.953171040492     0.916255173319     1.007825032230
         H           -0.429747136329    -0.929958959508    -0.759983626681     1.007825032230
         H            2.004816563671    -1.145075959508    -1.025860826681     1.007825032230
         H            1.245614563671     0.605607040492     1.376681173319     1.007825032230
         H            4.312758563671    -0.030140959508    -1.819196826681     1.007825032230
         H            5.366412563671     0.714088040492    -0.608100826681     1.007825032230
         H            3.842753563671     1.498023040492    -1.064796826681     1.007825032230
         H           -3.719103436329    -1.060195959508    -0.980658826681     1.007825032230

  Basis Set: AUG-CC-PVTZ
    Blend: AUG-CC-PVTZ
  Basis Set: (AUG-CC-PVTZ AUX)
    Blend: AUG-CC-PVTZ-JKFIT
	 Reference Energy          =    -386.0622589892264500 [Eh]
	 Singles Energy            =      -0.0000000000000000 [Eh]
	 Same-Spin Energy          =      -0.4001478077988996 [Eh]
	 Opposite-Spin Energy      =      -1.3781244378242050 [Eh]
	 Correlation Energy        =      -1.7782722456231046 [Eh]
	 Total Energy              =    -387.8405312348495499 [Eh]

	 ================> DF-SCS-MP2 Energies <==================
	-----------------------------------------------------------
	 SCS Same-Spin Scale       =       0.3333333333333333 [-]
	 SCS Opposite-Spin Scale   =       1.2000000000000000 [-]
	 SCS Same-Spin Energy      =      -0.1333826025996332 [Eh]
	 SCS Opposite-Spin Energy  =      -1.6537493253890461 [Eh]
	 SCS Correlation Energy    =      -1.7871319279886793 [Eh]
	 SCS Total Energy          =    -387.8493909172151461 [Eh]
	-----------------------------------------------------------

  Dipole Moment: [D]
     X:    -1.1479      Y:     0.6429      Z:     0.5863     Total:     1.4403

*** Psi4 exiting successfully. Buy a developer a beer!
