                               Psi4 1.3.2 release

  ==> Input File <==

--------------------------------------------------------------------------
#psi4
#
memory 32 gb

molecule  {
0 1
  O       -2.7848290    -0.9154220    -0.7447340
  C       -2.7698910    -0.0438090     0.3861860
  C       -1.3446020     0.1937550     0.7721520
  C        3.5873700    -0.2293000     0.2222030
  C       -3.4755630     1.2700040     0.0649850
  C       -0.2802220    -0.2946410     0.1124460
  C        2.1936915    -0.4911338    -0.1166722
  C        1.0922740    -0.0266840     0.5021560
  C        4.3244450     0.5343730    -0.8803810
  H       -3.2865450    -0.5271910     1.2335890
  H       -1.1970340     0.8260370     1.6487790
  H        3.6131550     0.3461180     1.1547940
  H        4.1142490    -1.1721620     0.4188690
  H       -2.9813020     1.7413150    -0.7875330
  H       -4.5277090     1.0956620    -0.1864690
  H       -3.4435650     1.9541860     0.9176610
  H       -0.4470010    -0.9272420    -0.7564190
  H        2.0063450    -1.1440610    -1.0244550
  H        1.2847688     0.6027145     1.3734305
  H        4.3142870    -0.0291260    -1.8177910
  H        5.3679410     0.7151030    -0.6066950
  H        3.8442820     1.4990380    -1.0633910
  H       -3.7175750    -1.0591810    -0.9792530
units angstrom
no_reorient  #important for SAPT in psi4, default
symmetry c1  #important for SAPT in psi4, default
}

set PROPERTIES_ORIGIN ["COM"]
properties('MP2/aug-cc-pvtz', properties = ['dipole'])
--------------------------------------------------------------------------

    Molecular point group: c1
  Charge       = 0
  Multiplicity = 1
  Basis Set: AUG-CC-PVTZ
    Blend: AUG-CC-PVTZ
  Basis Set: (AUG-CC-PVTZ AUX)
    Blend: AUG-CC-PVTZ-JKFIT

    Orbital Energies [Eh]
    ---------------------

    Doubly Occupied:

       1A    -20.559046     2A    -11.286937     3A    -11.227143
       4A    -11.224898     5A    -11.223234     6A    -11.222600
       7A    -11.222082     8A    -11.220960     9A    -11.213884
      10A     -1.361111    11A     -1.099887    12A     -1.064752
      13A     -1.017024    14A     -0.962943    15A     -0.879365
      16A     -0.831486    17A     -0.749712    18A     -0.744694
      19A     -0.695662    20A     -0.636941    21A     -0.630202
      22A     -0.617594    23A     -0.592241    24A     -0.584394
      25A     -0.546472    26A     -0.541349    27A     -0.524287
      28A     -0.522586    29A     -0.503034    30A     -0.493133
      31A     -0.475546    32A     -0.469228    33A     -0.453197
      34A     -0.417818    35A     -0.297399

  @DF-RHF Final Energy:  -386.05903564074424

   => Energetics <=

    Nuclear Repulsion Energy =            418.4726537355806499
    One-Electron Energy =               -1352.8376969833193471
    Two-Electron Energy =                 548.3060076069943989
    Total Energy =                       -386.0590356407442414
  Basis Set: (AUG-CC-PVTZ AUX)
    Blend: AUG-CC-PVTZ-RI
    Molecular point group: c1

    Geometry (in Angstrom), charge = 0, multiplicity = 1:

       Center              X                  Y                   Z               Mass
    ------------   -----------------  -----------------  -----------------  -----------------
         O           -2.787762393330    -0.917488285024    -0.747639062694    15.994914619570
         C           -2.772824393330    -0.045875285024     0.383280937306    12.000000000000
         C           -1.347535393330     0.191688714976     0.769246937306    12.000000000000
         C            3.584436606670    -0.231366285024     0.219297937306    12.000000000000
         C           -3.478496393330     1.267937714976     0.062079937306    12.000000000000
         C           -0.283155393330    -0.296707285024     0.109540937306    12.000000000000
         C            2.190758106670    -0.493200085024    -0.119577262694    12.000000000000
         C            1.089340606670    -0.028750285024     0.499250937306    12.000000000000
         C            4.321511606670     0.532306714976    -0.883286062694    12.000000000000
         H           -3.289478393330    -0.529257285024     1.230683937306     1.007825032230
         H           -1.199967393330     0.823970714976     1.645873937306     1.007825032230
         H            3.610221606670     0.344051714976     1.151888937306     1.007825032230
         H            4.111315606670    -1.174228285024     0.415963937306     1.007825032230
         H           -2.984235393330     1.739248714976    -0.790438062694     1.007825032230
         H           -4.530642393330     1.093595714976    -0.189374062694     1.007825032230
         H           -3.446498393330     1.952119714976     0.914755937306     1.007825032230
         H           -0.449934393330    -0.929308285024    -0.759324062694     1.007825032230
         H            2.003411606670    -1.146127285024    -1.027360062694     1.007825032230
         H            1.281835406670     0.600648214976     1.370525437306     1.007825032230
         H            4.311353606670    -0.031192285024    -1.820696062694     1.007825032230
         H            5.365007606670     0.713036714976    -0.609600062694     1.007825032230
         H            3.841348606670     1.496971714976    -1.066296062694     1.007825032230
         H           -3.720508393330    -1.061247285024    -0.982158062694     1.007825032230

  Basis Set: AUG-CC-PVTZ
    Blend: AUG-CC-PVTZ
  Basis Set: (AUG-CC-PVTZ AUX)
    Blend: AUG-CC-PVTZ-JKFIT
	 Reference Energy          =    -386.0590356407442414 [Eh]
	 Singles Energy            =      -0.0000000000000000 [Eh]
	 Same-Spin Energy          =      -0.4008793280499139 [Eh]
	 Opposite-Spin Energy      =      -1.3789016609365339 [Eh]
	 Correlation Energy        =      -1.7797809889864478 [Eh]
	 Total Energy              =    -387.8388166297306725 [Eh]

	 ================> DF-SCS-MP2 Energies <==================
	-----------------------------------------------------------
	 SCS Same-Spin Scale       =       0.3333333333333333 [-]
	 SCS Opposite-Spin Scale   =       1.2000000000000000 [-]
	 SCS Same-Spin Energy      =      -0.1336264426833046 [Eh]
	 SCS Opposite-Spin Energy  =      -1.6546819931238406 [Eh]
	 SCS Correlation Energy    =      -1.7883084358071453 [Eh]
	 SCS Total Energy          =    -387.8473440765513942 [Eh]
	-----------------------------------------------------------

  Dipole Moment: [D]
     X:    -1.1369      Y:     0.6606      Z:     0.5903     Total:     1.4413

*** Psi4 exiting successfully. Buy a developer a beer!
