                               Psi4 1.3.2 release

  ==> Input File <==

--------------------------------------------------------------------------
#psi4
#
memory 32 gb

molecule  {
0 1
  O       -2.7848290    -0.9154220    -0.7447340
  C       -2.7947999    -0.0431611     0.3857411
  C       -1.3446020     0.1937550     0.7721520
  C        3.5873700    -0.2293000     0.2222030
  C       -3.4755630     1.2700040     0.0649850
  C       -0.2802220    -0.2946410     0.1124460
  C        2.1660230    -0.5131760    -0.1475910
  C        1.0922740    -0.0266840     0.5021560
  C        4.3244450     0.5343730    -0.8803810
  H       -3.2865450    -0.5271910     1.2335890
  H       -1.1970340     0.8260370     1.6487790
  H        3.6131550     0.3461180     1.1547940
  H        4.1142490    -1.1721620     0.4188690
  H       -2.9813020     1.7413150    -0.7875330
  H       -4.5277090     1.0956620    -0.1864690
  H       -3.4435650     1.9541860     0.9176610
  H       -0.4470010    -0.9272420    -0.7564190
  H        2.0063450    -1.1440610    -1.0244550
  H        1.2471430     0.6066220     1.3780870
  H        4.3142870    -0.0291260    -1.8177910
  H        5.3679410     0.7151030    -0.6066950
  H        3.8442820     1.4990380    -1.0633910
  H       -3.7222038    -1.0490936    -0.9664123
units angstrom
no_reorient  #important for SAPT in psi4, default
symmetry c1  #important for SAPT in psi4, default
}

set PROPERTIES_ORIGIN ["COM"]
properties('MP2/aug-cc-pvtz', properties = ['dipole'])
--------------------------------------------------------------------------

    Molecular point group: c1
  Charge       = 0
  Multiplicity = 1
  Basis Set: AUG-CC-PVTZ
    Blend: AUG-CC-PVTZ
  Basis Set: (AUG-CC-PVTZ AUX)
    Blend: AUG-CC-PVTZ-JKFIT

    Orbital Energies [Eh]
    ---------------------

    Doubly Occupied:

       1A    -20.560013     2A    -11.286220     3A    -11.225535
       4A    -11.223614     5A    -11.223055     6A    -11.222824
       7A    -11.221553     8A    -11.220771     9A    -11.212672
      10A     -1.362351    11A     -1.096794    12A     -1.059771
      13A     -1.017275    14A     -0.962524    15A     -0.874988
      16A     -0.828458    17A     -0.752503    18A     -0.746443
      19A     -0.696514    20A     -0.636437    21A     -0.627421
      22A     -0.619050    23A     -0.590202    24A     -0.582172
      25A     -0.548592    26A     -0.543908    27A     -0.526918
      28A     -0.518394    29A     -0.500258    30A     -0.492016
      31A     -0.478628    32A     -0.465138    33A     -0.454856
      34A     -0.419157    35A     -0.297508

  @DF-RHF Final Energy:  -386.06170535606196

   => Energetics <=

    Nuclear Repulsion Energy =            418.0747978293292704
    One-Electron Energy =               -1352.0839441748532863
    Two-Electron Energy =                 547.9474409894619384
    Total Energy =                       -386.0617053560620207
  Basis Set: (AUG-CC-PVTZ AUX)
    Blend: AUG-CC-PVTZ-RI
    Molecular point group: c1

    Geometry (in Angstrom), charge = 0, multiplicity = 1:

       Center              X                  Y                   Z               Mass
    ------------   -----------------  -----------------  -----------------  -----------------
         O           -2.782421471871    -0.915564267589    -0.744794355461    15.994914619570
         C           -2.792392371871    -0.043303367589     0.385680744539    12.000000000000
         C           -1.342194471871     0.193612732411     0.772091644539    12.000000000000
         C            3.589777528129    -0.229442267589     0.222142644539    12.000000000000
         C           -3.473155471871     1.269861732411     0.064924644539    12.000000000000
         C           -0.277814471871    -0.294783267589     0.112385644539    12.000000000000
         C            2.168430528129    -0.513318267589    -0.147651355461    12.000000000000
         C            1.094681528129    -0.026826267589     0.502095644539    12.000000000000
         C            4.326852528129     0.534230732411    -0.880441355461    12.000000000000
         H           -3.284137471871    -0.527333267589     1.233528644539     1.007825032230
         H           -1.194626471871     0.825894732411     1.648718644539     1.007825032230
         H            3.615562528129     0.345975732411     1.154733644539     1.007825032230
         H            4.116656528129    -1.172304267589     0.418808644539     1.007825032230
         H           -2.978894471871     1.741172732411    -0.787593355461     1.007825032230
         H           -4.525301471871     1.095519732411    -0.186529355461     1.007825032230
         H           -3.441157471871     1.954043732411     0.917600644539     1.007825032230
         H           -0.444593471871    -0.927384267589    -0.756479355461     1.007825032230
         H            2.008752528129    -1.144203267589    -1.024515355461     1.007825032230
         H            1.249550528129     0.606479732411     1.378026644539     1.007825032230
         H            4.316694528129    -0.029268267589    -1.817851355461     1.007825032230
         H            5.370348528129     0.714960732411    -0.606755355461     1.007825032230
         H            3.846689528129     1.498895732411    -1.063451355461     1.007825032230
         H           -3.719796271871    -1.049235867589    -0.966472655461     1.007825032230

  Basis Set: AUG-CC-PVTZ
    Blend: AUG-CC-PVTZ
  Basis Set: (AUG-CC-PVTZ AUX)
    Blend: AUG-CC-PVTZ-JKFIT
	 Reference Energy          =    -386.0617053560619638 [Eh]
	 Singles Energy            =      -0.0000000000000000 [Eh]
	 Same-Spin Energy          =      -0.4003337877577792 [Eh]
	 Opposite-Spin Energy      =      -1.3784723863239943 [Eh]
	 Correlation Energy        =      -1.7788061740817736 [Eh]
	 Total Energy              =    -387.8405115301437149 [Eh]

	 ================> DF-SCS-MP2 Energies <==================
	-----------------------------------------------------------
	 SCS Same-Spin Scale       =       0.3333333333333333 [-]
	 SCS Opposite-Spin Scale   =       1.2000000000000000 [-]
	 SCS Same-Spin Energy      =      -0.1334445959192597 [Eh]
	 SCS Opposite-Spin Energy  =      -1.6541668635887932 [Eh]
	 SCS Correlation Energy    =      -1.7876114595080530 [Eh]
	 SCS Total Energy          =    -387.8493168155700346 [Eh]
	-----------------------------------------------------------

  Dipole Moment: [D]
     X:    -1.2031      Y:     0.6611      Z:     0.5894     Total:     1.4940

*** Psi4 exiting successfully. Buy a developer a beer!
