                               Psi4 1.3.2 release

  ==> Input File <==

--------------------------------------------------------------------------
#psi4
#
memory 32 gb

molecule  {
0 1
  O       -2.7848290    -0.9154220    -0.7447340
  C       -2.7698910    -0.0438090     0.3861860
  C       -1.3446020     0.1937550     0.7721520
  C        3.5873700    -0.2293000     0.2222030
  C       -3.4755630     1.2700040     0.0649850
  C       -0.2731003    -0.2892301     0.1200346
  C        2.1660230    -0.5131760    -0.1475910
  C        1.0922740    -0.0266840     0.5021560
  C        4.3244450     0.5343730    -0.8803810
  H       -3.2865450    -0.5271910     1.2335890
  H       -1.1876078     0.8251921     1.6477499
  H        3.6131550     0.3461180     1.1547940
  H        4.1142490    -1.1721620     0.4188690
  H       -2.9813020     1.7413150    -0.7875330
  H       -4.5277090     1.0956620    -0.1864690
  H       -3.4435650     1.9541860     0.9176610
  H       -0.4470010    -0.9272420    -0.7564190
  H        2.0063450    -1.1440610    -1.0244550
  H        1.2471430     0.6066220     1.3780870
  H        4.3142870    -0.0291260    -1.8177910
  H        5.3679410     0.7151030    -0.6066950
  H        3.8442820     1.4990380    -1.0633910
  H       -3.7175750    -1.0591810    -0.9792530
units angstrom
no_reorient  #important for SAPT in psi4, default
symmetry c1  #important for SAPT in psi4, default
}

set PROPERTIES_ORIGIN ["COM"]
properties('MP2/aug-cc-pvtz', properties = ['dipole'])
--------------------------------------------------------------------------

    Molecular point group: c1
  Charge       = 0
  Multiplicity = 1
  Basis Set: AUG-CC-PVTZ
    Blend: AUG-CC-PVTZ
  Basis Set: (AUG-CC-PVTZ AUX)
    Blend: AUG-CC-PVTZ-JKFIT

    Orbital Energies [Eh]
    ---------------------

    Doubly Occupied:

       1A    -20.558845     2A    -11.286961     3A    -11.226279
       4A    -11.223506     5A    -11.223384     6A    -11.222655
       7A    -11.221633     8A    -11.220714     9A    -11.213009
      10A     -1.360853    11A     -1.098703    12A     -1.061318
      13A     -1.016793    14A     -0.962562    15A     -0.877287
      16A     -0.828837    17A     -0.753365    18A     -0.746576
      19A     -0.695366    20A     -0.637066    21A     -0.628131
      22A     -0.617469    23A     -0.590479    24A     -0.583419
      25A     -0.546252    26A     -0.543185    27A     -0.527442
      28A     -0.518865    29A     -0.498940    30A     -0.492068
      31A     -0.479305    32A     -0.469070    33A     -0.453093
      34A     -0.419385    35A     -0.296896

  @DF-RHF Final Energy:  -386.06216894078790

   => Energetics <=

    Nuclear Repulsion Energy =            418.3210544150781516
    One-Electron Energy =               -1352.5670310265600165
    Two-Electron Energy =                 548.1838076706940228
    Total Energy =                       -386.0621689407878421
  Basis Set: (AUG-CC-PVTZ AUX)
    Blend: AUG-CC-PVTZ-RI
    Molecular point group: c1

    Geometry (in Angstrom), charge = 0, multiplicity = 1:

       Center              X                  Y                   Z               Mass
    ------------   -----------------  -----------------  -----------------  -----------------
         O           -2.785581805492    -0.915930140077    -0.745447969656    15.994914619570
         C           -2.770643805492    -0.044317140077     0.385472030344    12.000000000000
         C           -1.345354805492     0.193246859923     0.771438030344    12.000000000000
         C            3.586617194508    -0.229808140077     0.221489030344    12.000000000000
         C           -3.476315805492     1.269495859923     0.064271030344    12.000000000000
         C           -0.273853105492    -0.289738240077     0.119320630344    12.000000000000
         C            2.165270194508    -0.513684140077    -0.148304969656    12.000000000000
         C            1.091521194508    -0.027192140077     0.501442030344    12.000000000000
         C            4.323692194508     0.533864859923    -0.881094969656    12.000000000000
         H           -3.287297805492    -0.527699140077     1.232875030344     1.007825032230
         H           -1.188360605492     0.824683959923     1.647035930344     1.007825032230
         H            3.612402194508     0.345609859923     1.154080030344     1.007825032230
         H            4.113496194508    -1.172670140077     0.418155030344     1.007825032230
         H           -2.982054805492     1.740806859923    -0.788246969656     1.007825032230
         H           -4.528461805492     1.095153859923    -0.187182969656     1.007825032230
         H           -3.444317805492     1.953677859923     0.916947030344     1.007825032230
         H           -0.447753805492    -0.927750140077    -0.757132969656     1.007825032230
         H            2.005592194508    -1.144569140077    -1.025168969656     1.007825032230
         H            1.246390194508     0.606113859923     1.377373030344     1.007825032230
         H            4.313534194508    -0.029634140077    -1.818504969656     1.007825032230
         H            5.367188194508     0.714594859923    -0.607408969656     1.007825032230
         H            3.843529194508     1.498529859923    -1.064104969656     1.007825032230
         H           -3.718327805492    -1.059689140077    -0.979966969656     1.007825032230

  Basis Set: AUG-CC-PVTZ
    Blend: AUG-CC-PVTZ
  Basis Set: (AUG-CC-PVTZ AUX)
    Blend: AUG-CC-PVTZ-JKFIT
	 Reference Energy          =    -386.0621689407878989 [Eh]
	 Singles Energy            =      -0.0000000000000000 [Eh]
	 Same-Spin Energy          =      -0.4005016347414900 [Eh]
	 Opposite-Spin Energy      =      -1.3784568448442163 [Eh]
	 Correlation Energy        =      -1.7789584795857063 [Eh]
	 Total Energy              =    -387.8411274203735957 [Eh]

	 ================> DF-SCS-MP2 Energies <==================
	-----------------------------------------------------------
	 SCS Same-Spin Scale       =       0.3333333333333333 [-]
	 SCS Opposite-Spin Scale   =       1.2000000000000000 [-]
	 SCS Same-Spin Energy      =      -0.1335005449138300 [Eh]
	 SCS Opposite-Spin Energy  =      -1.6541482138130594 [Eh]
	 SCS Correlation Energy    =      -1.7876487587268894 [Eh]
	 SCS Total Energy          =    -387.8498176995148015 [Eh]
	-----------------------------------------------------------

  Dipole Moment: [D]
     X:    -1.1535      Y:     0.6425      Z:     0.5753     Total:     1.4402

*** Psi4 exiting successfully. Buy a developer a beer!
