                               Psi4 1.4a3.dev225

  ==> Input File <==

--------------------------------------------------------------------------
#psi4
#
memory 32 gb

molecule  {
0 1
  O       -2.7624640     1.3159430     0.2248240
  C       -2.8217824    -0.0355237    -0.2959615
  C       -1.4198970    -0.4865040    -0.5315690
  C        3.5469730    -0.0618850    -0.4287090
  C       -3.5485140    -0.9406360     0.6857820
  C       -0.3124200     0.2274490    -0.2577540
  C        2.1505970     0.4383770    -0.2221580
  C        1.0342680    -0.2689350    -0.4861660
  C        4.3265940    -0.1505530     0.8872490
  H       -3.3622360    -0.0200820    -1.2509840
  H       -1.3293920    -1.4912640    -0.9473420
  H        3.5136740    -1.0471260    -0.9088000
  H        4.0812660     0.6062640    -1.1173180
  H       -3.0279280    -0.9272120     1.6463760
  H       -4.5820380    -0.6089360     0.8383050
  H       -3.5770120    -1.9680220     0.3103630
  H       -0.4219900     1.2292040     0.1523950
  H        2.0485920     1.4434520     0.1930580
  H        1.1311650    -1.2755230    -0.8987060
  H        4.3778580     0.8269450     1.3761990
  H        5.3504770    -0.4972710     0.7173650
  H        3.8373540    -0.8453320     1.5752720
  H       -3.6799020     1.6047450     0.3678300
units angstrom
no_reorient  #important for SAPT in psi4, default
symmetry c1  #important for SAPT in psi4, default
}

set PROPERTIES_ORIGIN ["COM"]
properties('MP2/aug-cc-pvtz', properties = ['dipole'])
--------------------------------------------------------------------------

    Molecular point group: c1
  Charge       = 0
  Multiplicity = 1
  Basis Set: AUG-CC-PVTZ
    Blend: AUG-CC-PVTZ
  Basis Set: (AUG-CC-PVTZ AUX)
    Blend: AUG-CC-PVTZ-JKFIT

    Orbital Energies [Eh]
    ---------------------

    Doubly Occupied:

       1A    -20.556225     2A    -11.286896     3A    -11.226907
       4A    -11.224796     5A    -11.224035     6A    -11.223844
       7A    -11.222814     8A    -11.221419     9A    -11.213399
      10A     -1.352073    11A     -1.097585    12A     -1.061845
      13A     -1.017073    14A     -0.962778    15A     -0.877126
      16A     -0.828743    17A     -0.752644    18A     -0.746946
      19A     -0.692848    20A     -0.635472    21A     -0.627657
      22A     -0.614805    23A     -0.589829    24A     -0.582331
      25A     -0.545964    26A     -0.544559    27A     -0.525660
      28A     -0.518710    29A     -0.500158    30A     -0.492527
      31A     -0.479674    32A     -0.469150    33A     -0.453552
      34A     -0.418762    35A     -0.297880

  @DF-RHF Final Energy:  -386.06159735909796

   => Energetics <=

    Nuclear Repulsion Energy =            417.6233018280222495
    One-Electron Energy =               -1351.1964253338076105
    Two-Electron Energy =                 547.5115261466874017
    Total Energy =                       -386.0615973590979593
  Basis Set: (AUG-CC-PVTZ AUX)
    Blend: AUG-CC-PVTZ-RI
    Molecular point group: c1

    Geometry (in Angstrom), charge = 0, multiplicity = 1:

       Center              X                  Y                   Z               Mass
    ------------   -----------------  -----------------  -----------------  -----------------
         O           -2.728194409680     1.294401590300     0.241677579264    15.994914619570
         C           -2.787512809680    -0.057065109700    -0.279107920736    12.000000000000
         C           -1.385627409680    -0.508045409700    -0.514715420736    12.000000000000
         C            3.581242590320    -0.083426409700    -0.411855420736    12.000000000000
         C           -3.514244409680    -0.962177409700     0.702635579264    12.000000000000
         C           -0.278150409680     0.205907590300    -0.240900420736    12.000000000000
         C            2.184866590320     0.416835590300    -0.205304420736    12.000000000000
         C            1.068537590320    -0.290476409700    -0.469312420736    12.000000000000
         C            4.360863590320    -0.172094409700     0.904102579264    12.000000000000
         H           -3.327966409680    -0.041623409700    -1.234130420736     1.007825032230
         H           -1.295122409680    -1.512805409700    -0.930488420736     1.007825032230
         H            3.547943590320    -1.068667409700    -0.891946420736     1.007825032230
         H            4.115535590320     0.584722590300    -1.100464420736     1.007825032230
         H           -2.993658409680    -0.948753409700     1.663229579264     1.007825032230
         H           -4.547768409680    -0.630477409700     0.855158579264     1.007825032230
         H           -3.542742409680    -1.989563409700     0.327216579264     1.007825032230
         H           -0.387720409680     1.207662590300     0.169248579264     1.007825032230
         H            2.082861590320     1.421910590300     0.209911579264     1.007825032230
         H            1.165434590320    -1.297064409700    -0.881852420736     1.007825032230
         H            4.412127590320     0.805403590300     1.393052579264     1.007825032230
         H            5.384746590320    -0.518812409700     0.734218579264     1.007825032230
         H            3.871623590320    -0.866873409700     1.592125579264     1.007825032230
         H           -3.645632409680     1.583203590300     0.384683579264     1.007825032230

  Basis Set: AUG-CC-PVTZ
    Blend: AUG-CC-PVTZ
  Basis Set: (AUG-CC-PVTZ AUX)
    Blend: AUG-CC-PVTZ-JKFIT
	 Reference Energy          =    -386.0615973590979593 [Eh]
	 Singles Energy            =      -0.0000000000000000 [Eh]
	 Same-Spin Energy          =      -0.4003476761209195 [Eh]
	 Opposite-Spin Energy      =      -1.3787815089003832 [Eh]
	 Correlation Energy        =      -1.7791291850213027 [Eh]
	 Total Energy              =    -387.8407265441192635 [Eh]

	 ================> DF-SCS-MP2 Energies <==================
	-----------------------------------------------------------
	 SCS Same-Spin Scale       =       0.3333333333333333 [-]
	 SCS Opposite-Spin Scale   =       1.2000000000000000 [-]
	 SCS Same-Spin Energy      =      -0.1334492253736398 [Eh]
	 SCS Opposite-Spin Energy  =      -1.6545378106804598 [Eh]
	 SCS Correlation Energy    =      -1.7879870360540997 [Eh]
	 SCS Total Energy          =    -387.8495843951520783 [Eh]
	-----------------------------------------------------------

  Dipole Moment: [D]
     X:    -1.1792      Y:    -0.8571      Z:    -0.1593     Total:     1.4665

*** Psi4 exiting successfully. Buy a developer a beer!
