                               Psi4 1.3.2 release

  ==> Input File <==

--------------------------------------------------------------------------
#psi4
#
memory 32 gb

molecule  {
0 1
  O       -2.7848290    -0.9154220    -0.7447340
  C       -2.7698910    -0.0438090     0.3861860
  C       -1.3545786     0.1722840     0.8186786
  C        3.5873700    -0.2293000     0.2222030
  C       -3.4755630     1.2700040     0.0649850
  C       -0.2802220    -0.2946410     0.1124460
  C        2.1660230    -0.5131760    -0.1475910
  C        1.0922740    -0.0266840     0.5021560
  C        4.3244450     0.5343730    -0.8803810
  H       -3.2535484    -0.5260907     1.2534583
  H       -1.1970340     0.8260370     1.6487790
  H        3.6131550     0.3461180     1.1547940
  H        4.1142490    -1.1721620     0.4188690
  H       -2.9813020     1.7413150    -0.7875330
  H       -4.5277090     1.0956620    -0.1864690
  H       -3.4435650     1.9541860     0.9176610
  H       -0.4470010    -0.9272420    -0.7564190
  H        2.0063450    -1.1440610    -1.0244550
  H        1.2471430     0.6066220     1.3780870
  H        4.3142870    -0.0291260    -1.8177910
  H        5.3679410     0.7151030    -0.6066950
  H        3.8442820     1.4990380    -1.0633910
  H       -3.7175750    -1.0591810    -0.9792530
units angstrom
no_reorient  #important for SAPT in psi4, default
symmetry c1  #important for SAPT in psi4, default
}

set PROPERTIES_ORIGIN ["COM"]
properties('MP2/aug-cc-pvtz', properties = ['dipole'])
--------------------------------------------------------------------------

    Molecular point group: c1
  Charge       = 0
  Multiplicity = 1
  Basis Set: AUG-CC-PVTZ
    Blend: AUG-CC-PVTZ
  Basis Set: (AUG-CC-PVTZ AUX)
    Blend: AUG-CC-PVTZ-JKFIT

    Orbital Energies [Eh]
    ---------------------

    Doubly Occupied:

       1A    -20.559827     2A    -11.286361     3A    -11.226261
       4A    -11.225666     5A    -11.223538     6A    -11.223146
       7A    -11.222838     8A    -11.221477     9A    -11.212789
      10A     -1.361015    11A     -1.096365    12A     -1.060402
      13A     -1.015526    14A     -0.960767    15A     -0.877836
      16A     -0.827689    17A     -0.753103    18A     -0.750561
      19A     -0.693823    20A     -0.637771    21A     -0.624807
      22A     -0.617506    23A     -0.591142    24A     -0.582736
      25A     -0.548336    26A     -0.543961    27A     -0.528604
      28A     -0.519075    29A     -0.503371    30A     -0.490541
      31A     -0.478833    32A     -0.467779    33A     -0.453334
      34A     -0.415883    35A     -0.293997

  @DF-RHF Final Energy:  -386.05960192264070

   => Energetics <=

    Nuclear Repulsion Energy =            417.8701626490327499
    One-Electron Energy =               -1351.6661972402482661
    Two-Electron Energy =                 547.7364326685748210
    Total Energy =                       -386.0596019226406952
  Basis Set: (AUG-CC-PVTZ AUX)
    Blend: AUG-CC-PVTZ-RI
    Molecular point group: c1

    Geometry (in Angstrom), charge = 0, multiplicity = 1:

       Center              X                  Y                   Z               Mass
    ------------   -----------------  -----------------  -----------------  -----------------
         O           -2.784143119235    -0.913387625991    -0.749320298287    15.994914619570
         C           -2.769205119235    -0.041774625991     0.381599701713    12.000000000000
         C           -1.353892719235     0.174318374009     0.814092301713    12.000000000000
         C            3.588055880765    -0.227265625991     0.217616701713    12.000000000000
         C           -3.474877119235     1.272038374009     0.060398701713    12.000000000000
         C           -0.279536119235    -0.292606625991     0.107859701713    12.000000000000
         C            2.166708880765    -0.511141625991    -0.152177298287    12.000000000000
         C            1.092959880765    -0.024649625991     0.497569701713    12.000000000000
         C            4.325130880765     0.536407374009    -0.884967298287    12.000000000000
         H           -3.252862519235    -0.524056325991     1.248872001713     1.007825032230
         H           -1.196348119235     0.828071374009     1.644192701713     1.007825032230
         H            3.613840880765     0.348152374009     1.150207701713     1.007825032230
         H            4.114934880765    -1.170127625991     0.414282701713     1.007825032230
         H           -2.980616119235     1.743349374009    -0.792119298287     1.007825032230
         H           -4.527023119235     1.097696374009    -0.191055298287     1.007825032230
         H           -3.442879119235     1.956220374009     0.913074701713     1.007825032230
         H           -0.446315119235    -0.925207625991    -0.761005298287     1.007825032230
         H            2.007030880765    -1.142026625991    -1.029041298287     1.007825032230
         H            1.247828880765     0.608656374009     1.373500701713     1.007825032230
         H            4.314972880765    -0.027091625991    -1.822377298287     1.007825032230
         H            5.368626880765     0.717137374009    -0.611281298287     1.007825032230
         H            3.844967880765     1.501072374009    -1.067977298287     1.007825032230
         H           -3.716889119235    -1.057146625991    -0.983839298287     1.007825032230

  Basis Set: AUG-CC-PVTZ
    Blend: AUG-CC-PVTZ
  Basis Set: (AUG-CC-PVTZ AUX)
    Blend: AUG-CC-PVTZ-JKFIT
	 Reference Energy          =    -386.0596019226406952 [Eh]
	 Singles Energy            =      -0.0000000000000000 [Eh]
	 Same-Spin Energy          =      -0.4006569328806079 [Eh]
	 Opposite-Spin Energy      =      -1.3789331585952489 [Eh]
	 Correlation Energy        =      -1.7795900914758569 [Eh]
	 Total Energy              =    -387.8391920141165770 [Eh]

	 ================> DF-SCS-MP2 Energies <==================
	-----------------------------------------------------------
	 SCS Same-Spin Scale       =       0.3333333333333333 [-]
	 SCS Opposite-Spin Scale   =       1.2000000000000000 [-]
	 SCS Same-Spin Energy      =      -0.1335523109602026 [Eh]
	 SCS Opposite-Spin Energy  =      -1.6547197903142987 [Eh]
	 SCS Correlation Energy    =      -1.7882721012745013 [Eh]
	 SCS Total Energy          =    -387.8478740239152103 [Eh]
	-----------------------------------------------------------

  Dipole Moment: [D]
     X:    -1.1710      Y:     0.6865      Z:     0.5555     Total:     1.4667

*** Psi4 exiting successfully. Buy a developer a beer!
