                               Psi4 1.4a3.dev225

  ==> Input File <==

--------------------------------------------------------------------------
#psi4
#
memory 32 gb

molecule  {
0 1
  O       -2.7624640     1.3159430     0.2248240
  C       -2.8209640    -0.0168770    -0.2887760
  C       -1.4198970    -0.4865040    -0.5315690
  C        3.5469730    -0.0618850    -0.4287090
  C       -3.5485140    -0.9406360     0.6857820
  C       -0.3124200     0.2274490    -0.2577540
  C        2.1039764     0.4550792    -0.2152619
  C        1.0342680    -0.2689350    -0.4861660
  C        4.3265940    -0.1505530     0.8872490
  H       -3.3622360    -0.0200820    -1.2509840
  H       -1.3293920    -1.4912640    -0.9473420
  H        3.5136740    -1.0471260    -0.9088000
  H        4.0812660     0.6062640    -1.1173180
  H       -3.0279280    -0.9272120     1.6463760
  H       -4.5820380    -0.6089360     0.8383050
  H       -3.5770120    -1.9680220     0.3103630
  H       -0.4219900     1.2292040     0.1523950
  H        2.0485920     1.4434520     0.1930580
  H        1.1311650    -1.2755230    -0.8987060
  H        4.3778580     0.8269450     1.3761990
  H        5.3504770    -0.4972710     0.7173650
  H        3.8373540    -0.8453320     1.5752720
  H       -3.6799020     1.6047450     0.3678300
units angstrom
no_reorient  #important for SAPT in psi4, default
symmetry c1  #important for SAPT in psi4, default
}

set PROPERTIES_ORIGIN ["COM"]
properties('MP2/aug-cc-pvtz', properties = ['dipole'])
--------------------------------------------------------------------------

    Molecular point group: c1
  Charge       = 0
  Multiplicity = 1
  Basis Set: AUG-CC-PVTZ
    Blend: AUG-CC-PVTZ
  Basis Set: (AUG-CC-PVTZ AUX)
    Blend: AUG-CC-PVTZ-JKFIT

    Orbital Energies [Eh]
    ---------------------

    Doubly Occupied:

       1A    -20.558635     2A    -11.286673     3A    -11.225225
       4A    -11.223298     5A    -11.223029     6A    -11.221663
       7A    -11.220757     8A    -11.220299     9A    -11.212444
      10A     -1.359934    11A     -1.098204    12A     -1.057226
      13A     -1.014978    14A     -0.964552    15A     -0.873124
      16A     -0.826820    17A     -0.755158    18A     -0.747913
      19A     -0.695277    20A     -0.637582    21A     -0.625018
      22A     -0.616281    23A     -0.588388    24A     -0.582865
      25A     -0.547747    26A     -0.544802    27A     -0.530116
      28A     -0.515262    29A     -0.500407    30A     -0.490933
      31A     -0.480809    32A     -0.458954    33A     -0.452697
      34A     -0.421534    35A     -0.301337

  @DF-RHF Final Energy:  -386.06135733348128

   => Energetics <=

    Nuclear Repulsion Energy =            417.8317432178123454
    One-Electron Energy =               -1351.6263213809481840
    Two-Electron Energy =                 547.7332208296545559
    Total Energy =                       -386.0613573334812827
  Basis Set: (AUG-CC-PVTZ AUX)
    Blend: AUG-CC-PVTZ-RI
    Molecular point group: c1

    Geometry (in Angstrom), charge = 0, multiplicity = 1:

       Center              X                  Y                   Z               Mass
    ------------   -----------------  -----------------  -----------------  -----------------
         O           -2.723835908974     1.291037817258     0.240337585475    15.994914619570
         C           -2.782335908974    -0.041782182742    -0.273262414525    12.000000000000
         C           -1.381268908974    -0.511409182742    -0.516055414525    12.000000000000
         C            3.585601091026    -0.086790182742    -0.413195414525    12.000000000000
         C           -3.509885908974    -0.965541182742     0.701295585475    12.000000000000
         C           -0.273791908974     0.202543817258    -0.242240414525    12.000000000000
         C            2.142604491026     0.430174017258    -0.199748314525    12.000000000000
         C            1.072896091026    -0.293840182742    -0.470652414525    12.000000000000
         C            4.365222091026    -0.175458182742     0.902762585475    12.000000000000
         H           -3.323607908974    -0.044987182742    -1.235470414525     1.007825032230
         H           -1.290763908974    -1.516169182742    -0.931828414525     1.007825032230
         H            3.552302091026    -1.072031182742    -0.893286414525     1.007825032230
         H            4.119894091026     0.581358817258    -1.101804414525     1.007825032230
         H           -2.989299908974    -0.952117182742     1.661889585475     1.007825032230
         H           -4.543409908974    -0.633841182742     0.853818585475     1.007825032230
         H           -3.538383908974    -1.992927182742     0.325876585475     1.007825032230
         H           -0.383361908974     1.204298817258     0.167908585475     1.007825032230
         H            2.087220091026     1.418546817258     0.208571585475     1.007825032230
         H            1.169793091026    -1.300428182742    -0.883192414525     1.007825032230
         H            4.416486091026     0.802039817258     1.391712585475     1.007825032230
         H            5.389105091026    -0.522176182742     0.732878585475     1.007825032230
         H            3.875982091026    -0.870237182742     1.590785585475     1.007825032230
         H           -3.641273908974     1.579839817258     0.383343585475     1.007825032230

  Basis Set: AUG-CC-PVTZ
    Blend: AUG-CC-PVTZ
  Basis Set: (AUG-CC-PVTZ AUX)
    Blend: AUG-CC-PVTZ-JKFIT
	 Reference Energy          =    -386.0613573334812827 [Eh]
	 Singles Energy            =      -0.0000000000000000 [Eh]
	 Same-Spin Energy          =      -0.3995660634527869 [Eh]
	 Opposite-Spin Energy      =      -1.3774505433327948 [Eh]
	 Correlation Energy        =      -1.7770166067855817 [Eh]
	 Total Energy              =    -387.8383739402668766 [Eh]

	 ================> DF-SCS-MP2 Energies <==================
	-----------------------------------------------------------
	 SCS Same-Spin Scale       =       0.3333333333333333 [-]
	 SCS Opposite-Spin Scale   =       1.2000000000000000 [-]
	 SCS Same-Spin Energy      =      -0.1331886878175956 [Eh]
	 SCS Opposite-Spin Energy  =      -1.6529406519993537 [Eh]
	 SCS Correlation Energy    =      -1.7861293398169493 [Eh]
	 SCS Total Energy          =    -387.8474866732982491 [Eh]
	-----------------------------------------------------------

  Dipole Moment: [D]
     X:    -1.2255      Y:    -0.7844      Z:    -0.1418     Total:     1.4620

*** Psi4 exiting successfully. Buy a developer a beer!
