                               Psi4 1.3.2 release

  ==> Input File <==

--------------------------------------------------------------------------
#psi4
#
memory 32 gb

molecule  {
0 1
  O       -2.7848290    -0.9154220    -0.7447340
  C       -2.7698910    -0.0438090     0.3861860
  C       -1.3446020     0.1937550     0.7721520
  C        3.5873700    -0.2293000     0.2222030
  C       -3.4755630     1.2700040     0.0649850
  C       -0.2660603    -0.2837824     0.1276729
  C        2.1660230    -0.5131760    -0.1475910
  C        1.0922740    -0.0266840     0.5021560
  C        4.3244450     0.5343730    -0.8803810
  H       -3.2865450    -0.5271910     1.2335890
  H       -1.1781936     0.8242991     1.6466542
  H        3.6131550     0.3461180     1.1547940
  H        4.1142490    -1.1721620     0.4188690
  H       -2.9813020     1.7413150    -0.7875330
  H       -4.5277090     1.0956620    -0.1864690
  H       -3.4435650     1.9541860     0.9176610
  H       -0.4470010    -0.9272420    -0.7564190
  H        2.0063450    -1.1440610    -1.0244550
  H        1.2471430     0.6066220     1.3780870
  H        4.3142870    -0.0291260    -1.8177910
  H        5.3679410     0.7151030    -0.6066950
  H        3.8442820     1.4990380    -1.0633910
  H       -3.7175750    -1.0591810    -0.9792530
units angstrom
no_reorient  #important for SAPT in psi4, default
symmetry c1  #important for SAPT in psi4, default
}

set PROPERTIES_ORIGIN ["COM"]
properties('MP2/aug-cc-pvtz', properties = ['dipole'])
--------------------------------------------------------------------------

    Molecular point group: c1
  Charge       = 0
  Multiplicity = 1
  Basis Set: AUG-CC-PVTZ
    Blend: AUG-CC-PVTZ
  Basis Set: (AUG-CC-PVTZ AUX)
    Blend: AUG-CC-PVTZ-JKFIT

    Orbital Energies [Eh]
    ---------------------

    Doubly Occupied:

       1A    -20.558960     2A    -11.287461     3A    -11.226673
       4A    -11.223579     5A    -11.223374     6A    -11.222261
       7A    -11.221484     8A    -11.220801     9A    -11.213146
      10A     -1.360940    11A     -1.099622    12A     -1.061330
      13A     -1.017470    14A     -0.962664    15A     -0.877932
      16A     -0.829060    17A     -0.754326    18A     -0.745136
      19A     -0.695532    20A     -0.636861    21A     -0.628806
      22A     -0.617604    23A     -0.590653    24A     -0.583878
      25A     -0.546116    26A     -0.542887    27A     -0.527565
      28A     -0.518832    29A     -0.497439    30A     -0.491179
      31A     -0.479496    32A     -0.470019    33A     -0.453334
      34A     -0.420517    35A     -0.296326

  @DF-RHF Final Energy:  -386.06136960862295

   => Energetics <=

    Nuclear Repulsion Energy =            418.3725516256654942
    One-Electron Energy =               -1352.6613148902026751
    Two-Electron Energy =                 548.2273936559142840
    Total Energy =                       -386.0613696086229538
  Basis Set: (AUG-CC-PVTZ AUX)
    Blend: AUG-CC-PVTZ-RI
    Molecular point group: c1

    Geometry (in Angstrom), charge = 0, multiplicity = 1:

       Center              X                  Y                   Z               Mass
    ------------   -----------------  -----------------  -----------------  -----------------
         O           -2.786326964408    -0.916441402008    -0.746166067354    15.994914619570
         C           -2.771388964408    -0.044828402008     0.384753932646    12.000000000000
         C           -1.346099964408     0.192735597992     0.770719932646    12.000000000000
         C            3.585872035592    -0.230319402008     0.220770932646    12.000000000000
         C           -3.477060964408     1.268984597992     0.063552932646    12.000000000000
         C           -0.267558264408    -0.284801802008     0.126240832646    12.000000000000
         C            2.164525035592    -0.514195402008    -0.149023067354    12.000000000000
         C            1.090776035592    -0.027703402008     0.500723932646    12.000000000000
         C            4.322947035592     0.533353597992    -0.881813067354    12.000000000000
         H           -3.288042964408    -0.528210402008     1.232156932646     1.007825032230
         H           -1.179691564408     0.823279697992     1.645222132646     1.007825032230
         H            3.611657035592     0.345098597992     1.153361932646     1.007825032230
         H            4.112751035592    -1.173181402008     0.417436932646     1.007825032230
         H           -2.982799964408     1.740295597992    -0.788965067354     1.007825032230
         H           -4.529206964408     1.094642597992    -0.187901067354     1.007825032230
         H           -3.445062964408     1.953166597992     0.916228932646     1.007825032230
         H           -0.448498964408    -0.928261402008    -0.757851067354     1.007825032230
         H            2.004847035592    -1.145080402008    -1.025887067354     1.007825032230
         H            1.245645035592     0.605602597992     1.376654932646     1.007825032230
         H            4.312789035592    -0.030145402008    -1.819223067354     1.007825032230
         H            5.366443035592     0.714083597992    -0.608127067354     1.007825032230
         H            3.842784035592     1.498018597992    -1.064823067354     1.007825032230
         H           -3.719072964408    -1.060200402008    -0.980685067354     1.007825032230

  Basis Set: AUG-CC-PVTZ
    Blend: AUG-CC-PVTZ
  Basis Set: (AUG-CC-PVTZ AUX)
    Blend: AUG-CC-PVTZ-JKFIT
	 Reference Energy          =    -386.0613696086229538 [Eh]
	 Singles Energy            =      -0.0000000000000000 [Eh]
	 Same-Spin Energy          =      -0.4006668219557137 [Eh]
	 Opposite-Spin Energy      =      -1.3786326189700380 [Eh]
	 Correlation Energy        =      -1.7792994409257517 [Eh]
	 Total Energy              =    -387.8406690495486941 [Eh]

	 ================> DF-SCS-MP2 Energies <==================
	-----------------------------------------------------------
	 SCS Same-Spin Scale       =       0.3333333333333333 [-]
	 SCS Opposite-Spin Scale   =       1.2000000000000000 [-]
	 SCS Same-Spin Energy      =      -0.1335556073185712 [Eh]
	 SCS Opposite-Spin Energy  =      -1.6543591427640456 [Eh]
	 SCS Correlation Energy    =      -1.7879147500826169 [Eh]
	 SCS Total Energy          =    -387.8492843587055745 [Eh]
	-----------------------------------------------------------

  Dipole Moment: [D]
     X:    -1.1471      Y:     0.6432      Z:     0.5732     Total:     1.4346

*** Psi4 exiting successfully. Buy a developer a beer!
