                               Psi4 1.4a3.dev225

  ==> Input File <==

--------------------------------------------------------------------------
#psi4
#
memory 32 gb

molecule  {
0 1
  O       -2.7624640     1.3159430     0.2248240
  C       -2.8209640    -0.0168770    -0.2887760
  C       -1.4198970    -0.4865040    -0.5315690
  C        3.5469730    -0.0618850    -0.4287090
  C       -3.5485140    -0.9406360     0.6857820
  C       -0.3124200     0.2274490    -0.2577540
  C        2.1505970     0.4383770    -0.2221580
  C        1.0342680    -0.2689350    -0.4861660
  C        4.3265940    -0.1505530     0.8872490
  H       -3.3622360    -0.0200820    -1.2509840
  H       -1.3293920    -1.4912640    -0.9473420
  H        3.5136740    -1.0471260    -0.9088000
  H        4.0812660     0.6062640    -1.1173180
  H       -3.0279280    -0.9272120     1.6463760
  H       -4.5820380    -0.6089360     0.8383050
  H       -3.5770120    -1.9680220     0.3103630
  H       -0.4219900     1.2292040     0.1523950
  H        2.0485920     1.4434520     0.1930580
  H        1.1311650    -1.2755230    -0.8987060
  H        4.3778580     0.8269450     1.3761990
  H        5.3504770    -0.4972710     0.7173650
  H        3.8373540    -0.8453320     1.5752720
  H       -3.7270762     1.6195951     0.3751833
units angstrom
no_reorient  #important for SAPT in psi4, default
symmetry c1  #important for SAPT in psi4, default
}

set PROPERTIES_ORIGIN ["COM"]
properties('MP2/aug-cc-pvtz', properties = ['dipole'])
--------------------------------------------------------------------------

    Molecular point group: c1
  Charge       = 0
  Multiplicity = 1
  Basis Set: AUG-CC-PVTZ
    Blend: AUG-CC-PVTZ
  Basis Set: (AUG-CC-PVTZ AUX)
    Blend: AUG-CC-PVTZ-JKFIT

    Orbital Energies [Eh]
    ---------------------

    Doubly Occupied:

       1A    -20.563185     2A    -11.286557     3A    -11.226438
       4A    -11.224250     5A    -11.223723     6A    -11.223536
       7A    -11.222390     8A    -11.220645     9A    -11.213175
      10A     -1.350292    11A     -1.096657    12A     -1.059414
      13A     -1.014779    14A     -0.961940    15A     -0.875512
      16A     -0.827381    17A     -0.752152    18A     -0.745006
      19A     -0.689426    20A     -0.635999    21A     -0.626853
      22A     -0.614164    23A     -0.589632    24A     -0.581860
      25A     -0.545199    26A     -0.542962    27A     -0.526874
      28A     -0.518360    29A     -0.500660    30A     -0.491107
      31A     -0.479116    32A     -0.467400    33A     -0.451736
      34A     -0.417728    35A     -0.297238

  @DF-RHF Final Energy:  -386.05717475622242

   => Energetics <=

    Nuclear Repulsion Energy =            417.4477261399153463
    One-Electron Energy =               -1350.8831104717676226
    Two-Electron Energy =                 547.3782095756298531
    Total Energy =                       -386.0571747562223663
  Basis Set: (AUG-CC-PVTZ AUX)
    Blend: AUG-CC-PVTZ-RI
    Molecular point group: c1

    Geometry (in Angstrom), charge = 0, multiplicity = 1:

       Center              X                  Y                   Z               Mass
    ------------   -----------------  -----------------  -----------------  -----------------
         O           -2.727895272456     1.292508503466     0.240935045368    15.994914619570
         C           -2.786395272456    -0.040311496534    -0.272664954632    12.000000000000
         C           -1.385328272456    -0.509938496534    -0.515457954632    12.000000000000
         C            3.581541727544    -0.085319496534    -0.412597954632    12.000000000000
         C           -3.513945272456    -0.964070496534     0.701893045368    12.000000000000
         C           -0.277851272456     0.204014503466    -0.241642954632    12.000000000000
         C            2.185165727544     0.414942503466    -0.206046954632    12.000000000000
         C            1.068836727544    -0.292369496534    -0.470054954632    12.000000000000
         C            4.361162727544    -0.173987496534     0.903360045368    12.000000000000
         H           -3.327667272456    -0.043516496534    -1.234872954632     1.007825032230
         H           -1.294823272456    -1.514698496534    -0.931230954632     1.007825032230
         H            3.548242727544    -1.070560496534    -0.892688954632     1.007825032230
         H            4.115834727544     0.582829503466    -1.101206954632     1.007825032230
         H           -2.993359272456    -0.950646496534     1.662487045368     1.007825032230
         H           -4.547469272456    -0.632370496534     0.854416045368     1.007825032230
         H           -3.542443272456    -1.991456496534     0.326474045368     1.007825032230
         H           -0.387421272456     1.205769503466     0.168506045368     1.007825032230
         H            2.083160727544     1.420017503466     0.209169045368     1.007825032230
         H            1.165733727544    -1.298957496534    -0.882594954632     1.007825032230
         H            4.412426727544     0.803510503466     1.392310045368     1.007825032230
         H            5.385045727544    -0.520705496534     0.733476045368     1.007825032230
         H            3.871922727544    -0.868766496534     1.591383045368     1.007825032230
         H           -3.692507472456     1.596160603466     0.391294345368     1.007825032230

  Basis Set: AUG-CC-PVTZ
    Blend: AUG-CC-PVTZ
  Basis Set: (AUG-CC-PVTZ AUX)
    Blend: AUG-CC-PVTZ-JKFIT
	 Reference Energy          =    -386.0571747562224232 [Eh]
	 Singles Energy            =      -0.0000000000000000 [Eh]
	 Same-Spin Energy          =      -0.4008590128360716 [Eh]
	 Opposite-Spin Energy      =      -1.3800148507892640 [Eh]
	 Correlation Energy        =      -1.7808738636253356 [Eh]
	 Total Energy              =    -387.8380486198477684 [Eh]

	 ================> DF-SCS-MP2 Energies <==================
	-----------------------------------------------------------
	 SCS Same-Spin Scale       =       0.3333333333333333 [-]
	 SCS Opposite-Spin Scale   =       1.2000000000000000 [-]
	 SCS Same-Spin Energy      =      -0.1336196709453572 [Eh]
	 SCS Opposite-Spin Energy  =      -1.6560178209471168 [Eh]
	 SCS Correlation Energy    =      -1.7896374918924740 [Eh]
	 SCS Total Energy          =    -387.8468122481148725 [Eh]
	-----------------------------------------------------------

  Dipole Moment: [D]
     X:    -1.2270      Y:    -0.7743      Z:    -0.1377     Total:     1.4575

*** Psi4 exiting successfully. Buy a developer a beer!
