                               Psi4 1.3.2 release

  ==> Input File <==

--------------------------------------------------------------------------
#psi4
#
memory 32 gb

molecule  {
0 1
  O       -2.7848290    -0.9154220    -0.7447340
  C       -2.7698910    -0.0438090     0.3861860
  C       -1.3446020     0.1937550     0.7721520
  C        3.5873700    -0.2293000     0.2222030
  C       -3.4755630     1.2700040     0.0649850
  C       -0.2802220    -0.2946410     0.1124460
  C        2.1660230    -0.5131760    -0.1475910
  C        1.0646069    -0.0486289     0.4711667
  C        4.3244450     0.5343730    -0.8803810
  H       -3.2865450    -0.5271910     1.2335890
  H       -1.1970340     0.8260370     1.6487790
  H        3.6131550     0.3461180     1.1547940
  H        4.1142490    -1.1721620     0.4188690
  H       -2.9813020     1.7413150    -0.7875330
  H       -4.5277090     1.0956620    -0.1864690
  H       -3.4435650     1.9541860     0.9176610
  H       -0.4470010    -0.9272420    -0.7564190
  H        1.9687459    -1.1400181    -1.0196885
  H        1.2471430     0.6066220     1.3780870
  H        4.3142870    -0.0291260    -1.8177910
  H        5.3679410     0.7151030    -0.6066950
  H        3.8442820     1.4990380    -1.0633910
  H       -3.7175750    -1.0591810    -0.9792530
units angstrom
no_reorient  #important for SAPT in psi4, default
symmetry c1  #important for SAPT in psi4, default
}

set PROPERTIES_ORIGIN ["COM"]
properties('MP2/aug-cc-pvtz', properties = ['dipole'])
--------------------------------------------------------------------------

    Molecular point group: c1
  Charge       = 0
  Multiplicity = 1
  Basis Set: AUG-CC-PVTZ
    Blend: AUG-CC-PVTZ
  Basis Set: (AUG-CC-PVTZ AUX)
    Blend: AUG-CC-PVTZ-JKFIT

    Orbital Energies [Eh]
    ---------------------

    Doubly Occupied:

       1A    -20.559102     2A    -11.287167     3A    -11.225997
       4A    -11.225184     5A    -11.224479     6A    -11.223418
       7A    -11.221115     8A    -11.220262     9A    -11.213438
      10A     -1.361189    11A     -1.101105    12A     -1.061855
      13A     -1.019014    14A     -0.963007    15A     -0.879559
      16A     -0.829677    17A     -0.754295    18A     -0.744654
      19A     -0.694962    20A     -0.637206    21A     -0.630176
      22A     -0.617361    23A     -0.591204    24A     -0.584218
      25A     -0.546802    26A     -0.543181    27A     -0.523150
      28A     -0.520260    29A     -0.499945    30A     -0.490005
      31A     -0.477785    32A     -0.470241    33A     -0.453853
      34A     -0.422931    35A     -0.295281

  @DF-RHF Final Energy:  -386.05855235649602

   => Energetics <=

    Nuclear Repulsion Energy =            418.6729913690547846
    One-Electron Energy =               -1353.2369367454109579
    Two-Electron Energy =                 548.5053930198600938
    Total Energy =                       -386.0585523564960795
  Basis Set: (AUG-CC-PVTZ AUX)
    Blend: AUG-CC-PVTZ-RI
    Molecular point group: c1

    Geometry (in Angstrom), charge = 0, multiplicity = 1:

       Center              X                  Y                   Z               Mass
    ------------   -----------------  -----------------  -----------------  -----------------
         O           -2.781895505612    -0.913366047262    -0.741823245908    15.994914619570
         C           -2.766957505612    -0.041753047262     0.389096754092    12.000000000000
         C           -1.341668505612     0.195810952738     0.775062754092    12.000000000000
         C            3.590303494388    -0.227244047262     0.225113754092    12.000000000000
         C           -3.472629505612     1.272059952738     0.067895754092    12.000000000000
         C           -0.277288505612    -0.292585047262     0.115356754092    12.000000000000
         C            2.168956494388    -0.511120047262    -0.144680245908    12.000000000000
         C            1.067540394388    -0.046572947262     0.474077454092    12.000000000000
         C            4.327378494388     0.536428952738    -0.877470245908    12.000000000000
         H           -3.283611505612    -0.525135047262     1.236499754092     1.007825032230
         H           -1.194100505612     0.828092952738     1.651689754092     1.007825032230
         H            3.616088494388     0.348173952738     1.157704754092     1.007825032230
         H            4.117182494388    -1.170106047262     0.421779754092     1.007825032230
         H           -2.978368505612     1.743370952738    -0.784622245908     1.007825032230
         H           -4.524775505612     1.097717952738    -0.183558245908     1.007825032230
         H           -3.440631505612     1.956241952738     0.920571754092     1.007825032230
         H           -0.444067505612    -0.925186047262    -0.753508245908     1.007825032230
         H            1.971679394388    -1.137962147262    -1.016777745908     1.007825032230
         H            1.250076494388     0.608677952738     1.380997754092     1.007825032230
         H            4.317220494388    -0.027070047262    -1.814880245908     1.007825032230
         H            5.370874494388     0.717158952738    -0.603784245908     1.007825032230
         H            3.847215494388     1.501093952738    -1.060480245908     1.007825032230
         H           -3.714641505612    -1.057125047262    -0.976342245908     1.007825032230

  Basis Set: AUG-CC-PVTZ
    Blend: AUG-CC-PVTZ
  Basis Set: (AUG-CC-PVTZ AUX)
    Blend: AUG-CC-PVTZ-JKFIT
	 Reference Energy          =    -386.0585523564960226 [Eh]
	 Singles Energy            =      -0.0000000000000000 [Eh]
	 Same-Spin Energy          =      -0.4010691931518218 [Eh]
	 Opposite-Spin Energy      =      -1.3791283680194266 [Eh]
	 Correlation Energy        =      -1.7801975611712484 [Eh]
	 Total Energy              =    -387.8387499176672577 [Eh]

	 ================> DF-SCS-MP2 Energies <==================
	-----------------------------------------------------------
	 SCS Same-Spin Scale       =       0.3333333333333333 [-]
	 SCS Opposite-Spin Scale   =       1.2000000000000000 [-]
	 SCS Same-Spin Energy      =      -0.1336897310506073 [Eh]
	 SCS Opposite-Spin Energy  =      -1.6549540416233119 [Eh]
	 SCS Correlation Energy    =      -1.7886437726739193 [Eh]
	 SCS Total Energy          =    -387.8471961291699586 [Eh]
	-----------------------------------------------------------

  Dipole Moment: [D]
     X:    -1.1833      Y:     0.6415      Z:     0.5624     Total:     1.4588

*** Psi4 exiting successfully. Buy a developer a beer!
