                               Psi4 1.3.2 release

  ==> Input File <==

--------------------------------------------------------------------------
#psi4
#
memory 32 gb

molecule  {
0 1
  O       -2.7848290    -0.9154220    -0.7447340
  C       -2.7698910    -0.0438090     0.3861860
  C       -1.3522387     0.2449430     0.7653157
  C        3.5873700    -0.2293000     0.2222030
  C       -3.4302401     1.2958625     0.0755947
  C       -0.2802220    -0.2946410     0.1124460
  C        2.1660230    -0.5131760    -0.1475910
  C        1.0922740    -0.0266840     0.5021560
  C        4.3244450     0.5343730    -0.8803810
  H       -3.2865450    -0.5271910     1.2335890
  H       -1.1970340     0.8260370     1.6487790
  H        3.6131550     0.3461180     1.1547940
  H        4.1142490    -1.1721620     0.4188690
  H       -2.9813020     1.7413150    -0.7875330
  H       -4.5277090     1.0956620    -0.1864690
  H       -3.4435650     1.9541860     0.9176610
  H       -0.4470010    -0.9272420    -0.7564190
  H        2.0063450    -1.1440610    -1.0244550
  H        1.2471430     0.6066220     1.3780870
  H        4.3142870    -0.0291260    -1.8177910
  H        5.3679410     0.7151030    -0.6066950
  H        3.8442820     1.4990380    -1.0633910
  H       -3.7175750    -1.0591810    -0.9792530
units angstrom
no_reorient  #important for SAPT in psi4, default
symmetry c1  #important for SAPT in psi4, default
}

set PROPERTIES_ORIGIN ["COM"]
properties('MP2/aug-cc-pvtz', properties = ['dipole'])
--------------------------------------------------------------------------

    Molecular point group: c1
  Charge       = 0
  Multiplicity = 1
  Basis Set: AUG-CC-PVTZ
    Blend: AUG-CC-PVTZ
  Basis Set: (AUG-CC-PVTZ AUX)
    Blend: AUG-CC-PVTZ-JKFIT

    Orbital Energies [Eh]
    ---------------------

    Doubly Occupied:

       1A    -20.560556     2A    -11.286820     3A    -11.225922
       4A    -11.225562     5A    -11.223216     6A    -11.223092
       7A    -11.222783     8A    -11.220505     9A    -11.212755
      10A     -1.361457    11A     -1.096684    12A     -1.061676
      13A     -1.016314    14A     -0.959742    15A     -0.875650
      16A     -0.827146    17A     -0.754390    18A     -0.750589
      19A     -0.696223    20A     -0.637428    21A     -0.625082
      22A     -0.620357    23A     -0.589756    24A     -0.582322
      25A     -0.551816    26A     -0.542761    27A     -0.527502
      28A     -0.518773    29A     -0.502895    30A     -0.489897
      31A     -0.478470    32A     -0.464845    33A     -0.455185
      34A     -0.416044    35A     -0.294026

  @DF-RHF Final Energy:  -386.05660528446833

   => Energetics <=

    Nuclear Repulsion Energy =            418.2305065812063845
    One-Electron Energy =               -1352.3777408794608164
    Two-Electron Energy =                 548.0906290137861561
    Total Energy =                       -386.0566052844683327
  Basis Set: (AUG-CC-PVTZ AUX)
    Blend: AUG-CC-PVTZ-RI
    Molecular point group: c1

    Geometry (in Angstrom), charge = 0, multiplicity = 1:

       Center              X                  Y                   Z               Mass
    ------------   -----------------  -----------------  -----------------  -----------------
         O           -2.788414964806    -0.922753678886    -0.745093142829    15.994914619570
         C           -2.773476964806    -0.051140678886     0.385826857171    12.000000000000
         C           -1.355824664806     0.237611321114     0.764956557171    12.000000000000
         C            3.583784035194    -0.236631678886     0.221843857171    12.000000000000
         C           -3.433826064806     1.288530821114     0.075235557171    12.000000000000
         C           -0.283807964806    -0.301972678886     0.112086857171    12.000000000000
         C            2.162437035194    -0.520507678886    -0.147950142829    12.000000000000
         C            1.088688035194    -0.034015678886     0.501796857171    12.000000000000
         C            4.320859035194     0.527041321114    -0.880740142829    12.000000000000
         H           -3.290130964806    -0.534522678886     1.233229857171     1.007825032230
         H           -1.200619964806     0.818705321114     1.648419857171     1.007825032230
         H            3.609569035194     0.338786321114     1.154434857171     1.007825032230
         H            4.110663035194    -1.179493678886     0.418509857171     1.007825032230
         H           -2.984887964806     1.733983321114    -0.787892142829     1.007825032230
         H           -4.531294964806     1.088330321114    -0.186828142829     1.007825032230
         H           -3.447150964806     1.946854321114     0.917301857171     1.007825032230
         H           -0.450586964806    -0.934573678886    -0.756778142829     1.007825032230
         H            2.002759035194    -1.151392678886    -1.024814142829     1.007825032230
         H            1.243557035194     0.599290321114     1.377727857171     1.007825032230
         H            4.310701035194    -0.036457678886    -1.818150142829     1.007825032230
         H            5.364355035194     0.707771321114    -0.607054142829     1.007825032230
         H            3.840696035194     1.491706321114    -1.063750142829     1.007825032230
         H           -3.721160964806    -1.066512678886    -0.979612142829     1.007825032230

  Basis Set: AUG-CC-PVTZ
    Blend: AUG-CC-PVTZ
  Basis Set: (AUG-CC-PVTZ AUX)
    Blend: AUG-CC-PVTZ-JKFIT
	 Reference Energy          =    -386.0566052844683327 [Eh]
	 Singles Energy            =      -0.0000000000000000 [Eh]
	 Same-Spin Energy          =      -0.4008085338690404 [Eh]
	 Opposite-Spin Energy      =      -1.3792790323808881 [Eh]
	 Correlation Energy        =      -1.7800875662499285 [Eh]
	 Total Energy              =    -387.8366928507182365 [Eh]

	 ================> DF-SCS-MP2 Energies <==================
	-----------------------------------------------------------
	 SCS Same-Spin Scale       =       0.3333333333333333 [-]
	 SCS Opposite-Spin Scale   =       1.2000000000000000 [-]
	 SCS Same-Spin Energy      =      -0.1336028446230134 [Eh]
	 SCS Opposite-Spin Energy  =      -1.6551348388570657 [Eh]
	 SCS Correlation Energy    =      -1.7887376834800792 [Eh]
	 SCS Total Energy          =    -387.8453429679483975 [Eh]
	-----------------------------------------------------------

  Dipole Moment: [D]
     X:    -1.1414      Y:     0.6084      Z:     0.6260     Total:     1.4369

*** Psi4 exiting successfully. Buy a developer a beer!
