                               Psi4 1.3.2 release

  ==> Input File <==

--------------------------------------------------------------------------
#psi4
#
memory 32 gb

molecule  {
0 1
  O       -2.7848290    -0.9154220    -0.7447340
  C       -2.7698910    -0.0438090     0.3861860
  C       -1.3446020     0.1937550     0.7721520
  C        3.5873700    -0.2293000     0.2222030
  C       -3.4755630     1.2700040     0.0649850
  C       -0.2802220    -0.2946410     0.1124460
  C        2.1620326    -0.5067726    -0.1369387
  C        1.0922740    -0.0266840     0.5021560
  C        4.3244450     0.5343730    -0.8803810
  H       -3.2865450    -0.5271910     1.2335890
  H       -1.1970340     0.8260370     1.6487790
  H        3.6035967     0.3459406     1.1551187
  H        4.1142490    -1.1721620     0.4188690
  H       -2.9813020     1.7413150    -0.7875330
  H       -4.5277090     1.0956620    -0.1864690
  H       -3.4435650     1.9541860     0.9176610
  H       -0.4470010    -0.9272420    -0.7564190
  H        2.0063450    -1.1440610    -1.0244550
  H        1.2471430     0.6066220     1.3780870
  H        4.3142870    -0.0291260    -1.8177910
  H        5.3679410     0.7151030    -0.6066950
  H        3.8442820     1.4990380    -1.0633910
  H       -3.7175750    -1.0591810    -0.9792530
units angstrom
no_reorient  #important for SAPT in psi4, default
symmetry c1  #important for SAPT in psi4, default
}

set PROPERTIES_ORIGIN ["COM"]
properties('MP2/aug-cc-pvtz', properties = ['dipole'])
--------------------------------------------------------------------------

    Molecular point group: c1
  Charge       = 0
  Multiplicity = 1
  Basis Set: AUG-CC-PVTZ
    Blend: AUG-CC-PVTZ
  Basis Set: (AUG-CC-PVTZ AUX)
    Blend: AUG-CC-PVTZ-JKFIT

    Orbital Energies [Eh]
    ---------------------

    Doubly Occupied:

       1A    -20.558768     2A    -11.286535     3A    -11.225233
       4A    -11.223631     5A    -11.223256     6A    -11.222136
       7A    -11.221455     8A    -11.220690     9A    -11.213116
      10A     -1.360811    11A     -1.098825    12A     -1.061478
      13A     -1.016425    14A     -0.963497    15A     -0.876707
      16A     -0.829380    17A     -0.750389    18A     -0.748102
      19A     -0.695328    20A     -0.637212    21A     -0.627907
      22A     -0.617388    23A     -0.590463    24A     -0.583307
      25A     -0.546400    26A     -0.542947    27A     -0.526853
      28A     -0.519837    29A     -0.501057    30A     -0.492450
      31A     -0.478136    32A     -0.466968    33A     -0.452964
      34A     -0.419313    35A     -0.298987

  @DF-RHF Final Energy:  -386.06272008215677

   => Energetics <=

    Nuclear Repulsion Energy =            418.4025776895040849
    One-Electron Energy =               -1352.7346898102371142
    Two-Electron Energy =                 548.2693920385762567
    Total Energy =                       -386.0627200821567158
  Basis Set: (AUG-CC-PVTZ AUX)
    Blend: AUG-CC-PVTZ-RI
    Molecular point group: c1

    Geometry (in Angstrom), charge = 0, multiplicity = 1:

       Center              X                  Y                   Z               Mass
    ------------   -----------------  -----------------  -----------------  -----------------
         O           -2.784372663102    -0.916029920233    -0.745750328446    15.994914619570
         C           -2.769434663102    -0.044416920233     0.385169671554    12.000000000000
         C           -1.344145663102     0.193147079767     0.771135671554    12.000000000000
         C            3.587826336898    -0.229907920233     0.221186671554    12.000000000000
         C           -3.475106663102     1.269396079767     0.063968671554    12.000000000000
         C           -0.279765663102    -0.295248920233     0.111429671554    12.000000000000
         C            2.162488936898    -0.507380520233    -0.137955028446    12.000000000000
         C            1.092730336898    -0.027291920233     0.501139671554    12.000000000000
         C            4.324901336898     0.533765079767    -0.881397328446    12.000000000000
         H           -3.286088663102    -0.527798920233     1.232572671554     1.007825032230
         H           -1.196577663102     0.825429079767     1.647762671554     1.007825032230
         H            3.604053036898     0.345332679767     1.154102371554     1.007825032230
         H            4.114705336898    -1.172769920233     0.417852671554     1.007825032230
         H           -2.980845663102     1.740707079767    -0.788549328446     1.007825032230
         H           -4.527252663102     1.095054079767    -0.187485328446     1.007825032230
         H           -3.443108663102     1.953578079767     0.916644671554     1.007825032230
         H           -0.446544663102    -0.927849920233    -0.757435328446     1.007825032230
         H            2.006801336898    -1.144668920233    -1.025471328446     1.007825032230
         H            1.247599336898     0.606014079767     1.377070671554     1.007825032230
         H            4.314743336898    -0.029733920233    -1.818807328446     1.007825032230
         H            5.368397336898     0.714495079767    -0.607711328446     1.007825032230
         H            3.844738336898     1.498430079767    -1.064407328446     1.007825032230
         H           -3.717118663102    -1.059788920233    -0.980269328446     1.007825032230

  Basis Set: AUG-CC-PVTZ
    Blend: AUG-CC-PVTZ
  Basis Set: (AUG-CC-PVTZ AUX)
    Blend: AUG-CC-PVTZ-JKFIT
	 Reference Energy          =    -386.0627200821567726 [Eh]
	 Singles Energy            =      -0.0000000000000000 [Eh]
	 Same-Spin Energy          =      -0.4002573369468670 [Eh]
	 Opposite-Spin Energy      =      -1.3780900635269133 [Eh]
	 Correlation Energy        =      -1.7783474004737805 [Eh]
	 Total Energy              =    -387.8410674826305353 [Eh]

	 ================> DF-SCS-MP2 Energies <==================
	-----------------------------------------------------------
	 SCS Same-Spin Scale       =       0.3333333333333333 [-]
	 SCS Opposite-Spin Scale   =       1.2000000000000000 [-]
	 SCS Same-Spin Energy      =      -0.1334191123156223 [Eh]
	 SCS Opposite-Spin Energy  =      -1.6537080762322960 [Eh]
	 SCS Correlation Energy    =      -1.7871271885479183 [Eh]
	 SCS Total Energy          =    -387.8498472707046858 [Eh]
	-----------------------------------------------------------

  Dipole Moment: [D]
     X:    -1.1608      Y:     0.6476      Z:     0.5781     Total:     1.4495

*** Psi4 exiting successfully. Buy a developer a beer!
