                               Psi4 1.3.2 release

  ==> Input File <==

--------------------------------------------------------------------------
#psi4
#
memory 32 gb

molecule  {
0 1
  O       -2.7848290    -0.9154220    -0.7447340
  C       -2.7698910    -0.0438090     0.3861860
  C       -1.3446020     0.1937550     0.7721520
  C        3.5790222    -0.2149576     0.2423572
  C       -3.4755630     1.2700040     0.0649850
  C       -0.2802220    -0.2946410     0.1124460
  C        2.1660230    -0.5131760    -0.1475910
  C        1.0922740    -0.0266840     0.5021560
  C        4.3244450     0.5343730    -0.8803810
  H       -3.2865450    -0.5271910     1.2335890
  H       -1.1970340     0.8260370     1.6487790
  H        3.6131550     0.3461180     1.1547940
  H        4.1142490    -1.1721620     0.4188690
  H       -2.9813020     1.7413150    -0.7875330
  H       -4.5277090     1.0956620    -0.1864690
  H       -3.4435650     1.9541860     0.9176610
  H       -0.4470010    -0.9272420    -0.7564190
  H        1.9875177    -1.1425047    -1.0219392
  H        1.2471430     0.6066220     1.3780870
  H        4.3142870    -0.0291260    -1.8177910
  H        5.3679410     0.7151030    -0.6066950
  H        3.8442820     1.4990380    -1.0633910
  H       -3.7175750    -1.0591810    -0.9792530
units angstrom
no_reorient  #important for SAPT in psi4, default
symmetry c1  #important for SAPT in psi4, default
}

set PROPERTIES_ORIGIN ["COM"]
properties('MP2/aug-cc-pvtz', properties = ['dipole'])
--------------------------------------------------------------------------

    Molecular point group: c1
  Charge       = 0
  Multiplicity = 1
  Basis Set: AUG-CC-PVTZ
    Blend: AUG-CC-PVTZ
  Basis Set: (AUG-CC-PVTZ AUX)
    Blend: AUG-CC-PVTZ-JKFIT

    Orbital Energies [Eh]
    ---------------------

    Doubly Occupied:

       1A    -20.558662     2A    -11.286347     3A    -11.225799
       4A    -11.223354     5A    -11.223250     6A    -11.222370
       7A    -11.221504     8A    -11.220544     9A    -11.213312
      10A     -1.360694    11A     -1.097792    12A     -1.060819
      13A     -1.015328    14A     -0.961887    15A     -0.876454
      16A     -0.828993    17A     -0.753539    18A     -0.747886
      19A     -0.695064    20A     -0.637640    21A     -0.626418
      22A     -0.617281    23A     -0.590873    24A     -0.582065
      25A     -0.546413    26A     -0.543032    27A     -0.527203
      28A     -0.515148    29A     -0.500699    30A     -0.492192
      31A     -0.485300    32A     -0.467751    33A     -0.452709
      34A     -0.417491    35A     -0.296878

  @DF-RHF Final Energy:  -386.06191244427185

   => Energetics <=

    Nuclear Repulsion Energy =            418.2728927837731021
    One-Electron Energy =               -1352.4842250866149698
    Two-Electron Energy =                 548.1494198585698996
    Total Energy =                       -386.0619124442719112
  Basis Set: (AUG-CC-PVTZ AUX)
    Blend: AUG-CC-PVTZ-RI
    Molecular point group: c1

    Geometry (in Angstrom), charge = 0, multiplicity = 1:

       Center              X                  Y                   Z               Mass
    ------------   -----------------  -----------------  -----------------  -----------------
         O           -2.783883938693    -0.916799244826    -0.746672032887    15.994914619570
         C           -2.768945938693    -0.045186244826     0.384247967113    12.000000000000
         C           -1.343656938693     0.192377755174     0.770213967113    12.000000000000
         C            3.579967261307    -0.216334844826     0.240419167113    12.000000000000
         C           -3.474617938693     1.268626755174     0.063046967113    12.000000000000
         C           -0.279276938693    -0.296018244826     0.110507967113    12.000000000000
         C            2.166968061307    -0.514553244826    -0.149529032887    12.000000000000
         C            1.093219061307    -0.028061244826     0.500217967113    12.000000000000
         C            4.325390061307     0.532995755174    -0.882319032887    12.000000000000
         H           -3.285599938693    -0.528568244826     1.231650967113     1.007825032230
         H           -1.196088938693     0.824659755174     1.646840967113     1.007825032230
         H            3.614100061307     0.344740755174     1.152855967113     1.007825032230
         H            4.115194061307    -1.173539244826     0.416930967113     1.007825032230
         H           -2.980356938693     1.739937755174    -0.789471032887     1.007825032230
         H           -4.526763938693     1.094284755174    -0.188407032887     1.007825032230
         H           -3.442619938693     1.952808755174     0.915722967113     1.007825032230
         H           -0.446055938693    -0.928619244826    -0.758357032887     1.007825032230
         H            1.988462761307    -1.143881944826    -1.023877232887     1.007825032230
         H            1.248088061307     0.605244755174     1.376148967113     1.007825032230
         H            4.315232061307    -0.030503244826    -1.819729032887     1.007825032230
         H            5.368886061307     0.713725755174    -0.608633032887     1.007825032230
         H            3.845227061307     1.497660755174    -1.065329032887     1.007825032230
         H           -3.716629938693    -1.060558244826    -0.981191032887     1.007825032230

  Basis Set: AUG-CC-PVTZ
    Blend: AUG-CC-PVTZ
  Basis Set: (AUG-CC-PVTZ AUX)
    Blend: AUG-CC-PVTZ-JKFIT
	 Reference Energy          =    -386.0619124442718544 [Eh]
	 Singles Energy            =      -0.0000000000000000 [Eh]
	 Same-Spin Energy          =      -0.4003319447327358 [Eh]
	 Opposite-Spin Energy      =      -1.3782592594235297 [Eh]
	 Correlation Energy        =      -1.7785912041562655 [Eh]
	 Total Energy              =    -387.8405036484281254 [Eh]

	 ================> DF-SCS-MP2 Energies <==================
	-----------------------------------------------------------
	 SCS Same-Spin Scale       =       0.3333333333333333 [-]
	 SCS Opposite-Spin Scale   =       1.2000000000000000 [-]
	 SCS Same-Spin Energy      =      -0.1334439815775786 [Eh]
	 SCS Opposite-Spin Energy  =      -1.6539111113082356 [Eh]
	 SCS Correlation Energy    =      -1.7873550928858142 [Eh]
	 SCS Total Energy          =    -387.8492675371576865 [Eh]
	-----------------------------------------------------------

  Dipole Moment: [D]
     X:    -1.1512      Y:     0.6480      Z:     0.5852     Total:     1.4448

*** Psi4 exiting successfully. Buy a developer a beer!
