                               Psi4 1.3.2 release

  ==> Input File <==

--------------------------------------------------------------------------
#psi4
#
memory 32 gb

molecule  {
0 1
  O       -2.7848290    -0.9154220    -0.7447340
  C       -2.7698910    -0.0438090     0.3861860
  C       -1.3860999     0.1604491     0.7261027
  C        3.5873700    -0.2293000     0.2222030
  C       -3.4755630     1.2700040     0.0649850
  C       -0.2802220    -0.2946410     0.1124460
  C        2.1660230    -0.5131760    -0.1475910
  C        1.0922740    -0.0266840     0.5021560
  C        4.3244450     0.5343730    -0.8803810
  H       -3.2865450    -0.5271910     1.2335890
  H       -1.1970340     0.8260370     1.6487790
  H        3.6131550     0.3461180     1.1547940
  H        4.1142490    -1.1721620     0.4188690
  H       -2.9813020     1.7413150    -0.7875330
  H       -4.5277090     1.0956620    -0.1864690
  H       -3.4435650     1.9541860     0.9176610
  H       -0.5030202    -0.9209823    -0.7483578
  H        2.0063450    -1.1440610    -1.0244550
  H        1.2471430     0.6066220     1.3780870
  H        4.3142870    -0.0291260    -1.8177910
  H        5.3679410     0.7151030    -0.6066950
  H        3.8442820     1.4990380    -1.0633910
  H       -3.7175750    -1.0591810    -0.9792530
units angstrom
no_reorient  #important for SAPT in psi4, default
symmetry c1  #important for SAPT in psi4, default
}

set PROPERTIES_ORIGIN ["COM"]
properties('MP2/aug-cc-pvtz', properties = ['dipole'])
--------------------------------------------------------------------------

    Molecular point group: c1
  Charge       = 0
  Multiplicity = 1
  Basis Set: AUG-CC-PVTZ
    Blend: AUG-CC-PVTZ
  Basis Set: (AUG-CC-PVTZ AUX)
    Blend: AUG-CC-PVTZ-JKFIT

    Orbital Energies [Eh]
    ---------------------

    Doubly Occupied:

       1A    -20.558776     2A    -11.284632     3A    -11.227502
       4A    -11.225373     5A    -11.224245     6A    -11.223887
       7A    -11.221981     8A    -11.221253     9A    -11.213355
      10A     -1.363092    11A     -1.098560    12A     -1.065864
      13A     -1.018092    14A     -0.963921    15A     -0.881849
      16A     -0.832318    17A     -0.754235    18A     -0.737379
      19A     -0.698883    20A     -0.637567    21A     -0.630865
      22A     -0.619373    23A     -0.590534    24A     -0.581497
      25A     -0.547235    26A     -0.540084    27A     -0.528742
      28A     -0.518198    29A     -0.499546    30A     -0.487184
      31A     -0.480424    32A     -0.471789    33A     -0.455053
      34A     -0.417500    35A     -0.297345

  @DF-RHF Final Energy:  -386.05491480480924

   => Energetics <=

    Nuclear Repulsion Energy =            418.9711853107980915
    One-Electron Energy =               -1353.8159300520512716
    Two-Electron Energy =                 548.7898299364438799
    Total Energy =                       -386.0549148048093002
  Basis Set: (AUG-CC-PVTZ AUX)
    Blend: AUG-CC-PVTZ-RI
    Molecular point group: c1

    Geometry (in Angstrom), charge = 0, multiplicity = 1:

       Center              X                  Y                   Z               Mass
    ------------   -----------------  -----------------  -----------------  -----------------
         O           -2.780432164582    -0.912302660225    -0.740416479552    15.994914619570
         C           -2.765494164582    -0.040689660225     0.390503520448    12.000000000000
         C           -1.381703064582     0.163568439775     0.730420220448    12.000000000000
         C            3.591766835418    -0.226180660225     0.226520520448    12.000000000000
         C           -3.471166164582     1.273123339775     0.069302520448    12.000000000000
         C           -0.275825164582    -0.291521660225     0.116763520448    12.000000000000
         C            2.170419835418    -0.510056660225    -0.143273479552    12.000000000000
         C            1.096670835418    -0.023564660225     0.506473520448    12.000000000000
         C            4.328841835418     0.537492339775    -0.876063479552    12.000000000000
         H           -3.282148164582    -0.524071660225     1.237906520448     1.007825032230
         H           -1.192637164582     0.829156339775     1.653096520448     1.007825032230
         H            3.617551835418     0.349237339775     1.159111520448     1.007825032230
         H            4.118645835418    -1.169042660225     0.423186520448     1.007825032230
         H           -2.976905164582     1.744434339775    -0.783215479552     1.007825032230
         H           -4.523312164582     1.098781339775    -0.182151479552     1.007825032230
         H           -3.439168164582     1.957305339775     0.921978520448     1.007825032230
         H           -0.498623364582    -0.917862960225    -0.744040279552     1.007825032230
         H            2.010741835418    -1.140941660225    -1.020137479552     1.007825032230
         H            1.251539835418     0.609741339775     1.382404520448     1.007825032230
         H            4.318683835418    -0.026006660225    -1.813473479552     1.007825032230
         H            5.372337835418     0.718222339775    -0.602377479552     1.007825032230
         H            3.848678835418     1.502157339775    -1.059073479552     1.007825032230
         H           -3.713178164582    -1.056061660225    -0.974935479552     1.007825032230

  Basis Set: AUG-CC-PVTZ
    Blend: AUG-CC-PVTZ
  Basis Set: (AUG-CC-PVTZ AUX)
    Blend: AUG-CC-PVTZ-JKFIT
	 Reference Energy          =    -386.0549148048092434 [Eh]
	 Singles Energy            =      -0.0000000000000000 [Eh]
	 Same-Spin Energy          =      -0.4012273768258938 [Eh]
	 Opposite-Spin Energy      =      -1.3794174429106307 [Eh]
	 Correlation Energy        =      -1.7806448197365246 [Eh]
	 Total Energy              =    -387.8355596245457946 [Eh]

	 ================> DF-SCS-MP2 Energies <==================
	-----------------------------------------------------------
	 SCS Same-Spin Scale       =       0.3333333333333333 [-]
	 SCS Opposite-Spin Scale   =       1.2000000000000000 [-]
	 SCS Same-Spin Energy      =      -0.1337424589419646 [Eh]
	 SCS Opposite-Spin Energy  =      -1.6553009314927569 [Eh]
	 SCS Correlation Energy    =      -1.7890433904347216 [Eh]
	 SCS Total Energy          =    -387.8439581952439426 [Eh]
	-----------------------------------------------------------

  Dipole Moment: [D]
     X:    -1.1906      Y:     0.6323      Z:     0.5399     Total:     1.4522

*** Psi4 exiting successfully. Buy a developer a beer!
