                               Psi4 1.3.2 release

  ==> Input File <==

--------------------------------------------------------------------------
#psi4
#
memory 32 gb

molecule  {
0 1
  O       -2.7848290    -0.9154220    -0.7447340
  C       -2.7442943    -0.0877971     0.3266804
  C       -1.3446020     0.1937550     0.7721520
  C        3.5873700    -0.2293000     0.2222030
  C       -3.4755630     1.2700040     0.0649850
  C       -0.2802220    -0.2946410     0.1124460
  C        2.1660230    -0.5131760    -0.1475910
  C        1.0922740    -0.0266840     0.5021560
  C        4.3244450     0.5343730    -0.8803810
  H       -3.2865450    -0.5271910     1.2335890
  H       -1.1406854     0.8195196     1.6421339
  H        3.6131550     0.3461180     1.1547940
  H        4.1142490    -1.1721620     0.4188690
  H       -2.9813020     1.7413150    -0.7875330
  H       -4.5277090     1.0956620    -0.1864690
  H       -3.4435650     1.9541860     0.9176610
  H       -0.4470010    -0.9272420    -0.7564190
  H        2.0063450    -1.1440610    -1.0244550
  H        1.2471430     0.6066220     1.3780870
  H        4.3142870    -0.0291260    -1.8177910
  H        5.3679410     0.7151030    -0.6066950
  H        3.8442820     1.4990380    -1.0633910
  H       -3.7175750    -1.0591810    -0.9792530
units angstrom
no_reorient  #important for SAPT in psi4, default
symmetry c1  #important for SAPT in psi4, default
}

set PROPERTIES_ORIGIN ["COM"]
properties('MP2/aug-cc-pvtz', properties = ['dipole'])
--------------------------------------------------------------------------

    Molecular point group: c1
  Charge       = 0
  Multiplicity = 1
  Basis Set: AUG-CC-PVTZ
    Blend: AUG-CC-PVTZ
  Basis Set: (AUG-CC-PVTZ AUX)
    Blend: AUG-CC-PVTZ-JKFIT

    Orbital Energies [Eh]
    ---------------------

    Doubly Occupied:

       1A    -20.567896     2A    -11.289958     3A    -11.225021
       4A    -11.222805     5A    -11.222513     6A    -11.222171
       7A    -11.219464     8A    -11.219149     9A    -11.212517
      10A     -1.393626    11A     -1.097476    12A     -1.059192
      13A     -1.009850    14A     -0.960010    15A     -0.876102
      16A     -0.828970    17A     -0.755999    18A     -0.751131
      19A     -0.700767    20A     -0.646833    21A     -0.625857
      22A     -0.624345    23A     -0.593965    24A     -0.583548
      25A     -0.547793    26A     -0.540200    27A     -0.533343
      28A     -0.518719    29A     -0.503039    30A     -0.490007
      31A     -0.478301    32A     -0.464822    33A     -0.446603
      34A     -0.412276    35A     -0.295161

  @DF-RHF Final Energy:  -386.05696212973771

   => Energetics <=

    Nuclear Repulsion Energy =            419.0348629330803760
    One-Electron Energy =               -1353.9047981413089019
    Two-Electron Energy =                 548.8129730784908134
    Total Energy =                       -386.0569621297377125
  Basis Set: (AUG-CC-PVTZ AUX)
    Blend: AUG-CC-PVTZ-RI
    Molecular point group: c1

    Geometry (in Angstrom), charge = 0, multiplicity = 1:

       Center              X                  Y                   Z               Mass
    ------------   -----------------  -----------------  -----------------  -----------------
         O           -2.787714874842    -0.911184036225    -0.739018456276    15.994914619570
         C           -2.747180174842    -0.083559136225     0.332395943724    12.000000000000
         C           -1.347487874842     0.197992963775     0.777867543724    12.000000000000
         C            3.584484125158    -0.225062036225     0.227918543724    12.000000000000
         C           -3.478448874842     1.274241963775     0.070700543724    12.000000000000
         C           -0.283107874842    -0.290403036225     0.118161543724    12.000000000000
         C            2.163137125158    -0.508938036225    -0.141875456276    12.000000000000
         C            1.089388125158    -0.022446036225     0.507871543724    12.000000000000
         C            4.321559125158     0.538610963775    -0.874665456276    12.000000000000
         H           -3.289430874842    -0.522953036225     1.239304543724     1.007825032230
         H           -1.143571274842     0.823757563775     1.647849443724     1.007825032230
         H            3.610269125158     0.350355963775     1.160509543724     1.007825032230
         H            4.111363125158    -1.167924036225     0.424584543724     1.007825032230
         H           -2.984187874842     1.745552963775    -0.781817456276     1.007825032230
         H           -4.530594874842     1.099899963775    -0.180753456276     1.007825032230
         H           -3.446450874842     1.958423963775     0.923376543724     1.007825032230
         H           -0.449886874842    -0.923004036225    -0.750703456276     1.007825032230
         H            2.003459125158    -1.139823036225    -1.018739456276     1.007825032230
         H            1.244257125158     0.610859963775     1.383802543724     1.007825032230
         H            4.311401125158    -0.024888036225    -1.812075456276     1.007825032230
         H            5.365055125158     0.719340963775    -0.600979456276     1.007825032230
         H            3.841396125158     1.503275963775    -1.057675456276     1.007825032230
         H           -3.720460874842    -1.054943036225    -0.973537456276     1.007825032230

  Basis Set: AUG-CC-PVTZ
    Blend: AUG-CC-PVTZ
  Basis Set: (AUG-CC-PVTZ AUX)
    Blend: AUG-CC-PVTZ-JKFIT
	 Reference Energy          =    -386.0569621297377125 [Eh]
	 Singles Energy            =      -0.0000000000000000 [Eh]
	 Same-Spin Energy          =      -0.4004872512966343 [Eh]
	 Opposite-Spin Energy      =      -1.3774206894195216 [Eh]
	 Correlation Energy        =      -1.7779079407161558 [Eh]
	 Total Energy              =    -387.8348700704538601 [Eh]

	 ================> DF-SCS-MP2 Energies <==================
	-----------------------------------------------------------
	 SCS Same-Spin Scale       =       0.3333333333333333 [-]
	 SCS Opposite-Spin Scale   =       1.2000000000000000 [-]
	 SCS Same-Spin Energy      =      -0.1334957504322114 [Eh]
	 SCS Opposite-Spin Energy  =      -1.6529048273034259 [Eh]
	 SCS Correlation Energy    =      -1.7864005777356373 [Eh]
	 SCS Total Energy          =    -387.8433627074733749 [Eh]
	-----------------------------------------------------------

  Dipole Moment: [D]
     X:    -1.1951      Y:     0.4640      Z:     0.3877     Total:     1.3393

*** Psi4 exiting successfully. Buy a developer a beer!
