                               Psi4 1.4a3.dev225

  ==> Input File <==

--------------------------------------------------------------------------
#psi4
#
memory 32 gb

molecule  {
0 1
  O       -2.7624640     1.3159430     0.2248240
  C       -2.8209640    -0.0168770    -0.2887760
  C       -1.4198970    -0.4865040    -0.5315690
  C        3.5469730    -0.0618850    -0.4287090
  C       -3.5485140    -0.9406360     0.6857820
  C       -0.3124200     0.2274490    -0.2577540
  C        2.1505970     0.4383770    -0.2221580
  C        1.0342680    -0.2689350    -0.4861660
  C        4.3265940    -0.1505530     0.8872490
  H       -3.3622360    -0.0200820    -1.2509840
  H       -1.3293920    -1.4912640    -0.9473420
  H        3.5136740    -1.0471260    -0.9088000
  H        4.0812660     0.6062640    -1.1173180
  H       -3.0279280    -0.9272120     1.6463760
  H       -4.5820380    -0.6089360     0.8383050
  H       -3.5770120    -1.9680220     0.3103630
  H       -0.4240042     1.2476186     0.1599345
  H        2.0485920     1.4434520     0.1930580
  H        1.1311650    -1.2755230    -0.8987060
  H        4.3778580     0.8269450     1.3761990
  H        5.3504770    -0.4972710     0.7173650
  H        3.8373540    -0.8453320     1.5752720
  H       -3.6799020     1.6047450     0.3678300
units angstrom
no_reorient  #important for SAPT in psi4, default
symmetry c1  #important for SAPT in psi4, default
}

set PROPERTIES_ORIGIN ["COM"]
properties('MP2/aug-cc-pvtz', properties = ['dipole'])
--------------------------------------------------------------------------

    Molecular point group: c1
  Charge       = 0
  Multiplicity = 1
  Basis Set: AUG-CC-PVTZ
    Blend: AUG-CC-PVTZ
  Basis Set: (AUG-CC-PVTZ AUX)
    Blend: AUG-CC-PVTZ-JKFIT

    Orbital Energies [Eh]
    ---------------------

    Doubly Occupied:

       1A    -20.558770     2A    -11.287048     3A    -11.226587
       4A    -11.225856     5A    -11.223923     6A    -11.223661
       7A    -11.223106     8A    -11.220958     9A    -11.213246
      10A     -1.360105    11A     -1.096816    12A     -1.060559
      13A     -1.015472    14A     -0.962007    15A     -0.876259
      16A     -0.828320    17A     -0.752460    18A     -0.745724
      19A     -0.694767    20A     -0.635921    21A     -0.627078
      22A     -0.616533    23A     -0.589833    24A     -0.582741
      25A     -0.546311    26A     -0.543095    27A     -0.527353
      28A     -0.518373    29A     -0.499470    30A     -0.492049
      31A     -0.479316    32A     -0.467684    33A     -0.452820
      34A     -0.417942    35A     -0.297377

  @DF-RHF Final Energy:  -386.06168492246570

   => Energetics <=

    Nuclear Repulsion Energy =            417.6619944702545126
    One-Electron Energy =               -1351.2682793928877345
    Two-Electron Energy =                 547.5446000001675202
    Total Energy =                       -386.0616849224657017
  Basis Set: (AUG-CC-PVTZ AUX)
    Blend: AUG-CC-PVTZ-RI
    Molecular point group: c1

    Geometry (in Angstrom), charge = 0, multiplicity = 1:

       Center              X                  Y                   Z               Mass
    ------------   -----------------  -----------------  -----------------  -----------------
         O           -2.728256190512     1.292480016034     0.240933557260    15.994914619570
         C           -2.786756190512    -0.040339983966    -0.272666442740    12.000000000000
         C           -1.385689190512    -0.509966983966    -0.515459442740    12.000000000000
         C            3.581180809488    -0.085347983966    -0.412599442740    12.000000000000
         C           -3.514306190512    -0.964098983966     0.701891557260    12.000000000000
         C           -0.278212190512     0.203986016034    -0.241644442740    12.000000000000
         C            2.184804809488     0.414914016034    -0.206048442740    12.000000000000
         C            1.068475809488    -0.292397983966    -0.470056442740    12.000000000000
         C            4.360801809488    -0.174015983966     0.903358557260    12.000000000000
         H           -3.328028190512    -0.043544983966    -1.234874442740     1.007825032230
         H           -1.295184190512    -1.514726983966    -0.931232442740     1.007825032230
         H            3.547881809488    -1.070588983966    -0.892690442740     1.007825032230
         H            4.115473809488     0.582801016034    -1.101208442740     1.007825032230
         H           -2.993720190512    -0.950674983966     1.662485557260     1.007825032230
         H           -4.547830190512    -0.632398983966     0.854414557260     1.007825032230
         H           -3.542804190512    -1.991484983966     0.326472557260     1.007825032230
         H           -0.389796390512     1.224155616034     0.176044057260     1.007825032230
         H            2.082799809488     1.419989016034     0.209167557260     1.007825032230
         H            1.165372809488    -1.298985983966    -0.882596442740     1.007825032230
         H            4.412065809488     0.803482016034     1.392308557260     1.007825032230
         H            5.384684809488    -0.520733983966     0.733474557260     1.007825032230
         H            3.871561809488    -0.868794983966     1.591381557260     1.007825032230
         H           -3.645694190512     1.581282016034     0.383939557260     1.007825032230

  Basis Set: AUG-CC-PVTZ
    Blend: AUG-CC-PVTZ
  Basis Set: (AUG-CC-PVTZ AUX)
    Blend: AUG-CC-PVTZ-JKFIT
	 Reference Energy          =    -386.0616849224657017 [Eh]
	 Singles Energy            =      -0.0000000000000000 [Eh]
	 Same-Spin Energy          =      -0.4003422750191054 [Eh]
	 Opposite-Spin Energy      =      -1.3785752197507275 [Eh]
	 Correlation Energy        =      -1.7789174947698330 [Eh]
	 Total Energy              =    -387.8406024172355160 [Eh]

	 ================> DF-SCS-MP2 Energies <==================
	-----------------------------------------------------------
	 SCS Same-Spin Scale       =       0.3333333333333333 [-]
	 SCS Opposite-Spin Scale   =       1.2000000000000000 [-]
	 SCS Same-Spin Energy      =      -0.1334474250063685 [Eh]
	 SCS Opposite-Spin Energy  =      -1.6542902637008730 [Eh]
	 SCS Correlation Energy    =      -1.7877376887072414 [Eh]
	 SCS Total Energy          =    -387.8494226111729404 [Eh]
	-----------------------------------------------------------

  Dipole Moment: [D]
     X:    -1.1985      Y:    -0.7962      Z:    -0.1440     Total:     1.4461

*** Psi4 exiting successfully. Buy a developer a beer!
