                               Psi4 1.3.2 release

  ==> Input File <==

--------------------------------------------------------------------------
#psi4
#
memory 32 gb

molecule  {
0 1
  O       -2.7848290    -0.9154220    -0.7447340
  C       -2.7698910    -0.0438090     0.3861860
  C       -1.3446020     0.1937550     0.7721520
  C        3.5873700    -0.2293000     0.2222030
  C       -3.4755630     1.2700040     0.0649850
  C       -0.2802220    -0.2946410     0.1124460
  C        2.1660230    -0.5131760    -0.1475910
  C        1.0922740    -0.0266840     0.5021560
  C        4.3296465     0.5539778    -0.8630016
  H       -3.2865450    -0.5271910     1.2335890
  H       -1.1970340     0.8260370     1.6487790
  H        3.6231094     0.3598066     1.1458766
  H        4.1142490    -1.1721620     0.4188690
  H       -2.9813020     1.7413150    -0.7875330
  H       -4.5277090     1.0956620    -0.1864690
  H       -3.4435650     1.9541860     0.9176610
  H       -0.4470010    -0.9272420    -0.7564190
  H        2.0063450    -1.1440610    -1.0244550
  H        1.2471430     0.6066220     1.3780870
  H        4.3142870    -0.0291260    -1.8177910
  H        5.3679410     0.7151030    -0.6066950
  H        3.8442820     1.4990380    -1.0633910
  H       -3.7175750    -1.0591810    -0.9792530
units angstrom
no_reorient  #important for SAPT in psi4, default
symmetry c1  #important for SAPT in psi4, default
}

set PROPERTIES_ORIGIN ["COM"]
properties('MP2/aug-cc-pvtz', properties = ['dipole'])
--------------------------------------------------------------------------

    Molecular point group: c1
  Charge       = 0
  Multiplicity = 1
  Basis Set: AUG-CC-PVTZ
    Blend: AUG-CC-PVTZ
  Basis Set: (AUG-CC-PVTZ AUX)
    Blend: AUG-CC-PVTZ-JKFIT

    Orbital Energies [Eh]
    ---------------------

    Doubly Occupied:

       1A    -20.558817     2A    -11.286579     3A    -11.226149
       4A    -11.223852     5A    -11.223327     6A    -11.223110
       7A    -11.221932     8A    -11.220725     9A    -11.212721
      10A     -1.360860    11A     -1.097851    12A     -1.061309
      13A     -1.016246    14A     -0.962699    15A     -0.876715
      16A     -0.828486    17A     -0.752340    18A     -0.748171
      19A     -0.695297    20A     -0.637231    21A     -0.628109
      22A     -0.617359    23A     -0.591344    24A     -0.583102
      25A     -0.546350    26A     -0.543104    27A     -0.526322
      28A     -0.519985    29A     -0.502929    30A     -0.492621
      31A     -0.474523    32A     -0.468991    33A     -0.452982
      34A     -0.418522    35A     -0.297751

  @DF-RHF Final Energy:  -386.06176222012448

   => Energetics <=

    Nuclear Repulsion Energy =            418.2280336850731146
    One-Electron Energy =               -1352.3827732636746077
    Two-Electron Energy =                 548.0929773584770146
    Total Energy =                       -386.0617622201244785
  Basis Set: (AUG-CC-PVTZ AUX)
    Blend: AUG-CC-PVTZ-RI
    Molecular point group: c1

    Geometry (in Angstrom), charge = 0, multiplicity = 1:

       Center              X                  Y                   Z               Mass
    ------------   -----------------  -----------------  -----------------  -----------------
         O           -2.785403302163    -0.917396971763    -0.746316611173    15.994914619570
         C           -2.770465302163    -0.045783971763     0.384603388827    12.000000000000
         C           -1.345176302163     0.191780028237     0.770569388827    12.000000000000
         C            3.586795697837    -0.231274971763     0.220620388827    12.000000000000
         C           -3.476137302163     1.268029028237     0.063402388827    12.000000000000
         C           -0.280796302163    -0.296615971763     0.110863388827    12.000000000000
         C            2.165448697837    -0.515150971763    -0.149173611173    12.000000000000
         C            1.091699697837    -0.028658971763     0.500573388827    12.000000000000
         C            4.329072197837     0.552002828237    -0.864584211173    12.000000000000
         H           -3.287119302163    -0.529165971763     1.232006388827     1.007825032230
         H           -1.197608302163     0.824062028237     1.647196388827     1.007825032230
         H            3.622535097837     0.357831628237     1.144293988827     1.007825032230
         H            4.113674697837    -1.174136971763     0.417286388827     1.007825032230
         H           -2.981876302163     1.739340028237    -0.789115611173     1.007825032230
         H           -4.528283302163     1.093687028237    -0.188051611173     1.007825032230
         H           -3.444139302163     1.952211028237     0.916078388827     1.007825032230
         H           -0.447575302163    -0.929216971763    -0.758001611173     1.007825032230
         H            2.005770697837    -1.146035971763    -1.026037611173     1.007825032230
         H            1.246568697837     0.604647028237     1.376504388827     1.007825032230
         H            4.313712697837    -0.031100971763    -1.819373611173     1.007825032230
         H            5.367366697837     0.713128028237    -0.608277611173     1.007825032230
         H            3.843707697837     1.497063028237    -1.064973611173     1.007825032230
         H           -3.718149302163    -1.061155971763    -0.980835611173     1.007825032230

  Basis Set: AUG-CC-PVTZ
    Blend: AUG-CC-PVTZ
  Basis Set: (AUG-CC-PVTZ AUX)
    Blend: AUG-CC-PVTZ-JKFIT
	 Reference Energy          =    -386.0617622201244785 [Eh]
	 Singles Energy            =      -0.0000000000000000 [Eh]
	 Same-Spin Energy          =      -0.4003410001479816 [Eh]
	 Opposite-Spin Energy      =      -1.3783384069861184 [Eh]
	 Correlation Energy        =      -1.7786794071341001 [Eh]
	 Total Energy              =    -387.8404416272585991 [Eh]

	 ================> DF-SCS-MP2 Energies <==================
	-----------------------------------------------------------
	 SCS Same-Spin Scale       =       0.3333333333333333 [-]
	 SCS Opposite-Spin Scale   =       1.2000000000000000 [-]
	 SCS Same-Spin Energy      =      -0.1334470000493272 [Eh]
	 SCS Opposite-Spin Energy  =      -1.6540060883833421 [Eh]
	 SCS Correlation Energy    =      -1.7874530884326694 [Eh]
	 SCS Total Energy          =    -387.8492153085571204 [Eh]
	-----------------------------------------------------------

  Dipole Moment: [D]
     X:    -1.1723      Y:     0.6540      Z:     0.5906     Total:     1.4666

*** Psi4 exiting successfully. Buy a developer a beer!
