                               Psi4 1.3.2 release

  ==> Input File <==

--------------------------------------------------------------------------
#psi4
#
memory 32 gb

molecule  {
0 1
  O       -2.7848290    -0.9154220    -0.7447340
  C       -2.7698910    -0.0438090     0.3861860
  C       -1.3446020     0.1937550     0.7721520
  C        3.5873700    -0.2293000     0.2222030
  C       -3.4755630     1.2700040     0.0649850
  C       -0.2802220    -0.2946410     0.1124460
  C        2.1660230    -0.5131760    -0.1475910
  C        1.0963470    -0.0337917     0.4924927
  C        4.3244450     0.5343730    -0.8803810
  H       -3.2865450    -0.5271910     1.2335890
  H       -1.1970340     0.8260370     1.6487790
  H        3.6131550     0.3461180     1.1547940
  H        4.1142490    -1.1721620     0.4188690
  H       -2.9813020     1.7413150    -0.7875330
  H       -4.5277090     1.0956620    -0.1864690
  H       -3.4435650     1.9541860     0.9176610
  H       -0.4376162    -0.9281508    -0.7575069
  H        2.0063450    -1.1440610    -1.0244550
  H        1.2471430     0.6066220     1.3780870
  H        4.3142870    -0.0291260    -1.8177910
  H        5.3679410     0.7151030    -0.6066950
  H        3.8442820     1.4990380    -1.0633910
  H       -3.7175750    -1.0591810    -0.9792530
units angstrom
no_reorient  #important for SAPT in psi4, default
symmetry c1  #important for SAPT in psi4, default
}

set PROPERTIES_ORIGIN ["COM"]
properties('MP2/aug-cc-pvtz', properties = ['dipole'])
--------------------------------------------------------------------------

    Molecular point group: c1
  Charge       = 0
  Multiplicity = 1
  Basis Set: AUG-CC-PVTZ
    Blend: AUG-CC-PVTZ
  Basis Set: (AUG-CC-PVTZ AUX)
    Blend: AUG-CC-PVTZ-JKFIT

    Orbital Energies [Eh]
    ---------------------

    Doubly Occupied:

       1A    -20.558707     2A    -11.286667     3A    -11.224605
       4A    -11.223901     5A    -11.223283     6A    -11.222559
       7A    -11.221947     8A    -11.220739     9A    -11.212907
      10A     -1.360745    11A     -1.098685    12A     -1.061626
      13A     -1.016304    14A     -0.963534    15A     -0.876776
      16A     -0.829101    17A     -0.751994    18A     -0.747422
      19A     -0.695163    20A     -0.637381    21A     -0.627852
      22A     -0.617307    23A     -0.590804    24A     -0.582868
      25A     -0.546541    26A     -0.543456    27A     -0.526697
      28A     -0.519482    29A     -0.500557    30A     -0.491842
      31A     -0.479075    32A     -0.466923    33A     -0.452933
      34A     -0.419135    35A     -0.299145

  @DF-RHF Final Energy:  -386.06273204445580

   => Energetics <=

    Nuclear Repulsion Energy =            418.3581418986088920
    One-Electron Energy =               -1352.6444230520351084
    Two-Electron Energy =                 548.2235491089703601
    Total Energy =                       -386.0627320444558563
  Basis Set: (AUG-CC-PVTZ AUX)
    Blend: AUG-CC-PVTZ-RI
    Molecular point group: c1

    Geometry (in Angstrom), charge = 0, multiplicity = 1:

       Center              X                  Y                   Z               Mass
    ------------   -----------------  -----------------  -----------------  -----------------
         O           -2.785291362772    -0.914738369429    -0.743805822726    15.994914619570
         C           -2.770353362772    -0.043125369429     0.387114177274    12.000000000000
         C           -1.345064362772     0.194438630571     0.773080177274    12.000000000000
         C            3.586907637228    -0.228616369429     0.223131177274    12.000000000000
         C           -3.476025362772     1.270687630571     0.065913177274    12.000000000000
         C           -0.280684362772    -0.293957369429     0.113374177274    12.000000000000
         C            2.165560637228    -0.512492369429    -0.146662822726    12.000000000000
         C            1.095884637228    -0.033108069429     0.493420877274    12.000000000000
         C            4.323982637228     0.535056630571    -0.879452822726    12.000000000000
         H           -3.287007362772    -0.526507369429     1.234517177274     1.007825032230
         H           -1.197496362772     0.826720630571     1.649707177274     1.007825032230
         H            3.612692637228     0.346801630571     1.155722177274     1.007825032230
         H            4.113786637228    -1.171478369429     0.419797177274     1.007825032230
         H           -2.981764362772     1.741998630571    -0.786604822726     1.007825032230
         H           -4.528171362772     1.096345630571    -0.185540822726     1.007825032230
         H           -3.444027362772     1.954869630571     0.918589177274     1.007825032230
         H           -0.438078562772    -0.927467169429    -0.756578722726     1.007825032230
         H            2.005882637228    -1.143377369429    -1.023526822726     1.007825032230
         H            1.246680637228     0.607305630571     1.379015177274     1.007825032230
         H            4.313824637228    -0.028442369429    -1.816862822726     1.007825032230
         H            5.367478637228     0.715786630571    -0.605766822726     1.007825032230
         H            3.843819637228     1.499721630571    -1.062462822726     1.007825032230
         H           -3.718037362772    -1.058497369429    -0.978324822726     1.007825032230

  Basis Set: AUG-CC-PVTZ
    Blend: AUG-CC-PVTZ
  Basis Set: (AUG-CC-PVTZ AUX)
    Blend: AUG-CC-PVTZ-JKFIT
	 Reference Energy          =    -386.0627320444557995 [Eh]
	 Singles Energy            =      -0.0000000000000000 [Eh]
	 Same-Spin Energy          =      -0.4002460052689509 [Eh]
	 Opposite-Spin Energy      =      -1.3780827070460069 [Eh]
	 Correlation Energy        =      -1.7783287123149578 [Eh]
	 Total Energy              =    -387.8410607567707302 [Eh]

	 ================> DF-SCS-MP2 Energies <==================
	-----------------------------------------------------------
	 SCS Same-Spin Scale       =       0.3333333333333333 [-]
	 SCS Opposite-Spin Scale   =       1.2000000000000000 [-]
	 SCS Same-Spin Energy      =      -0.1334153350896503 [Eh]
	 SCS Opposite-Spin Energy  =      -1.6536992484552082 [Eh]
	 SCS Correlation Energy    =      -1.7871145835448585 [Eh]
	 SCS Total Energy          =    -387.8498466280006483 [Eh]
	-----------------------------------------------------------

  Dipole Moment: [D]
     X:    -1.1616      Y:     0.6404      Z:     0.5730     Total:     1.4450

*** Psi4 exiting successfully. Buy a developer a beer!
