                               Psi4 1.3.2 release

  ==> Input File <==

--------------------------------------------------------------------------
#psi4
#
memory 32 gb

molecule  {
0 1
  O       -2.7848290    -0.9154220    -0.7447340
  C       -2.7698910    -0.0438090     0.3861860
  C       -1.3446020     0.1937550     0.7721520
  C        3.5873700    -0.2293000     0.2222030
  C       -3.4755630     1.2700040     0.0649850
  C       -0.2802220    -0.2946410     0.1124460
  C        2.1830638    -0.5385687    -0.1899106
  C        1.0922740    -0.0266840     0.5021560
  C        4.3244450     0.5343730    -0.8803810
  H       -3.2865450    -0.5271910     1.2335890
  H       -1.1970340     0.8260370     1.6487790
  H        3.6513614     0.3463892     1.1527855
  H        4.1142490    -1.1721620     0.4188690
  H       -2.9813020     1.7413150    -0.7875330
  H       -4.5277090     1.0956620    -0.1864690
  H       -3.4435650     1.9541860     0.9176610
  H       -0.4470010    -0.9272420    -0.7564190
  H        2.0063450    -1.1440610    -1.0244550
  H        1.2471430     0.6066220     1.3780870
  H        4.3142870    -0.0291260    -1.8177910
  H        5.3679410     0.7151030    -0.6066950
  H        3.8442820     1.4990380    -1.0633910
  H       -3.7175750    -1.0591810    -0.9792530
units angstrom
no_reorient  #important for SAPT in psi4, default
symmetry c1  #important for SAPT in psi4, default
}

set PROPERTIES_ORIGIN ["COM"]
properties('MP2/aug-cc-pvtz', properties = ['dipole'])
--------------------------------------------------------------------------

    Molecular point group: c1
  Charge       = 0
  Multiplicity = 1
  Basis Set: AUG-CC-PVTZ
    Blend: AUG-CC-PVTZ
  Basis Set: (AUG-CC-PVTZ AUX)
    Blend: AUG-CC-PVTZ-JKFIT

    Orbital Energies [Eh]
    ---------------------

    Doubly Occupied:

       1A    -20.558632     2A    -11.286270     3A    -11.229904
       4A    -11.228203     5A    -11.223304     6A    -11.223108
       7A    -11.221478     8A    -11.220459     9A    -11.211953
      10A     -1.360658    11A     -1.094341    12A     -1.060879
      13A     -1.015061    14A     -0.958537    15A     -0.876725
      16A     -0.825917    17A     -0.761934    18A     -0.747197
      19A     -0.694639    20A     -0.637507    21A     -0.626041
      22A     -0.617108    23A     -0.591613    24A     -0.580368
      25A     -0.548459    26A     -0.544972    27A     -0.529245
      28A     -0.515770    29A     -0.499834    30A     -0.493436
      31A     -0.484701    32A     -0.466154    33A     -0.452517
      34A     -0.414423    35A     -0.291418

  @DF-RHF Final Energy:  -386.05661185169424

   => Energetics <=

    Nuclear Repulsion Energy =            417.7525025979508655
    One-Electron Energy =               -1351.4327008766010749
    Two-Electron Energy =                 547.6235864269559670
    Total Energy =                       -386.0566118516942424
  Basis Set: (AUG-CC-PVTZ AUX)
    Blend: AUG-CC-PVTZ-RI
    Molecular point group: c1

    Geometry (in Angstrom), charge = 0, multiplicity = 1:

       Center              X                  Y                   Z               Mass
    ------------   -----------------  -----------------  -----------------  -----------------
         O           -2.786755710048    -0.913007814002    -0.740690917925    15.994914619570
         C           -2.771817710048    -0.041394814002     0.390229082075    12.000000000000
         C           -1.346528710048     0.196169185998     0.776195082075    12.000000000000
         C            3.585443289952    -0.226885814002     0.226246082075    12.000000000000
         C           -3.477489710048     1.272418185998     0.069028082075    12.000000000000
         C           -0.282148710048    -0.292226814002     0.116489082075    12.000000000000
         C            2.181137089952    -0.536154514002    -0.185867517925    12.000000000000
         C            1.090347289952    -0.024269814002     0.506199082075    12.000000000000
         C            4.322518289952     0.536787185998    -0.876337917925    12.000000000000
         H           -3.288471710048    -0.524776814002     1.237632082075     1.007825032230
         H           -1.198960710048     0.828451185998     1.652822082075     1.007825032230
         H            3.649434689952     0.348803385998     1.156828582075     1.007825032230
         H            4.112322289952    -1.169747814002     0.422912082075     1.007825032230
         H           -2.983228710048     1.743729185998    -0.783489917925     1.007825032230
         H           -4.529635710048     1.098076185998    -0.182425917925     1.007825032230
         H           -3.445491710048     1.956600185998     0.921704082075     1.007825032230
         H           -0.448927710048    -0.924827814002    -0.752375917925     1.007825032230
         H            2.004418289952    -1.141646814002    -1.020411917925     1.007825032230
         H            1.245216289952     0.609036185998     1.382130082075     1.007825032230
         H            4.312360289952    -0.026711814002    -1.813747917925     1.007825032230
         H            5.366014289952     0.717517185998    -0.602651917925     1.007825032230
         H            3.842355289952     1.501452185998    -1.059347917925     1.007825032230
         H           -3.719501710048    -1.056766814002    -0.975209917925     1.007825032230

  Basis Set: AUG-CC-PVTZ
    Blend: AUG-CC-PVTZ
  Basis Set: (AUG-CC-PVTZ AUX)
    Blend: AUG-CC-PVTZ-JKFIT
	 Reference Energy          =    -386.0566118516942424 [Eh]
	 Singles Energy            =      -0.0000000000000000 [Eh]
	 Same-Spin Energy          =      -0.4008618050454729 [Eh]
	 Opposite-Spin Energy      =      -1.3795036006132086 [Eh]
	 Correlation Energy        =      -1.7803654056586815 [Eh]
	 Total Energy              =    -387.8369772573529417 [Eh]

	 ================> DF-SCS-MP2 Energies <==================
	-----------------------------------------------------------
	 SCS Same-Spin Scale       =       0.3333333333333333 [-]
	 SCS Opposite-Spin Scale   =       1.2000000000000000 [-]
	 SCS Same-Spin Energy      =      -0.1336206016818243 [Eh]
	 SCS Opposite-Spin Energy  =      -1.6554043207358504 [Eh]
	 SCS Correlation Energy    =      -1.7890249224176746 [Eh]
	 SCS Total Energy          =    -387.8456367741119379 [Eh]
	-----------------------------------------------------------

  Dipole Moment: [D]
     X:    -1.1611      Y:     0.6252      Z:     0.5815     Total:     1.4412

*** Psi4 exiting successfully. Buy a developer a beer!
