                               Psi4 1.3.2 release

  ==> Input File <==

--------------------------------------------------------------------------
#psi4
#
memory 32 gb

molecule  {
0 1
  O       -2.7848290    -0.9154220    -0.7447340
  C       -2.7658944    -0.0511889     0.3761905
  C       -1.3446020     0.1937550     0.7721520
  C        3.5873700    -0.2293000     0.2222030
  C       -3.4755630     1.2700040     0.0649850
  C       -0.2802220    -0.2946410     0.1124460
  C        2.1660230    -0.5131760    -0.1475910
  C        1.0922740    -0.0266840     0.5021560
  C        4.3244450     0.5343730    -0.8803810
  H       -3.2865450    -0.5271910     1.2335890
  H       -1.1876103     0.8250707     1.6478379
  H        3.6131550     0.3461180     1.1547940
  H        4.1142490    -1.1721620     0.4188690
  H       -2.9813020     1.7413150    -0.7875330
  H       -4.5277090     1.0956620    -0.1864690
  H       -3.4435650     1.9541860     0.9176610
  H       -0.4470010    -0.9272420    -0.7564190
  H        2.0063450    -1.1440610    -1.0244550
  H        1.2471430     0.6066220     1.3780870
  H        4.3142870    -0.0291260    -1.8177910
  H        5.3679410     0.7151030    -0.6066950
  H        3.8442820     1.4990380    -1.0633910
  H       -3.7175750    -1.0591810    -0.9792530
units angstrom
no_reorient  #important for SAPT in psi4, default
symmetry c1  #important for SAPT in psi4, default
}

set PROPERTIES_ORIGIN ["COM"]
properties('MP2/aug-cc-pvtz', properties = ['dipole'])
--------------------------------------------------------------------------

    Molecular point group: c1
  Charge       = 0
  Multiplicity = 1
  Basis Set: AUG-CC-PVTZ
    Blend: AUG-CC-PVTZ
  Basis Set: (AUG-CC-PVTZ AUX)
    Blend: AUG-CC-PVTZ-JKFIT

    Orbital Energies [Eh]
    ---------------------

    Doubly Occupied:

       1A    -20.560282     2A    -11.286875     3A    -11.225762
       4A    -11.223404     5A    -11.223123     6A    -11.222848
       7A    -11.221417     8A    -11.220383     9A    -11.212808
      10A     -1.365919    11A     -1.097729    12A     -1.060870
      13A     -1.015080    14A     -0.962091    15A     -0.876478
      16A     -0.828531    17A     -0.752343    18A     -0.748896
      19A     -0.696254    20A     -0.638572    21A     -0.627024
      22A     -0.618413    23A     -0.590780    24A     -0.583179
      25A     -0.546644    26A     -0.542637    27A     -0.528552
      28A     -0.518936    29A     -0.501325    30A     -0.492179
      31A     -0.478998    32A     -0.467607    33A     -0.452012
      34A     -0.417497    35A     -0.297112

  @DF-RHF Final Energy:  -386.06264281626380

   => Energetics <=

    Nuclear Repulsion Energy =            418.3928238300408680
    One-Electron Energy =               -1352.7058114280248446
    Two-Electron Energy =                 548.2503447817201732
    Total Energy =                       -386.0626428162637467
  Basis Set: (AUG-CC-PVTZ AUX)
    Blend: AUG-CC-PVTZ-RI
    Molecular point group: c1

    Geometry (in Angstrom), charge = 0, multiplicity = 1:

       Center              X                  Y                   Z               Mass
    ------------   -----------------  -----------------  -----------------  -----------------
         O           -2.785284403497    -0.914712007556    -0.743775384064    15.994914619570
         C           -2.766349803497    -0.050478907556     0.377149115936    12.000000000000
         C           -1.345057403497     0.194464992444     0.773110615936    12.000000000000
         C            3.586914596503    -0.228590007556     0.223161615936    12.000000000000
         C           -3.476018403497     1.270713992444     0.065943615936    12.000000000000
         C           -0.280677403497    -0.293931007556     0.113404615936    12.000000000000
         C            2.165567596503    -0.512466007556    -0.146632384064    12.000000000000
         C            1.091818596503    -0.025974007556     0.503114615936    12.000000000000
         C            4.323989596503     0.535082992444    -0.879422384064    12.000000000000
         H           -3.287000403497    -0.526481007556     1.234547615936     1.007825032230
         H           -1.188065703497     0.825780692444     1.648796515936     1.007825032230
         H            3.612699596503     0.346827992444     1.155752615936     1.007825032230
         H            4.113793596503    -1.171452007556     0.419827615936     1.007825032230
         H           -2.981757403497     1.742024992444    -0.786574384064     1.007825032230
         H           -4.528164403497     1.096371992444    -0.185510384064     1.007825032230
         H           -3.444020403497     1.954895992444     0.918619615936     1.007825032230
         H           -0.447456403497    -0.926532007556    -0.755460384064     1.007825032230
         H            2.005889596503    -1.143351007556    -1.023496384064     1.007825032230
         H            1.246687596503     0.607331992444     1.379045615936     1.007825032230
         H            4.313831596503    -0.028416007556    -1.816832384064     1.007825032230
         H            5.367485596503     0.715812992444    -0.605736384064     1.007825032230
         H            3.843826596503     1.499747992444    -1.062432384064     1.007825032230
         H           -3.718030403497    -1.058471007556    -0.978294384064     1.007825032230

  Basis Set: AUG-CC-PVTZ
    Blend: AUG-CC-PVTZ
  Basis Set: (AUG-CC-PVTZ AUX)
    Blend: AUG-CC-PVTZ-JKFIT
	 Reference Energy          =    -386.0626428162638035 [Eh]
	 Singles Energy            =      -0.0000000000000000 [Eh]
	 Same-Spin Energy          =      -0.4003350531825429 [Eh]
	 Opposite-Spin Energy      =      -1.3780934418705457 [Eh]
	 Correlation Energy        =      -1.7784284950530886 [Eh]
	 Total Energy              =    -387.8410713113169095 [Eh]

	 ================> DF-SCS-MP2 Energies <==================
	-----------------------------------------------------------
	 SCS Same-Spin Scale       =       0.3333333333333333 [-]
	 SCS Opposite-Spin Scale   =       1.2000000000000000 [-]
	 SCS Same-Spin Energy      =      -0.1334450177275143 [Eh]
	 SCS Opposite-Spin Energy  =      -1.6537121302446549 [Eh]
	 SCS Correlation Energy    =      -1.7871571479721693 [Eh]
	 SCS Total Energy          =    -387.8497999642359559 [Eh]
	-----------------------------------------------------------

  Dipole Moment: [D]
     X:    -1.1668      Y:     0.6132      Z:     0.5480     Total:     1.4275

*** Psi4 exiting successfully. Buy a developer a beer!
