                               Psi4 1.3.2 release

  ==> Input File <==

--------------------------------------------------------------------------
#psi4
#
memory 32 gb

molecule  {
0 1
  O       -2.7848290    -0.9154220    -0.7447340
  C       -2.7698910    -0.0438090     0.3861860
  C       -1.3446020     0.1937550     0.7721520
  C        3.5873700    -0.2293000     0.2222030
  C       -3.4755630     1.2700040     0.0649850
  C       -0.2802220    -0.2946410     0.1124460
  C        2.1660230    -0.5131760    -0.1475910
  C        1.0656524     0.0155149     0.5594869
  C        4.3244450     0.5343730    -0.8803810
  H       -3.2865450    -0.5271910     1.2335890
  H       -1.1970340     0.8260370     1.6487790
  H        3.6131550     0.3461180     1.1547940
  H        4.1142490    -1.1721620     0.4188690
  H       -2.9813020     1.7413150    -0.7875330
  H       -4.5277090     1.0956620    -0.1864690
  H       -3.4435650     1.9541860     0.9176610
  H       -0.5030183    -0.9207804    -0.7485052
  H        2.0063450    -1.1440610    -1.0244550
  H        1.2471430     0.6066220     1.3780870
  H        4.3142870    -0.0291260    -1.8177910
  H        5.3679410     0.7151030    -0.6066950
  H        3.8442820     1.4990380    -1.0633910
  H       -3.7175750    -1.0591810    -0.9792530
units angstrom
no_reorient  #important for SAPT in psi4, default
symmetry c1  #important for SAPT in psi4, default
}

set PROPERTIES_ORIGIN ["COM"]
properties('MP2/aug-cc-pvtz', properties = ['dipole'])
--------------------------------------------------------------------------

    Molecular point group: c1
  Charge       = 0
  Multiplicity = 1
  Basis Set: AUG-CC-PVTZ
    Blend: AUG-CC-PVTZ
  Basis Set: (AUG-CC-PVTZ AUX)
    Blend: AUG-CC-PVTZ-JKFIT

    Orbital Energies [Eh]
    ---------------------

    Doubly Occupied:

       1A    -20.559030     2A    -11.285368     3A    -11.234981
       4A    -11.227471     5A    -11.222970     6A    -11.222307
       7A    -11.220080     8A    -11.219198     9A    -11.212756
      10A     -1.361082    11A     -1.093890    12A     -1.059614
      13A     -1.015385    14A     -0.956432    15A     -0.876374
      16A     -0.826614    17A     -0.761977    18A     -0.745936
      19A     -0.695943    20A     -0.636699    21A     -0.625655
      22A     -0.617558    23A     -0.592871    24A     -0.579806
      25A     -0.546362    26A     -0.544371    27A     -0.531433
      28A     -0.515881    29A     -0.503736    30A     -0.494502
      31A     -0.480439    32A     -0.467110    33A     -0.452592
      34A     -0.413894    35A     -0.287425

  @DF-RHF Final Energy:  -386.05082675695331

   => Energetics <=

    Nuclear Repulsion Energy =            417.7809838076144047
    One-Electron Energy =               -1351.4881432845711515
    Two-Electron Energy =                 547.6563327200034337
    Total Energy =                       -386.0508267569533700
  Basis Set: (AUG-CC-PVTZ AUX)
    Blend: AUG-CC-PVTZ-RI
    Molecular point group: c1

    Geometry (in Angstrom), charge = 0, multiplicity = 1:

       Center              X                  Y                   Z               Mass
    ------------   -----------------  -----------------  -----------------  -----------------
         O           -2.781847796572    -0.919489250164    -0.750252878651    15.994914619570
         C           -2.766909796572    -0.047876250164     0.380667121349    12.000000000000
         C           -1.341620796572     0.189687749836     0.766633121349    12.000000000000
         C            3.590351203428    -0.233367250164     0.216684121349    12.000000000000
         C           -3.472581796572     1.265936749836     0.059466121349    12.000000000000
         C           -0.277240796572    -0.298708250164     0.106927121349    12.000000000000
         C            2.169004203428    -0.517243250164    -0.153109878651    12.000000000000
         C            1.068633603428     0.011447649836     0.553968021349    12.000000000000
         C            4.327426203428     0.530305749836    -0.885899878651    12.000000000000
         H           -3.283563796572    -0.531258250164     1.228070121349     1.007825032230
         H           -1.194052796572     0.821969749836     1.643260121349     1.007825032230
         H            3.616136203428     0.342050749836     1.149275121349     1.007825032230
         H            4.117230203428    -1.176229250164     0.413350121349     1.007825032230
         H           -2.978320796572     1.737247749836    -0.793051878651     1.007825032230
         H           -4.524727796572     1.091594749836    -0.191987878651     1.007825032230
         H           -3.440583796572     1.950118749836     0.912142121349     1.007825032230
         H           -0.500037096572    -0.924847650164    -0.754024078651     1.007825032230
         H            2.009326203428    -1.148128250164    -1.029973878651     1.007825032230
         H            1.250124203428     0.602554749836     1.372568121349     1.007825032230
         H            4.317268203428    -0.033193250164    -1.823309878651     1.007825032230
         H            5.370922203428     0.711035749836    -0.612213878651     1.007825032230
         H            3.847263203428     1.494970749836    -1.068909878651     1.007825032230
         H           -3.714593796572    -1.063248250164    -0.984771878651     1.007825032230

  Basis Set: AUG-CC-PVTZ
    Blend: AUG-CC-PVTZ
  Basis Set: (AUG-CC-PVTZ AUX)
    Blend: AUG-CC-PVTZ-JKFIT
	 Reference Energy          =    -386.0508267569533132 [Eh]
	 Singles Energy            =      -0.0000000000000000 [Eh]
	 Same-Spin Energy          =      -0.4012742037324574 [Eh]
	 Opposite-Spin Energy      =      -1.3803412917073568 [Eh]
	 Correlation Energy        =      -1.7816154954398140 [Eh]
	 Total Energy              =    -387.8324422523931503 [Eh]

	 ================> DF-SCS-MP2 Energies <==================
	-----------------------------------------------------------
	 SCS Same-Spin Scale       =       0.3333333333333333 [-]
	 SCS Opposite-Spin Scale   =       1.2000000000000000 [-]
	 SCS Same-Spin Energy      =      -0.1337580679108191 [Eh]
	 SCS Opposite-Spin Energy  =      -1.6564095500488281 [Eh]
	 SCS Correlation Energy    =      -1.7901676179596473 [Eh]
	 SCS Total Energy          =    -387.8409943749129525 [Eh]
	-----------------------------------------------------------

  Dipole Moment: [D]
     X:    -1.1676      Y:     0.6459      Z:     0.5943     Total:     1.4607

*** Psi4 exiting successfully. Buy a developer a beer!
