                               Psi4 1.3.2 release

  ==> Input File <==

--------------------------------------------------------------------------
#psi4
#
memory 32 gb

molecule  {
0 1
  O       -2.7972815    -0.9149798    -0.7448417
  C       -2.7698910    -0.0438090     0.3861860
  C       -1.3485872     0.2014502     0.7819114
  C        3.5873700    -0.2293000     0.2222030
  C       -3.4755630     1.2700040     0.0649850
  C       -0.2802220    -0.2946410     0.1124460
  C        2.1660230    -0.5131760    -0.1475910
  C        1.0922740    -0.0266840     0.5021560
  C        4.3244450     0.5343730    -0.8803810
  H       -3.2865450    -0.5271910     1.2335890
  H       -1.1970340     0.8260370     1.6487790
  H        3.6131550     0.3461180     1.1547940
  H        4.1142490    -1.1721620     0.4188690
  H       -2.9813020     1.7413150    -0.7875330
  H       -4.5277090     1.0956620    -0.1864690
  H       -3.4435650     1.9541860     0.9176610
  H       -0.4470010    -0.9272420    -0.7564190
  H        2.0063450    -1.1440610    -1.0244550
  H        1.2471430     0.6066220     1.3780870
  H        4.3142870    -0.0291260    -1.8177910
  H        5.3679410     0.7151030    -0.6066950
  H        3.8442820     1.4990380    -1.0633910
  H       -3.7175750    -1.0591810    -0.9792530
units angstrom
no_reorient  #important for SAPT in psi4, default
symmetry c1  #important for SAPT in psi4, default
}

set PROPERTIES_ORIGIN ["COM"]
properties('MP2/aug-cc-pvtz', properties = ['dipole'])
--------------------------------------------------------------------------

    Molecular point group: c1
  Charge       = 0
  Multiplicity = 1
  Basis Set: AUG-CC-PVTZ
    Blend: AUG-CC-PVTZ
  Basis Set: (AUG-CC-PVTZ AUX)
    Blend: AUG-CC-PVTZ-JKFIT

    Orbital Energies [Eh]
    ---------------------

    Doubly Occupied:

       1A    -20.557434     2A    -11.286591     3A    -11.226061
       4A    -11.225098     5A    -11.223453     6A    -11.223269
       7A    -11.222983     8A    -11.220233     9A    -11.212949
      10A     -1.362731    11A     -1.097505    12A     -1.061426
      13A     -1.016126    14A     -0.961625    15A     -0.876967
      16A     -0.828377    17A     -0.753380    18A     -0.750596
      19A     -0.695861    20A     -0.637837    21A     -0.626819
      22A     -0.617513    23A     -0.591104    24A     -0.583428
      25A     -0.547130    26A     -0.543360    27A     -0.527555
      28A     -0.519309    29A     -0.502516    30A     -0.491682
      31A     -0.479169    32A     -0.468236    33A     -0.452822
      34A     -0.417383    35A     -0.296178

  @DF-RHF Final Energy:  -386.06271172042329

   => Energetics <=

    Nuclear Repulsion Energy =            418.0679591454559159
    One-Electron Energy =               -1352.0519317446746754
    Two-Electron Energy =                 547.9212608787954650
    Total Energy =                       -386.0627117204232945
  Basis Set: (AUG-CC-PVTZ AUX)
    Blend: AUG-CC-PVTZ-RI
    Molecular point group: c1

    Geometry (in Angstrom), charge = 0, multiplicity = 1:

       Center              X                  Y                   Z               Mass
    ------------   -----------------  -----------------  -----------------  -----------------
         O           -2.795322589976    -0.915768152698    -0.745756805281    15.994914619570
         C           -2.767932089976    -0.044597352698     0.385270894719    12.000000000000
         C           -1.346628289976     0.200661847302     0.780996294719    12.000000000000
         C            3.589328910024    -0.230088352698     0.221287894719    12.000000000000
         C           -3.473604089976     1.269215647302     0.064069894719    12.000000000000
         C           -0.278263089976    -0.295429352698     0.111530894719    12.000000000000
         C            2.167981910024    -0.513964352698    -0.148506105281    12.000000000000
         C            1.094232910024    -0.027472352698     0.501240894719    12.000000000000
         C            4.326403910024     0.533584647302    -0.881296105281    12.000000000000
         H           -3.284586089976    -0.527979352698     1.232673894719     1.007825032230
         H           -1.195075089976     0.825248647302     1.647863894719     1.007825032230
         H            3.615113910024     0.345329647302     1.153878894719     1.007825032230
         H            4.116207910024    -1.172950352698     0.417953894719     1.007825032230
         H           -2.979343089976     1.740526647302    -0.788448105281     1.007825032230
         H           -4.525750089976     1.094873647302    -0.187384105281     1.007825032230
         H           -3.441606089976     1.953397647302     0.916745894719     1.007825032230
         H           -0.445042089976    -0.928030352698    -0.757334105281     1.007825032230
         H            2.008303910024    -1.144849352698    -1.025370105281     1.007825032230
         H            1.249101910024     0.605833647302     1.377171894719     1.007825032230
         H            4.316245910024    -0.029914352698    -1.818706105281     1.007825032230
         H            5.369899910024     0.714314647302    -0.607610105281     1.007825032230
         H            3.846240910024     1.498249647302    -1.064306105281     1.007825032230
         H           -3.715616089976    -1.059969352698    -0.980168105281     1.007825032230

  Basis Set: AUG-CC-PVTZ
    Blend: AUG-CC-PVTZ
  Basis Set: (AUG-CC-PVTZ AUX)
    Blend: AUG-CC-PVTZ-JKFIT
	 Reference Energy          =    -386.0627117204232945 [Eh]
	 Singles Energy            =      -0.0000000000000000 [Eh]
	 Same-Spin Energy          =      -0.4002586229871891 [Eh]
	 Opposite-Spin Energy      =      -1.3780773860497859 [Eh]
	 Correlation Energy        =      -1.7783360090369751 [Eh]
	 Total Energy              =    -387.8410477294602856 [Eh]

	 ================> DF-SCS-MP2 Energies <==================
	-----------------------------------------------------------
	 SCS Same-Spin Scale       =       0.3333333333333333 [-]
	 SCS Opposite-Spin Scale   =       1.2000000000000000 [-]
	 SCS Same-Spin Energy      =      -0.1334195409957297 [Eh]
	 SCS Opposite-Spin Energy  =      -1.6536928632597430 [Eh]
	 SCS Correlation Energy    =      -1.7871124042554727 [Eh]
	 SCS Total Energy          =    -387.8498241246787757 [Eh]
	-----------------------------------------------------------

  Dipole Moment: [D]
     X:    -1.1319      Y:     0.6438      Z:     0.5880     Total:     1.4288

*** Psi4 exiting successfully. Buy a developer a beer!
