                               Psi4 1.3.2 release

  ==> Input File <==

--------------------------------------------------------------------------
#psi4
#
memory 32 gb

molecule  {
0 1
  O       -2.7848290    -0.9154220    -0.7447340
  C       -2.7698910    -0.0438090     0.3861860
  C       -1.3446020     0.1937550     0.7721520
  C        3.5873700    -0.2293000     0.2222030
  C       -3.4755630     1.2700040     0.0649850
  C       -0.2802220    -0.2946410     0.1124460
  C        2.2610425    -0.4941984    -0.1228696
  C        1.0922740    -0.0266840     0.5021560
  C        4.3244450     0.5343730    -0.8803810
  H       -3.2865450    -0.5271910     1.2335890
  H       -1.1970340     0.8260370     1.6487790
  H        3.6131550     0.3461180     1.1547940
  H        4.1142490    -1.1721620     0.4188690
  H       -2.9813020     1.7413150    -0.7875330
  H       -4.5277090     1.0956620    -0.1864690
  H       -3.4435650     1.9541860     0.9176610
  H       -0.4470010    -0.9272420    -0.7564190
  H        2.0063450    -1.1440610    -1.0244550
  H        1.2471430     0.6066220     1.3780870
  H        4.3142870    -0.0291260    -1.8177910
  H        5.3679410     0.7151030    -0.6066950
  H        3.8442820     1.4990380    -1.0633910
  H       -3.7175750    -1.0591810    -0.9792530
units angstrom
no_reorient  #important for SAPT in psi4, default
symmetry c1  #important for SAPT in psi4, default
}

set PROPERTIES_ORIGIN ["COM"]
properties('MP2/aug-cc-pvtz', properties = ['dipole'])
--------------------------------------------------------------------------

    Molecular point group: c1
  Charge       = 0
  Multiplicity = 1
  Basis Set: AUG-CC-PVTZ
    Blend: AUG-CC-PVTZ
  Basis Set: (AUG-CC-PVTZ AUX)
    Blend: AUG-CC-PVTZ-JKFIT

    Orbital Energies [Eh]
    ---------------------

    Doubly Occupied:

       1A    -20.558970     2A    -11.287012     3A    -11.233854
       4A    -11.230208     5A    -11.225173     6A    -11.223393
       7A    -11.220897     8A    -11.219514     9A    -11.215062
      10A     -1.361047    11A     -1.100993    12A     -1.070107
      13A     -1.016197    14A     -0.956778    15A     -0.884720
      16A     -0.830793    17A     -0.749687    18A     -0.745437
      19A     -0.694468    20A     -0.638187    21A     -0.632931
      22A     -0.618097    23A     -0.595547    24A     -0.582874
      25A     -0.546430    26A     -0.540857    27A     -0.530180
      28A     -0.520341    29A     -0.506673    30A     -0.493963
      31A     -0.477680    32A     -0.467706    33A     -0.452888
      34A     -0.411947    35A     -0.288048

  @DF-RHF Final Energy:  -386.04511574422492

   => Energetics <=

    Nuclear Repulsion Energy =            418.2268293157183621
    One-Electron Energy =               -1352.2865694284416804
    Two-Electron Energy =                 548.0146243684985166
    Total Energy =                       -386.0451157442248586
  Basis Set: (AUG-CC-PVTZ AUX)
    Blend: AUG-CC-PVTZ-RI
    Molecular point group: c1

    Geometry (in Angstrom), charge = 0, multiplicity = 1:

       Center              X                  Y                   Z               Mass
    ------------   -----------------  -----------------  -----------------  -----------------
         O           -2.793870755762    -0.917227888823    -0.747086537748    15.994914619570
         C           -2.778932755762    -0.045614888823     0.383833462252    12.000000000000
         C           -1.353643755762     0.191949111177     0.769799462252    12.000000000000
         C            3.578328244238    -0.231105888823     0.219850462252    12.000000000000
         C           -3.484604755762     1.268198111177     0.062632462252    12.000000000000
         C           -0.289263755762    -0.296446888823     0.110093462252    12.000000000000
         C            2.252000744238    -0.496004288823    -0.125222137748    12.000000000000
         C            1.083232244238    -0.028489888823     0.499803462252    12.000000000000
         C            4.315403244238     0.532567111177    -0.882733537748    12.000000000000
         H           -3.295586755762    -0.528996888823     1.231236462252     1.007825032230
         H           -1.206075755762     0.824231111177     1.646426462252     1.007825032230
         H            3.604113244238     0.344312111177     1.152441462252     1.007825032230
         H            4.105207244238    -1.173967888823     0.416516462252     1.007825032230
         H           -2.990343755762     1.739509111177    -0.789885537748     1.007825032230
         H           -4.536750755762     1.093856111177    -0.188821537748     1.007825032230
         H           -3.452606755762     1.952380111177     0.915308462252     1.007825032230
         H           -0.456042755762    -0.929047888823    -0.758771537748     1.007825032230
         H            1.997303244238    -1.145866888823    -1.026807537748     1.007825032230
         H            1.238101244238     0.604816111177     1.375734462252     1.007825032230
         H            4.305245244238    -0.030931888823    -1.820143537748     1.007825032230
         H            5.358899244238     0.713297111177    -0.609047537748     1.007825032230
         H            3.835240244238     1.497232111177    -1.065743537748     1.007825032230
         H           -3.726616755762    -1.060986888823    -0.981605537748     1.007825032230

  Basis Set: AUG-CC-PVTZ
    Blend: AUG-CC-PVTZ
  Basis Set: (AUG-CC-PVTZ AUX)
    Blend: AUG-CC-PVTZ-JKFIT
	 Reference Energy          =    -386.0451157442249155 [Eh]
	 Singles Energy            =      -0.0000000000000000 [Eh]
	 Same-Spin Energy          =      -0.4025848652442686 [Eh]
	 Opposite-Spin Energy      =      -1.3815359592390204 [Eh]
	 Correlation Energy        =      -1.7841208244832889 [Eh]
	 Total Energy              =    -387.8292365687082111 [Eh]

	 ================> DF-SCS-MP2 Energies <==================
	-----------------------------------------------------------
	 SCS Same-Spin Scale       =       0.3333333333333333 [-]
	 SCS Opposite-Spin Scale   =       1.2000000000000000 [-]
	 SCS Same-Spin Energy      =      -0.1341949550814229 [Eh]
	 SCS Opposite-Spin Energy  =      -1.6578431510868243 [Eh]
	 SCS Correlation Energy    =      -1.7920381061682473 [Eh]
	 SCS Total Energy          =    -387.8371538503931788 [Eh]
	-----------------------------------------------------------

  Dipole Moment: [D]
     X:    -1.0774      Y:     0.6578      Z:     0.5872     Total:     1.3922

*** Psi4 exiting successfully. Buy a developer a beer!
