                               Psi4 1.3.2 release

  ==> Input File <==

--------------------------------------------------------------------------
#psi4
#
memory 32 gb

molecule  {
0 1
  O       -2.7848290    -0.9154220    -0.7447340
  C       -2.7698910    -0.0438090     0.3861860
  C       -1.3402642     0.2043836     0.7487088
  C        3.5873700    -0.2293000     0.2222030
  C       -3.4755630     1.2700040     0.0649850
  C       -0.2802220    -0.2946410     0.1124460
  C        2.1660230    -0.5131760    -0.1475910
  C        1.0922740    -0.0266840     0.5021560
  C        4.3244450     0.5343730    -0.8803810
  H       -3.3028097    -0.5275204     1.2232656
  H       -1.1970340     0.8260370     1.6487790
  H        3.6131550     0.3461180     1.1547940
  H        4.1142490    -1.1721620     0.4188690
  H       -2.9813020     1.7413150    -0.7875330
  H       -4.5277090     1.0956620    -0.1864690
  H       -3.4435650     1.9541860     0.9176610
  H       -0.4470010    -0.9272420    -0.7564190
  H        2.0063450    -1.1440610    -1.0244550
  H        1.2471430     0.6066220     1.3780870
  H        4.3142870    -0.0291260    -1.8177910
  H        5.3679410     0.7151030    -0.6066950
  H        3.8442820     1.4990380    -1.0633910
  H       -3.7175750    -1.0591810    -0.9792530
units angstrom
no_reorient  #important for SAPT in psi4, default
symmetry c1  #important for SAPT in psi4, default
}

set PROPERTIES_ORIGIN ["COM"]
properties('MP2/aug-cc-pvtz', properties = ['dipole'])
--------------------------------------------------------------------------

    Molecular point group: c1
  Charge       = 0
  Multiplicity = 1
  Basis Set: AUG-CC-PVTZ
    Blend: AUG-CC-PVTZ
  Basis Set: (AUG-CC-PVTZ AUX)
    Blend: AUG-CC-PVTZ-JKFIT

    Orbital Energies [Eh]
    ---------------------

    Doubly Occupied:

       1A    -20.558162     2A    -11.286510     3A    -11.226177
       4A    -11.223515     5A    -11.223276     6A    -11.222726
       7A    -11.220722     8A    -11.220157     9A    -11.212978
      10A     -1.360640    11A     -1.098632    12A     -1.061810
      13A     -1.016443    14A     -0.963330    15A     -0.876128
      16A     -0.829097    17A     -0.752905    18A     -0.746046
      19A     -0.695938    20A     -0.637278    21A     -0.628675
      22A     -0.617193    23A     -0.590155    24A     -0.582834
      25A     -0.545656    26A     -0.543077    27A     -0.526763
      28A     -0.518938    29A     -0.499252    30A     -0.493362
      31A     -0.479294    32A     -0.467820    33A     -0.452453
      34A     -0.419335    35A     -0.299186

  @DF-RHF Final Energy:  -386.06243802918169

   => Energetics <=

    Nuclear Repulsion Energy =            418.4603204930851916
    One-Electron Energy =               -1352.8525886232955600
    Two-Electron Energy =                 548.3298301010286195
    Total Energy =                       -386.0624380291817488
  Basis Set: (AUG-CC-PVTZ AUX)
    Blend: AUG-CC-PVTZ-RI
    Molecular point group: c1

    Geometry (in Angstrom), charge = 0, multiplicity = 1:

       Center              X                  Y                   Z               Mass
    ------------   -----------------  -----------------  -----------------  -----------------
         O           -2.785111570501    -0.916430772103    -0.742420728487    15.994914619570
         C           -2.770173570501    -0.044817772103     0.388499271513    12.000000000000
         C           -1.340546770501     0.203374827897     0.751022071513    12.000000000000
         C            3.587087429499    -0.230308772103     0.224516271513    12.000000000000
         C           -3.475845570501     1.268995227897     0.067298271513    12.000000000000
         C           -0.280504570501    -0.295649772103     0.114759271513    12.000000000000
         C            2.165740429499    -0.514184772103    -0.145277728487    12.000000000000
         C            1.091991429499    -0.027692772103     0.504469271513    12.000000000000
         C            4.324162429499     0.533364227897    -0.878067728487    12.000000000000
         H           -3.303092270501    -0.528529172103     1.225578871513     1.007825032230
         H           -1.197316570501     0.825028227897     1.651092271513     1.007825032230
         H            3.612872429499     0.345109227897     1.157107271513     1.007825032230
         H            4.113966429499    -1.173170772103     0.421182271513     1.007825032230
         H           -2.981584570501     1.740306227897    -0.785219728487     1.007825032230
         H           -4.527991570501     1.094653227897    -0.184155728487     1.007825032230
         H           -3.443847570501     1.953177227897     0.919974271513     1.007825032230
         H           -0.447283570501    -0.928250772103    -0.754105728487     1.007825032230
         H            2.006062429499    -1.145069772103    -1.022141728487     1.007825032230
         H            1.246860429499     0.605613227897     1.380400271513     1.007825032230
         H            4.314004429499    -0.030134772103    -1.815477728487     1.007825032230
         H            5.367658429499     0.714094227897    -0.604381728487     1.007825032230
         H            3.843999429499     1.498029227897    -1.061077728487     1.007825032230
         H           -3.717857570501    -1.060189772103    -0.976939728487     1.007825032230

  Basis Set: AUG-CC-PVTZ
    Blend: AUG-CC-PVTZ
  Basis Set: (AUG-CC-PVTZ AUX)
    Blend: AUG-CC-PVTZ-JKFIT
	 Reference Energy          =    -386.0624380291816919 [Eh]
	 Singles Energy            =      -0.0000000000000000 [Eh]
	 Same-Spin Energy          =      -0.4002675389749086 [Eh]
	 Opposite-Spin Energy      =      -1.3781495407776427 [Eh]
	 Correlation Energy        =      -1.7784170797525514 [Eh]
	 Total Energy              =    -387.8408551089342495 [Eh]

	 ================> DF-SCS-MP2 Energies <==================
	-----------------------------------------------------------
	 SCS Same-Spin Scale       =       0.3333333333333333 [-]
	 SCS Opposite-Spin Scale   =       1.2000000000000000 [-]
	 SCS Same-Spin Energy      =      -0.1334225129916362 [Eh]
	 SCS Opposite-Spin Energy  =      -1.6537794489331712 [Eh]
	 SCS Correlation Energy    =      -1.7872019619248074 [Eh]
	 SCS Total Energy          =    -387.8496399911064714 [Eh]
	-----------------------------------------------------------

  Dipole Moment: [D]
     X:    -1.1471      Y:     0.6177      Z:     0.5848     Total:     1.4281

*** Psi4 exiting successfully. Buy a developer a beer!
