                               Psi4 1.3.2 release

  ==> Input File <==

--------------------------------------------------------------------------
#psi4
#
memory 32 gb

molecule  {
0 1
  O       -2.7848290    -0.9154220    -0.7447340
  C       -2.7698910    -0.0438090     0.3861860
  C       -1.3446020     0.1937550     0.7721520
  C        3.5873700    -0.2293000     0.2222030
  C       -3.4755630     1.2700040     0.0649850
  C       -0.2802220    -0.2946410     0.1124460
  C        2.1660230    -0.5131760    -0.1475910
  C        1.2518177    -0.0989697     0.4056129
  C        4.3244450     0.5343730    -0.8803810
  H       -3.2865450    -0.5271910     1.2335890
  H       -1.1970340     0.8260370     1.6487790
  H        3.6131550     0.3461180     1.1547940
  H        4.1142490    -1.1721620     0.4188690
  H       -2.9813020     1.7413150    -0.7875330
  H       -4.5277090     1.0956620    -0.1864690
  H       -3.4435650     1.9541860     0.9176610
  H       -0.4470010    -0.9272420    -0.7564190
  H        2.0063450    -1.1440610    -1.0244550
  H        1.2471430     0.6066220     1.3780870
  H        4.3142870    -0.0291260    -1.8177910
  H        5.3679410     0.7151030    -0.6066950
  H        3.8442820     1.4990380    -1.0633910
  H       -3.7175750    -1.0591810    -0.9792530
units angstrom
no_reorient  #important for SAPT in psi4, default
symmetry c1  #important for SAPT in psi4, default
}

set PROPERTIES_ORIGIN ["COM"]
properties('MP2/aug-cc-pvtz', properties = ['dipole'])
--------------------------------------------------------------------------

    Molecular point group: c1
  Charge       = 0
  Multiplicity = 1
  Basis Set: AUG-CC-PVTZ
    Blend: AUG-CC-PVTZ
  Basis Set: (AUG-CC-PVTZ AUX)
    Blend: AUG-CC-PVTZ-JKFIT

    Orbital Energies [Eh]
    ---------------------

    Doubly Occupied:

       1A    -20.558716     2A    -11.288450     3A    -11.229507
       4A    -11.225978     5A    -11.221771     6A    -11.221428
       7A    -11.212457     8A    -11.212080     9A    -11.192300
      10A     -1.360899    11A     -1.123378    12A     -1.063913
      13A     -1.013825    14A     -0.979303    15A     -0.868649
      16A     -0.835973    17A     -0.749625    18A     -0.732737
      19A     -0.695633    20A     -0.635111    21A     -0.630393
      22A     -0.617158    23A     -0.601807    24A     -0.581776
      25A     -0.546697    26A     -0.541674    27A     -0.531097
      28A     -0.520740    29A     -0.502241    30A     -0.490566
      31A     -0.481758    32A     -0.453385    33A     -0.432422
      34A     -0.419755    35A     -0.331186

  @DF-RHF Final Energy:  -385.99348017640534

   => Energetics <=

    Nuclear Repulsion Energy =            419.4447446702719731
    One-Electron Energy =               -1354.6676788754980407
    Two-Electron Energy =                 549.2294540288206690
    Total Energy =                       -385.9934801764053418
  Basis Set: (AUG-CC-PVTZ AUX)
    Blend: AUG-CC-PVTZ-RI
    Molecular point group: c1

    Geometry (in Angstrom), charge = 0, multiplicity = 1:

       Center              X                  Y                   Z               Mass
    ------------   -----------------  -----------------  -----------------  -----------------
         O           -2.800010827008    -0.908543346215    -0.735547104952    15.994914619570
         C           -2.785072827008    -0.036930346215     0.395372895048    12.000000000000
         C           -1.359783827008     0.200633653785     0.781338895048    12.000000000000
         C            3.572188172992    -0.222421346215     0.231389895048    12.000000000000
         C           -3.490744827008     1.276882653785     0.074171895048    12.000000000000
         C           -0.295403827008    -0.287762346215     0.121632895048    12.000000000000
         C            2.150841172992    -0.506297346215    -0.138404104952    12.000000000000
         C            1.236635872992    -0.092091046215     0.414799795048    12.000000000000
         C            4.309263172992     0.541251653785    -0.871194104952    12.000000000000
         H           -3.301726827008    -0.520312346215     1.242775895048     1.007825032230
         H           -1.212215827008     0.832915653785     1.657965895048     1.007825032230
         H            3.597973172992     0.352996653785     1.163980895048     1.007825032230
         H            4.099067172992    -1.165283346215     0.428055895048     1.007825032230
         H           -2.996483827008     1.748193653785    -0.778346104952     1.007825032230
         H           -4.542890827008     1.102540653785    -0.177282104952     1.007825032230
         H           -3.458746827008     1.961064653785     0.926847895048     1.007825032230
         H           -0.462182827008    -0.920363346215    -0.747232104952     1.007825032230
         H            1.991163172992    -1.137182346215    -1.015268104952     1.007825032230
         H            1.231961172992     0.613500653785     1.387273895048     1.007825032230
         H            4.299105172992    -0.022247346215    -1.808604104952     1.007825032230
         H            5.352759172992     0.721981653785    -0.597508104952     1.007825032230
         H            3.829100172992     1.505916653785    -1.054204104952     1.007825032230
         H           -3.732756827008    -1.052302346215    -0.970066104952     1.007825032230

  Basis Set: AUG-CC-PVTZ
    Blend: AUG-CC-PVTZ
  Basis Set: (AUG-CC-PVTZ AUX)
    Blend: AUG-CC-PVTZ-JKFIT
	 Reference Energy          =    -385.9934801764053418 [Eh]
	 Singles Energy            =      -0.0000000000000000 [Eh]
	 Same-Spin Energy          =      -0.3987893315031279 [Eh]
	 Opposite-Spin Energy      =      -1.3754112724724372 [Eh]
	 Correlation Energy        =      -1.7742006039755651 [Eh]
	 Total Energy              =    -387.7676807803808856 [Eh]

	 ================> DF-SCS-MP2 Energies <==================
	-----------------------------------------------------------
	 SCS Same-Spin Scale       =       0.3333333333333333 [-]
	 SCS Opposite-Spin Scale   =       1.2000000000000000 [-]
	 SCS Same-Spin Energy      =      -0.1329297771677093 [Eh]
	 SCS Opposite-Spin Energy  =      -1.6504935269669245 [Eh]
	 SCS Correlation Energy    =      -1.7834233041346339 [Eh]
	 SCS Total Energy          =    -387.7769034805399997 [Eh]
	-----------------------------------------------------------

  Dipole Moment: [D]
     X:    -1.1963      Y:     0.5839      Z:     0.4897     Total:     1.4184

*** Psi4 exiting successfully. Buy a developer a beer!
