                               Psi4 1.3.2 release

  ==> Input File <==

--------------------------------------------------------------------------
#psi4
#
memory 32 gb

molecule  {
0 1
  O       -2.7848290    -0.9154220    -0.7447340
  C       -2.7698910    -0.0438090     0.3861860
  C       -1.3446020     0.1937550     0.7721520
  C        3.5873700    -0.2293000     0.2222030
  C       -3.4755630     1.2700040     0.0649850
  C       -0.2717618    -0.3087163     0.0931522
  C        2.1660230    -0.5131760    -0.1475910
  C        1.0922740    -0.0266840     0.5021560
  C        4.3244450     0.5343730    -0.8803810
  H       -3.2865450    -0.5271910     1.2335890
  H       -1.1970340     0.8260370     1.6487790
  H        3.6131550     0.3461180     1.1547940
  H        4.1142490    -1.1721620     0.4188690
  H       -2.9813020     1.7413150    -0.7875330
  H       -4.5277090     1.0956620    -0.1864690
  H       -3.4435650     1.9541860     0.9176610
  H       -0.4470010    -0.9272420    -0.7564190
  H        2.0063450    -1.1440610    -1.0244550
  H        1.2659829     0.6048082     1.3758601
  H        4.3142870    -0.0291260    -1.8177910
  H        5.3679410     0.7151030    -0.6066950
  H        3.8442820     1.4990380    -1.0633910
  H       -3.7175750    -1.0591810    -0.9792530
units angstrom
no_reorient  #important for SAPT in psi4, default
symmetry c1  #important for SAPT in psi4, default
}

set PROPERTIES_ORIGIN ["COM"]
properties('MP2/aug-cc-pvtz', properties = ['dipole'])
--------------------------------------------------------------------------

    Molecular point group: c1
  Charge       = 0
  Multiplicity = 1
  Basis Set: AUG-CC-PVTZ
    Blend: AUG-CC-PVTZ
  Basis Set: (AUG-CC-PVTZ AUX)
    Blend: AUG-CC-PVTZ-JKFIT

    Orbital Energies [Eh]
    ---------------------

    Doubly Occupied:

       1A    -20.558811     2A    -11.286215     3A    -11.225913
       4A    -11.225159     5A    -11.224146     6A    -11.223068
       7A    -11.222778     8A    -11.220523     9A    -11.212748
      10A     -1.360809    11A     -1.096942    12A     -1.059789
      13A     -1.016050    14A     -0.960656    15A     -0.876696
      16A     -0.827772    17A     -0.751883    18A     -0.750746
      19A     -0.695640    20A     -0.637670    21A     -0.626179
      22A     -0.617149    23A     -0.590032    24A     -0.582271
      25A     -0.546926    26A     -0.543310    27A     -0.526892
      28A     -0.518971    29A     -0.504917    30A     -0.492434
      31A     -0.478922    32A     -0.468708    33A     -0.452389
      34A     -0.416858    35A     -0.294235

  @DF-RHF Final Energy:  -386.06071437810721

   => Energetics <=

    Nuclear Repulsion Energy =            418.0860959254310387
    One-Electron Energy =               -1352.1052063651764001
    Two-Electron Energy =                 547.9583960616381546
    Total Energy =                       -386.0607143781072637
  Basis Set: (AUG-CC-PVTZ AUX)
    Blend: AUG-CC-PVTZ-RI
    Molecular point group: c1

    Geometry (in Angstrom), charge = 0, multiplicity = 1:

       Center              X                  Y                   Z               Mass
    ------------   -----------------  -----------------  -----------------  -----------------
         O           -2.785784410234    -0.914068105441    -0.742880289181    15.994914619570
         C           -2.770846410234    -0.042455105441     0.388039710819    12.000000000000
         C           -1.345557410234     0.195108894559     0.774005710819    12.000000000000
         C            3.586414589766    -0.227946105441     0.224056710819    12.000000000000
         C           -3.476518410234     1.271357894559     0.066838710819    12.000000000000
         C           -0.272717210234    -0.307362405441     0.095005910819    12.000000000000
         C            2.165067589766    -0.511822105441    -0.145737289181    12.000000000000
         C            1.091318589766    -0.025330105441     0.504009710819    12.000000000000
         C            4.323489589766     0.535726894559    -0.878527289181    12.000000000000
         H           -3.287500410234    -0.525837105441     1.235442710819     1.007825032230
         H           -1.197989410234     0.827390894559     1.650632710819     1.007825032230
         H            3.612199589766     0.347471894559     1.156647710819     1.007825032230
         H            4.113293589766    -1.170808105441     0.420722710819     1.007825032230
         H           -2.982257410234     1.742668894559    -0.785679289181     1.007825032230
         H           -4.528664410234     1.097015894559    -0.184615289181     1.007825032230
         H           -3.444520410234     1.955539894559     0.919514710819     1.007825032230
         H           -0.447956410234    -0.925888105441    -0.754565289181     1.007825032230
         H            2.005389589766    -1.142707105441    -1.022601289181     1.007825032230
         H            1.265027489766     0.606162094559     1.377713810819     1.007825032230
         H            4.313331589766    -0.027772105441    -1.815937289181     1.007825032230
         H            5.366985589766     0.716456894559    -0.604841289181     1.007825032230
         H            3.843326589766     1.500391894559    -1.061537289181     1.007825032230
         H           -3.718530410234    -1.057827105441    -0.977399289181     1.007825032230

  Basis Set: AUG-CC-PVTZ
    Blend: AUG-CC-PVTZ
  Basis Set: (AUG-CC-PVTZ AUX)
    Blend: AUG-CC-PVTZ-JKFIT
	 Reference Energy          =    -386.0607143781072068 [Eh]
	 Singles Energy            =      -0.0000000000000000 [Eh]
	 Same-Spin Energy          =      -0.4005847613634232 [Eh]
	 Opposite-Spin Energy      =      -1.3788682691998808 [Eh]
	 Correlation Energy        =      -1.7794530305633041 [Eh]
	 Total Energy              =    -387.8401674086705384 [Eh]

	 ================> DF-SCS-MP2 Energies <==================
	-----------------------------------------------------------
	 SCS Same-Spin Scale       =       0.3333333333333333 [-]
	 SCS Opposite-Spin Scale   =       1.2000000000000000 [-]
	 SCS Same-Spin Energy      =      -0.1335282537878077 [Eh]
	 SCS Opposite-Spin Energy  =      -1.6546419230398570 [Eh]
	 SCS Correlation Energy    =      -1.7881701768276648 [Eh]
	 SCS Total Energy          =    -387.8488845549348980 [Eh]
	-----------------------------------------------------------

  Dipole Moment: [D]
     X:    -1.1613      Y:     0.6401      Z:     0.5785     Total:     1.4467

*** Psi4 exiting successfully. Buy a developer a beer!
