                               Psi4 1.3.2 release

  ==> Input File <==

--------------------------------------------------------------------------
#psi4
#
memory 32 gb

molecule  {
0 1
  O       -2.7848290    -0.9154220    -0.7447340
  C       -2.7698910    -0.0438090     0.3861860
  C       -1.3446020     0.1937550     0.7721520
  C        3.5873700    -0.2293000     0.2222030
  C       -3.4755630     1.2700040     0.0649850
  C       -0.2802220    -0.2946410     0.1124460
  C        2.1660230    -0.5131760    -0.1475910
  C        1.0922740    -0.0266840     0.5021560
  C        4.3244450     0.5343730    -0.8803810
  H       -3.3801469    -0.6147650     1.3871125
  H       -1.1970340     0.8260370     1.6487790
  H        3.6131550     0.3461180     1.1547940
  H        4.1142490    -1.1721620     0.4188690
  H       -2.9813020     1.7413150    -0.7875330
  H       -4.5277090     1.0956620    -0.1864690
  H       -3.4435650     1.9541860     0.9176610
  H       -0.4470010    -0.9272420    -0.7564190
  H        2.0063450    -1.1440610    -1.0244550
  H        1.2471430     0.6066220     1.3780870
  H        4.3142870    -0.0291260    -1.8177910
  H        5.3679410     0.7151030    -0.6066950
  H        3.8442820     1.4990380    -1.0633910
  H       -3.7175750    -1.0591810    -0.9792530
units angstrom
no_reorient  #important for SAPT in psi4, default
symmetry c1  #important for SAPT in psi4, default
}

set PROPERTIES_ORIGIN ["COM"]
properties('MP2/aug-cc-pvtz', properties = ['dipole'])
--------------------------------------------------------------------------

    Molecular point group: c1
  Charge       = 0
  Multiplicity = 1
  Basis Set: AUG-CC-PVTZ
    Blend: AUG-CC-PVTZ
  Basis Set: (AUG-CC-PVTZ AUX)
    Blend: AUG-CC-PVTZ-JKFIT

    Orbital Energies [Eh]
    ---------------------

    Doubly Occupied:

       1A    -20.563509     2A    -11.310004     3A    -11.227291
       4A    -11.225617     5A    -11.224460     6A    -11.224042
       7A    -11.223736     8A    -11.223431     9A    -11.213597
      10A     -1.363876    11A     -1.098918    12A     -1.061053
      13A     -1.015036    14A     -0.963747    15A     -0.875440
      16A     -0.823789    17A     -0.750940    18A     -0.748767
      19A     -0.680658    20A     -0.639227    21A     -0.626029
      22A     -0.614560    23A     -0.591758    24A     -0.584062
      25A     -0.547624    26A     -0.544576    27A     -0.527862
      28A     -0.519736    29A     -0.502093    30A     -0.489762
      31A     -0.479740    32A     -0.468965    33A     -0.445083
      34A     -0.414861    35A     -0.297815

  @DF-RHF Final Energy:  -386.04317279033842

   => Energetics <=

    Nuclear Repulsion Energy =            417.3353099422397463
    One-Electron Energy =               -1350.5336343655308156
    Two-Electron Energy =                 547.1551516329526521
    Total Energy =                       -386.0431727903384171
  Basis Set: (AUG-CC-PVTZ AUX)
    Blend: AUG-CC-PVTZ-RI
    Molecular point group: c1

    Geometry (in Angstrom), charge = 0, multiplicity = 1:

       Center              X                  Y                   Z               Mass
    ------------   -----------------  -----------------  -----------------  -----------------
         O           -2.784080711157    -0.914722105469    -0.745961026660    15.994914619570
         C           -2.769142711157    -0.043109105469     0.384958973340    12.000000000000
         C           -1.343853711157     0.194454894531     0.770924973340    12.000000000000
         C            3.588118288843    -0.228600105469     0.220975973340    12.000000000000
         C           -3.474814711157     1.270703894531     0.063757973340    12.000000000000
         C           -0.279473711157    -0.293941105469     0.111218973340    12.000000000000
         C            2.166771288843    -0.512476105469    -0.148818026660    12.000000000000
         C            1.093022288843    -0.025984105469     0.500928973340    12.000000000000
         C            4.325193288843     0.535072894531    -0.881608026660    12.000000000000
         H           -3.379398611157    -0.614065105469     1.385885473340     1.007825032230
         H           -1.196285711157     0.826736894531     1.647551973340     1.007825032230
         H            3.613903288843     0.346817894531     1.153566973340     1.007825032230
         H            4.114997288843    -1.171462105469     0.417641973340     1.007825032230
         H           -2.980553711157     1.742014894531    -0.788760026660     1.007825032230
         H           -4.526960711157     1.096361894531    -0.187696026660     1.007825032230
         H           -3.442816711157     1.954885894531     0.916433973340     1.007825032230
         H           -0.446252711157    -0.926542105469    -0.757646026660     1.007825032230
         H            2.007093288843    -1.143361105469    -1.025682026660     1.007825032230
         H            1.247891288843     0.607321894531     1.376859973340     1.007825032230
         H            4.315035288843    -0.028426105469    -1.819018026660     1.007825032230
         H            5.368689288843     0.715802894531    -0.607922026660     1.007825032230
         H            3.845030288843     1.499737894531    -1.064618026660     1.007825032230
         H           -3.716826711157    -1.058481105469    -0.980480026660     1.007825032230

  Basis Set: AUG-CC-PVTZ
    Blend: AUG-CC-PVTZ
  Basis Set: (AUG-CC-PVTZ AUX)
    Blend: AUG-CC-PVTZ-JKFIT
	 Reference Energy          =    -386.0431727903384171 [Eh]
	 Singles Energy            =      -0.0000000000000000 [Eh]
	 Same-Spin Energy          =      -0.4006693099480727 [Eh]
	 Opposite-Spin Energy      =      -1.3801416381519875 [Eh]
	 Correlation Energy        =      -1.7808109481000602 [Eh]
	 Total Energy              =    -387.8239837384384714 [Eh]

	 ================> DF-SCS-MP2 Energies <==================
	-----------------------------------------------------------
	 SCS Same-Spin Scale       =       0.3333333333333333 [-]
	 SCS Opposite-Spin Scale   =       1.2000000000000000 [-]
	 SCS Same-Spin Energy      =      -0.1335564366493576 [Eh]
	 SCS Opposite-Spin Energy  =      -1.6561699657823850 [Eh]
	 SCS Correlation Energy    =      -1.7897264024317425 [Eh]
	 SCS Total Energy          =    -387.8328991927701850 [Eh]
	-----------------------------------------------------------

  Dipole Moment: [D]
     X:    -1.0042      Y:     0.7036      Z:     0.3755     Total:     1.2823

*** Psi4 exiting successfully. Buy a developer a beer!
