                               Psi4 1.3.2 release

  ==> Input File <==

--------------------------------------------------------------------------
#psi4
#
memory 32 gb

molecule  {
0 1
  O       -2.7848290    -0.9154220    -0.7447340
  C       -2.7698910    -0.0438090     0.3861860
  C       -1.3446020     0.1937550     0.7721520
  C        3.5873700    -0.2293000     0.2222030
  C       -3.4755630     1.2700040     0.0649850
  C       -0.2802220    -0.2946410     0.1124460
  C        2.1660230    -0.5131760    -0.1475910
  C        0.9977297    -0.0451422     0.4753108
  C        4.3244450     0.5343730    -0.8803810
  H       -3.2865450    -0.5271910     1.2335890
  H       -1.1970340     0.8260370     1.6487790
  H        3.6131550     0.3461180     1.1547940
  H        4.1142490    -1.1721620     0.4188690
  H       -2.9813020     1.7413150    -0.7875330
  H       -4.5277090     1.0956620    -0.1864690
  H       -3.4435650     1.9541860     0.9176610
  H       -0.4470010    -0.9272420    -0.7564190
  H        2.0063450    -1.1440610    -1.0244550
  H        1.2471430     0.6066220     1.3780870
  H        4.3142870    -0.0291260    -1.8177910
  H        5.3679410     0.7151030    -0.6066950
  H        3.8442820     1.4990380    -1.0633910
  H       -3.7175750    -1.0591810    -0.9792530
units angstrom
no_reorient  #important for SAPT in psi4, default
symmetry c1  #important for SAPT in psi4, default
}

set PROPERTIES_ORIGIN ["COM"]
properties('MP2/aug-cc-pvtz', properties = ['dipole'])
--------------------------------------------------------------------------

    Molecular point group: c1
  Charge       = 0
  Multiplicity = 1
  Basis Set: AUG-CC-PVTZ
    Blend: AUG-CC-PVTZ
  Basis Set: (AUG-CC-PVTZ AUX)
    Blend: AUG-CC-PVTZ-JKFIT

    Orbital Energies [Eh]
    ---------------------

    Doubly Occupied:

       1A    -20.559389     2A    -11.287101     3A    -11.234119
       4A    -11.227639     5A    -11.226306     6A    -11.224751
       7A    -11.221250     8A    -11.215744     9A    -11.213970
      10A     -1.361473    11A     -1.104861    12A     -1.060676
      13A     -1.022899    14A     -0.956666    15A     -0.884181
      16A     -0.827422    17A     -0.757457    18A     -0.745331
      19A     -0.695210    20A     -0.639013    21A     -0.631849
      22A     -0.617631    23A     -0.590708    24A     -0.584243
      25A     -0.547206    26A     -0.544148    27A     -0.522666
      28A     -0.518805    29A     -0.498754    30A     -0.489772
      31A     -0.479216    32A     -0.470834    33A     -0.455084
      34A     -0.427259    35A     -0.282168

  @DF-RHF Final Energy:  -386.04366738088606

   => Energetics <=

    Nuclear Repulsion Energy =            418.8177289704792656
    One-Electron Energy =               -1353.4711896433159382
    Two-Electron Energy =                 548.6097932919506093
    Total Energy =                       -386.0436673808860633
  Basis Set: (AUG-CC-PVTZ AUX)
    Blend: AUG-CC-PVTZ-RI
    Molecular point group: c1

    Geometry (in Angstrom), charge = 0, multiplicity = 1:

       Center              X                  Y                   Z               Mass
    ------------   -----------------  -----------------  -----------------  -----------------
         O           -2.775832016224    -0.913665528047    -0.742179501350    15.994914619570
         C           -2.760894016224    -0.042052528047     0.388740498650    12.000000000000
         C           -1.335605016224     0.195511471953     0.774706498650    12.000000000000
         C            3.596366983776    -0.227543528047     0.224757498650    12.000000000000
         C           -3.466566016224     1.271760471953     0.067539498650    12.000000000000
         C           -0.271225016224    -0.292884528047     0.115000498650    12.000000000000
         C            2.175019983776    -0.511419528047    -0.145036501350    12.000000000000
         C            1.006726683776    -0.043385728047     0.477865298650    12.000000000000
         C            4.333441983776     0.536129471953    -0.877826501350    12.000000000000
         H           -3.277548016224    -0.525434528047     1.236143498650     1.007825032230
         H           -1.188037016224     0.827793471953     1.651333498650     1.007825032230
         H            3.622151983776     0.347874471953     1.157348498650     1.007825032230
         H            4.123245983776    -1.170405528047     0.421423498650     1.007825032230
         H           -2.972305016224     1.743071471953    -0.784978501350     1.007825032230
         H           -4.518712016224     1.097418471953    -0.183914501350     1.007825032230
         H           -3.434568016224     1.955942471953     0.920215498650     1.007825032230
         H           -0.438004016224    -0.925485528047    -0.753864501350     1.007825032230
         H            2.015341983776    -1.142304528047    -1.021900501350     1.007825032230
         H            1.256139983776     0.608378471953     1.380641498650     1.007825032230
         H            4.323283983776    -0.027369528047    -1.815236501350     1.007825032230
         H            5.376937983776     0.716859471953    -0.604140501350     1.007825032230
         H            3.853278983776     1.500794471953    -1.060836501350     1.007825032230
         H           -3.708578016224    -1.057424528047    -0.976698501350     1.007825032230

  Basis Set: AUG-CC-PVTZ
    Blend: AUG-CC-PVTZ
  Basis Set: (AUG-CC-PVTZ AUX)
    Blend: AUG-CC-PVTZ-JKFIT
	 Reference Energy          =    -386.0436673808860633 [Eh]
	 Singles Energy            =      -0.0000000000000000 [Eh]
	 Same-Spin Energy          =      -0.4030450733019989 [Eh]
	 Opposite-Spin Energy      =      -1.3822021640405291 [Eh]
	 Correlation Energy        =      -1.7852472373425279 [Eh]
	 Total Energy              =    -387.8289146182285663 [Eh]

	 ================> DF-SCS-MP2 Energies <==================
	-----------------------------------------------------------
	 SCS Same-Spin Scale       =       0.3333333333333333 [-]
	 SCS Opposite-Spin Scale   =       1.2000000000000000 [-]
	 SCS Same-Spin Energy      =      -0.1343483577673329 [Eh]
	 SCS Opposite-Spin Energy  =      -1.6586425968486349 [Eh]
	 SCS Correlation Energy    =      -1.7929909546159679 [Eh]
	 SCS Total Energy          =    -387.8366583355020225 [Eh]
	-----------------------------------------------------------

  Dipole Moment: [D]
     X:    -1.2031      Y:     0.6462      Z:     0.5624     Total:     1.4769

*** Psi4 exiting successfully. Buy a developer a beer!
