                               Psi4 1.3.2 release

  ==> Input File <==

--------------------------------------------------------------------------
#psi4
#
memory 32 gb

molecule  {
0 1
  O       -2.7848290    -0.9154220    -0.7447340
  C       -2.7698910    -0.0438090     0.3861860
  C       -1.3446020     0.1937550     0.7721520
  C        3.5873700    -0.2293000     0.2222030
  C       -3.4755630     1.2700040     0.0649850
  C       -0.2522271    -0.2727783     0.1430961
  C        2.1660230    -0.5131760    -0.1475910
  C        1.0922740    -0.0266840     0.5021560
  C        4.3244450     0.5343730    -0.8803810
  H       -3.2865450    -0.5271910     1.2335890
  H       -1.1594039     0.8223692     1.6442630
  H        3.6131550     0.3461180     1.1547940
  H        4.1142490    -1.1721620     0.4188690
  H       -2.9813020     1.7413150    -0.7875330
  H       -4.5277090     1.0956620    -0.1864690
  H       -3.4435650     1.9541860     0.9176610
  H       -0.4470010    -0.9272420    -0.7564190
  H        2.0063450    -1.1440610    -1.0244550
  H        1.2471430     0.6066220     1.3780870
  H        4.3142870    -0.0291260    -1.8177910
  H        5.3679410     0.7151030    -0.6066950
  H        3.8442820     1.4990380    -1.0633910
  H       -3.7175750    -1.0591810    -0.9792530
units angstrom
no_reorient  #important for SAPT in psi4, default
symmetry c1  #important for SAPT in psi4, default
}

set PROPERTIES_ORIGIN ["COM"]
properties('MP2/aug-cc-pvtz', properties = ['dipole'])
--------------------------------------------------------------------------

    Molecular point group: c1
  Charge       = 0
  Multiplicity = 1
  Basis Set: AUG-CC-PVTZ
    Blend: AUG-CC-PVTZ
  Basis Set: (AUG-CC-PVTZ AUX)
    Blend: AUG-CC-PVTZ-JKFIT

    Orbital Energies [Eh]
    ---------------------

    Doubly Occupied:

       1A    -20.559196     2A    -11.288482     3A    -11.227529
       4A    -11.223941     5A    -11.223266     6A    -11.221752
       7A    -11.220988     8A    -11.220888     9A    -11.213425
      10A     -1.361128    11A     -1.101564    12A     -1.061396
      13A     -1.018846    14A     -0.962899    15A     -0.879291
      16A     -0.829562    17A     -0.756366    18A     -0.742346
      19A     -0.695885    20A     -0.636596    21A     -0.630167
      22A     -0.617883    23A     -0.591231    24A     -0.584526
      25A     -0.546062    26A     -0.542347    27A     -0.527853
      28A     -0.518931    29A     -0.496156    30A     -0.487516
      31A     -0.479944    32A     -0.471065    33A     -0.453854
      34A     -0.422822    35A     -0.295208

  @DF-RHF Final Energy:  -386.05863177275671

   => Energetics <=

    Nuclear Repulsion Energy =            418.4793515427500665
    One-Electron Energy =               -1352.8541453558784724
    Two-Electron Energy =                 548.3161620403717507
    Total Energy =                       -386.0586317727567121
  Basis Set: (AUG-CC-PVTZ AUX)
    Blend: AUG-CC-PVTZ-RI
    Molecular point group: c1

    Geometry (in Angstrom), charge = 0, multiplicity = 1:

       Center              X                  Y                   Z               Mass
    ------------   -----------------  -----------------  -----------------  -----------------
         O           -2.787793487658    -0.917473119627    -0.747614616291    15.994914619570
         C           -2.772855487658    -0.045860119627     0.383305383709    12.000000000000
         C           -1.347566487658     0.191703880373     0.769271383709    12.000000000000
         C            3.584405512342    -0.231351119627     0.219322383709    12.000000000000
         C           -3.478527487658     1.267952880373     0.062104383709    12.000000000000
         C           -0.255191587658    -0.274829419627     0.140215483709    12.000000000000
         C            2.163058512342    -0.515227119627    -0.150471616291    12.000000000000
         C            1.089309512342    -0.028735119627     0.499275383709    12.000000000000
         C            4.321480512342     0.532321880373    -0.883261616291    12.000000000000
         H           -3.289509487658    -0.529242119627     1.230708383709     1.007825032230
         H           -1.162368387658     0.820318080373     1.641382383709     1.007825032230
         H            3.610190512342     0.344066880373     1.151913383709     1.007825032230
         H            4.111284512342    -1.174213119627     0.415988383709     1.007825032230
         H           -2.984266487658     1.739263880373    -0.790413616291     1.007825032230
         H           -4.530673487658     1.093610880373    -0.189349616291     1.007825032230
         H           -3.446529487658     1.952134880373     0.914780383709     1.007825032230
         H           -0.449965487658    -0.929293119627    -0.759299616291     1.007825032230
         H            2.003380512342    -1.146112119627    -1.027335616291     1.007825032230
         H            1.244178512342     0.604570880373     1.375206383709     1.007825032230
         H            4.311322512342    -0.031177119627    -1.820671616291     1.007825032230
         H            5.364976512342     0.713051880373    -0.609575616291     1.007825032230
         H            3.841317512342     1.496986880373    -1.066271616291     1.007825032230
         H           -3.720539487658    -1.061232119627    -0.982133616291     1.007825032230

  Basis Set: AUG-CC-PVTZ
    Blend: AUG-CC-PVTZ
  Basis Set: (AUG-CC-PVTZ AUX)
    Blend: AUG-CC-PVTZ-JKFIT
	 Reference Energy          =    -386.0586317727567121 [Eh]
	 Singles Energy            =      -0.0000000000000000 [Eh]
	 Same-Spin Energy          =      -0.4010350150234506 [Eh]
	 Opposite-Spin Energy      =      -1.3790634265343602 [Eh]
	 Correlation Energy        =      -1.7800984415578109 [Eh]
	 Total Energy              =    -387.8387302143145234 [Eh]

	 ================> DF-SCS-MP2 Energies <==================
	-----------------------------------------------------------
	 SCS Same-Spin Scale       =       0.3333333333333333 [-]
	 SCS Opposite-Spin Scale   =       1.2000000000000000 [-]
	 SCS Same-Spin Energy      =      -0.1336783383411502 [Eh]
	 SCS Opposite-Spin Energy  =      -1.6548761118412323 [Eh]
	 SCS Correlation Energy    =      -1.7885544501823825 [Eh]
	 SCS Total Energy          =    -387.8471862229391149 [Eh]
	-----------------------------------------------------------

  Dipole Moment: [D]
     X:    -1.1350      Y:     0.6451      Z:     0.5697     Total:     1.4244

*** Psi4 exiting successfully. Buy a developer a beer!
