                               Psi4 1.3.2 release

  ==> Input File <==

--------------------------------------------------------------------------
#psi4
#
memory 32 gb

molecule  {
0 1
  O       -2.7848290    -0.9154220    -0.7447340
  C       -2.7698910    -0.0438090     0.3861860
  C       -1.3446020     0.1937550     0.7721520
  C        3.5873700    -0.2293000     0.2222030
  C       -3.4755630     1.2700040     0.0649850
  C       -0.2958857    -0.2662498     0.1513838
  C        2.1660230    -0.5131760    -0.1475910
  C        1.0922740    -0.0266840     0.5021560
  C        4.3244450     0.5343730    -0.8803810
  H       -3.2865450    -0.5271910     1.2335890
  H       -1.1970340     0.8260370     1.6487790
  H        3.6131550     0.3461180     1.1547940
  H        4.1142490    -1.1721620     0.4188690
  H       -2.9813020     1.7413150    -0.7875330
  H       -4.5277090     1.0956620    -0.1864690
  H       -3.4435650     1.9541860     0.9176610
  H       -0.4470010    -0.9272420    -0.7564190
  H        2.0063450    -1.1440610    -1.0244550
  H        1.2093274     0.6096704     1.3817398
  H        4.3142870    -0.0291260    -1.8177910
  H        5.3679410     0.7151030    -0.6066950
  H        3.8442820     1.4990380    -1.0633910
  H       -3.7175750    -1.0591810    -0.9792530
units angstrom
no_reorient  #important for SAPT in psi4, default
symmetry c1  #important for SAPT in psi4, default
}

set PROPERTIES_ORIGIN ["COM"]
properties('MP2/aug-cc-pvtz', properties = ['dipole'])
--------------------------------------------------------------------------

    Molecular point group: c1
  Charge       = 0
  Multiplicity = 1
  Basis Set: AUG-CC-PVTZ
    Blend: AUG-CC-PVTZ
  Basis Set: (AUG-CC-PVTZ AUX)
    Blend: AUG-CC-PVTZ-JKFIT

    Orbital Energies [Eh]
    ---------------------

    Doubly Occupied:

       1A    -20.558549     2A    -11.287069     3A    -11.227745
       4A    -11.223834     5A    -11.223656     6A    -11.220888
       7A    -11.219727     8A    -11.216622     9A    -11.213175
      10A     -1.360663    11A     -1.100369    12A     -1.064457
      13A     -1.016441    14A     -0.966140    15A     -0.876827
      16A     -0.830697    17A     -0.755463    18A     -0.741517
      19A     -0.694194    20A     -0.637294    21A     -0.630246
      22A     -0.617759    23A     -0.592027    24A     -0.583202
      25A     -0.545971    26A     -0.543680    27A     -0.528206
      28A     -0.519223    29A     -0.495683    30A     -0.490908
      31A     -0.479623    32A     -0.461994    33A     -0.454012
      34A     -0.421458    35A     -0.303872

  @DF-RHF Final Energy:  -386.05997354652123

   => Energetics <=

    Nuclear Repulsion Energy =            418.6508905805478662
    One-Electron Energy =               -1353.2153444556797695
    Two-Electron Energy =                 548.5044803286106117
    Total Energy =                       -386.0599735465212916
  Basis Set: (AUG-CC-PVTZ AUX)
    Blend: AUG-CC-PVTZ-RI
    Molecular point group: c1

    Geometry (in Angstrom), charge = 0, multiplicity = 1:

       Center              X                  Y                   Z               Mass
    ------------   -----------------  -----------------  -----------------  -----------------
         O           -2.783036009288    -0.918148042235    -0.748468552121    15.994914619570
         C           -2.768098009288    -0.046535042235     0.382451447879    12.000000000000
         C           -1.342809009288     0.191028957765     0.768417447879    12.000000000000
         C            3.589162990712    -0.232026042235     0.218468447879    12.000000000000
         C           -3.473770009288     1.267277957765     0.061250447879    12.000000000000
         C           -0.294092709288    -0.268975842235     0.147649247879    12.000000000000
         C            2.167815990712    -0.515902042235    -0.151325552121    12.000000000000
         C            1.094066990712    -0.029410042235     0.498421447879    12.000000000000
         C            4.326237990712     0.531646957765    -0.884115552121    12.000000000000
         H           -3.284752009288    -0.529917042235     1.229854447879     1.007825032230
         H           -1.195241009288     0.823310957765     1.645044447879     1.007825032230
         H            3.614947990712     0.343391957765     1.151059447879     1.007825032230
         H            4.116041990712    -1.174888042235     0.415134447879     1.007825032230
         H           -2.979509009288     1.738588957765    -0.791267552121     1.007825032230
         H           -4.525916009288     1.092935957765    -0.190203552121     1.007825032230
         H           -3.441772009288     1.951459957765     0.913926447879     1.007825032230
         H           -0.445208009288    -0.929968042235    -0.760153552121     1.007825032230
         H            2.008137990712    -1.146787042235    -1.028189552121     1.007825032230
         H            1.211120390712     0.606944357765     1.378005247879     1.007825032230
         H            4.316079990712    -0.031852042235    -1.821525552121     1.007825032230
         H            5.369733990712     0.712376957765    -0.610429552121     1.007825032230
         H            3.846074990712     1.496311957765    -1.067125552121     1.007825032230
         H           -3.715782009288    -1.061907042235    -0.982987552121     1.007825032230

  Basis Set: AUG-CC-PVTZ
    Blend: AUG-CC-PVTZ
  Basis Set: (AUG-CC-PVTZ AUX)
    Blend: AUG-CC-PVTZ-JKFIT
	 Reference Energy          =    -386.0599735465212348 [Eh]
	 Singles Energy            =      -0.0000000000000000 [Eh]
	 Same-Spin Energy          =      -0.4000618492881318 [Eh]
	 Opposite-Spin Energy      =      -1.3775758012534198 [Eh]
	 Correlation Energy        =      -1.7776376505415517 [Eh]
	 Total Energy              =    -387.8376111970628131 [Eh]

	 ================> DF-SCS-MP2 Energies <==================
	-----------------------------------------------------------
	 SCS Same-Spin Scale       =       0.3333333333333333 [-]
	 SCS Opposite-Spin Scale   =       1.2000000000000000 [-]
	 SCS Same-Spin Energy      =      -0.1333539497627106 [Eh]
	 SCS Opposite-Spin Energy  =      -1.6530909615041038 [Eh]
	 SCS Correlation Energy    =      -1.7864449112668144 [Eh]
	 SCS Total Energy          =    -387.8464184577880474 [Eh]
	-----------------------------------------------------------

  Dipole Moment: [D]
     X:    -1.1518      Y:     0.6486      Z:     0.5785     Total:     1.4429

*** Psi4 exiting successfully. Buy a developer a beer!
