                               Psi4 1.3.2 release

  ==> Input File <==

--------------------------------------------------------------------------
#psi4
#
memory 32 gb

molecule  {
0 1
  O       -2.7848290    -0.9154220    -0.7447340
  C       -2.7698910    -0.0438090     0.3861860
  C       -1.3446020     0.1937550     0.7721520
  C        3.5873700    -0.2293000     0.2222030
  C       -3.4755630     1.2700040     0.0649850
  C       -0.2802220    -0.2946410     0.1124460
  C        2.1800229    -0.5022273    -0.1322282
  C        1.0922740    -0.0266840     0.5021560
  C        4.3244450     0.5343730    -0.8803810
  H       -3.2865450    -0.5271910     1.2335890
  H       -1.1970340     0.8260370     1.6487790
  H        3.6131550     0.3461180     1.1547940
  H        4.1142490    -1.1721620     0.4188690
  H       -2.9813020     1.7413150    -0.7875330
  H       -4.5277090     1.0956620    -0.1864690
  H       -3.4435650     1.9541860     0.9176610
  H       -0.4470010    -0.9272420    -0.7564190
  H        2.0063450    -1.1440610    -1.0244550
  H        1.2659824     0.6047644     1.3758918
  H        4.3142870    -0.0291260    -1.8177910
  H        5.3679410     0.7151030    -0.6066950
  H        3.8442820     1.4990380    -1.0633910
  H       -3.7175750    -1.0591810    -0.9792530
units angstrom
no_reorient  #important for SAPT in psi4, default
symmetry c1  #important for SAPT in psi4, default
}

set PROPERTIES_ORIGIN ["COM"]
properties('MP2/aug-cc-pvtz', properties = ['dipole'])
--------------------------------------------------------------------------

    Molecular point group: c1
  Charge       = 0
  Multiplicity = 1
  Basis Set: AUG-CC-PVTZ
    Blend: AUG-CC-PVTZ
  Basis Set: (AUG-CC-PVTZ AUX)
    Blend: AUG-CC-PVTZ-JKFIT

    Orbital Energies [Eh]
    ---------------------

    Doubly Occupied:

       1A    -20.558883     2A    -11.286694     3A    -11.226462
       4A    -11.224209     5A    -11.222992     6A    -11.222630
       7A    -11.222325     8A    -11.220790     9A    -11.213368
      10A     -1.360935    11A     -1.098733    12A     -1.063024
      13A     -1.016574    14A     -0.962677    15A     -0.877957
      16A     -0.830039    17A     -0.749844    18A     -0.747492
      19A     -0.695431    20A     -0.637022    21A     -0.628821
      22A     -0.617453    23A     -0.591214    24A     -0.583689
      25A     -0.546398    26A     -0.542241    27A     -0.525383
      28A     -0.521077    29A     -0.501802    30A     -0.492821
      31A     -0.476607    32A     -0.470049    33A     -0.453024
      34A     -0.418017    35A     -0.297415

  @DF-RHF Final Energy:  -386.06151911310741

   => Energetics <=

    Nuclear Repulsion Energy =            418.3692952158855292
    One-Electron Energy =               -1352.6534478543831028
    Two-Electron Energy =                 548.2226335253901652
    Total Energy =                       -386.0615191131073516
  Basis Set: (AUG-CC-PVTZ AUX)
    Blend: AUG-CC-PVTZ-RI
    Molecular point group: c1

    Geometry (in Angstrom), charge = 0, multiplicity = 1:

       Center              X                  Y                   Z               Mass
    ------------   -----------------  -----------------  -----------------  -----------------
         O           -2.786311559657    -0.916449019211    -0.746178436854    15.994914619570
         C           -2.771373559657    -0.044836019211     0.384741563146    12.000000000000
         C           -1.346084559657     0.192727980789     0.770707563146    12.000000000000
         C            3.585887440343    -0.230327019211     0.220758563146    12.000000000000
         C           -3.477045559657     1.268976980789     0.063540563146    12.000000000000
         C           -0.281704559657    -0.295668019211     0.111001563146    12.000000000000
         C            2.178540340343    -0.503254319211    -0.133672636854    12.000000000000
         C            1.090791440343    -0.027711019211     0.500711563146    12.000000000000
         C            4.322962440343     0.533345980789    -0.881825436854    12.000000000000
         H           -3.288027559657    -0.528218019211     1.232144563146     1.007825032230
         H           -1.198516559657     0.825009980789     1.647334563146     1.007825032230
         H            3.611672440343     0.345090980789     1.153349563146     1.007825032230
         H            4.112766440343    -1.173189019211     0.417424563146     1.007825032230
         H           -2.982784559657     1.740287980789    -0.788977436854     1.007825032230
         H           -4.529191559657     1.094634980789    -0.187913436854     1.007825032230
         H           -3.445047559657     1.953158980789     0.916216563146     1.007825032230
         H           -0.448483559657    -0.928269019211    -0.757863436854     1.007825032230
         H            2.004862440343    -1.145088019211    -1.025899436854     1.007825032230
         H            1.264499840343     0.603737380789     1.374447363146     1.007825032230
         H            4.312804440343    -0.030153019211    -1.819235436854     1.007825032230
         H            5.366458440343     0.714075980789    -0.608139436854     1.007825032230
         H            3.842799440343     1.498010980789    -1.064835436854     1.007825032230
         H           -3.719057559657    -1.060208019211    -0.980697436854     1.007825032230

  Basis Set: AUG-CC-PVTZ
    Blend: AUG-CC-PVTZ
  Basis Set: (AUG-CC-PVTZ AUX)
    Blend: AUG-CC-PVTZ-JKFIT
	 Reference Energy          =    -386.0615191131074084 [Eh]
	 Singles Energy            =      -0.0000000000000000 [Eh]
	 Same-Spin Energy          =      -0.4005925872622386 [Eh]
	 Opposite-Spin Energy      =      -1.3785607606381620 [Eh]
	 Correlation Energy        =      -1.7791533479004005 [Eh]
	 Total Energy              =    -387.8406724610077845 [Eh]

	 ================> DF-SCS-MP2 Energies <==================
	-----------------------------------------------------------
	 SCS Same-Spin Scale       =       0.3333333333333333 [-]
	 SCS Opposite-Spin Scale   =       1.2000000000000000 [-]
	 SCS Same-Spin Energy      =      -0.1335308624207462 [Eh]
	 SCS Opposite-Spin Energy  =      -1.6542729127657945 [Eh]
	 SCS Correlation Energy    =      -1.7878037751865405 [Eh]
	 SCS Total Energy          =    -387.8493228882939547 [Eh]
	-----------------------------------------------------------

  Dipole Moment: [D]
     X:    -1.1481      Y:     0.6505      Z:     0.5830     Total:     1.4427

*** Psi4 exiting successfully. Buy a developer a beer!
