                               Psi4 1.3.2 release

  ==> Input File <==

--------------------------------------------------------------------------
#psi4
#
memory 32 gb

molecule  {
0 1
  O       -2.7848290    -0.9154220    -0.7447340
  C       -2.7698910    -0.0438090     0.3861860
  C       -1.3446020     0.1937550     0.7721520
  C        3.5873700    -0.2293000     0.2222030
  C       -3.4755630     1.2700040     0.0649850
  C       -0.2947079    -0.3053508     0.0974200
  C        2.1660230    -0.5131760    -0.1475910
  C        1.0922740    -0.0266840     0.5021560
  C        4.3244450     0.5343730    -0.8803810
  H       -3.2865450    -0.5271910     1.2335890
  H       -1.2159193     0.8275823     1.6506368
  H        3.6131550     0.3461180     1.1547940
  H        4.1142490    -1.1721620     0.4188690
  H       -2.9813020     1.7413150    -0.7875330
  H       -4.5277090     1.0956620    -0.1864690
  H       -3.4435650     1.9541860     0.9176610
  H       -0.4470010    -0.9272420    -0.7564190
  H        2.0063450    -1.1440610    -1.0244550
  H        1.2471430     0.6066220     1.3780870
  H        4.3142870    -0.0291260    -1.8177910
  H        5.3679410     0.7151030    -0.6066950
  H        3.8442820     1.4990380    -1.0633910
  H       -3.7175750    -1.0591810    -0.9792530
units angstrom
no_reorient  #important for SAPT in psi4, default
symmetry c1  #important for SAPT in psi4, default
}

set PROPERTIES_ORIGIN ["COM"]
properties('MP2/aug-cc-pvtz', properties = ['dipole'])
--------------------------------------------------------------------------

    Molecular point group: c1
  Charge       = 0
  Multiplicity = 1
  Basis Set: AUG-CC-PVTZ
    Blend: AUG-CC-PVTZ
  Basis Set: (AUG-CC-PVTZ AUX)
    Blend: AUG-CC-PVTZ-JKFIT

    Orbital Energies [Eh]
    ---------------------

    Doubly Occupied:

       1A    -20.558517     2A    -11.285505     3A    -11.225489
       4A    -11.224026     5A    -11.223600     6A    -11.222822
       7A    -11.222092     8A    -11.220485     9A    -11.212605
      10A     -1.360623    11A     -1.096150    12A     -1.061358
      13A     -1.014819    14A     -0.962312    15A     -0.875502
      16A     -0.828279    17A     -0.751417    18A     -0.750350
      19A     -0.694923    20A     -0.638014    21A     -0.626167
      22A     -0.617075    23A     -0.590335    24A     -0.581641
      25A     -0.547515    26A     -0.543885    27A     -0.527176
      28A     -0.519419    29A     -0.504232    30A     -0.492477
      31A     -0.478794    32A     -0.465322    33A     -0.452425
      34A     -0.416079    35A     -0.298643

  @DF-RHF Final Energy:  -386.06227332747960

   => Energetics <=

    Nuclear Repulsion Energy =            418.1747254731592420
    One-Electron Energy =               -1352.2938523612795052
    Two-Electron Energy =                 548.0568535606406613
    Total Energy =                       -386.0622733274796019
  Basis Set: (AUG-CC-PVTZ AUX)
    Blend: AUG-CC-PVTZ-RI
    Molecular point group: c1

    Geometry (in Angstrom), charge = 0, multiplicity = 1:

       Center              X                  Y                   Z               Mass
    ------------   -----------------  -----------------  -----------------  -----------------
         O           -2.783299378473    -0.914415209607    -0.743319054476    15.994914619570
         C           -2.768361378473    -0.042802209607     0.387600945524    12.000000000000
         C           -1.343072378473     0.194761790393     0.773566945524    12.000000000000
         C            3.588899621527    -0.228293209607     0.223617945524    12.000000000000
         C           -3.474033378473     1.271010790393     0.066399945524    12.000000000000
         C           -0.293178278473    -0.304344009607     0.098834945524    12.000000000000
         C            2.167552621527    -0.512169209607    -0.146176054476    12.000000000000
         C            1.093803621527    -0.025677209607     0.503570945524    12.000000000000
         C            4.325974621527     0.535379790393    -0.878966054476    12.000000000000
         H           -3.285015378473    -0.526184209607     1.235003945524     1.007825032230
         H           -1.214389678473     0.828589090393     1.652051745524     1.007825032230
         H            3.614684621527     0.347124790393     1.156208945524     1.007825032230
         H            4.115778621527    -1.171155209607     0.420283945524     1.007825032230
         H           -2.979772378473     1.742321790393    -0.786118054476     1.007825032230
         H           -4.526179378473     1.096668790393    -0.185054054476     1.007825032230
         H           -3.442035378473     1.955192790393     0.919075945524     1.007825032230
         H           -0.445471378473    -0.926235209607    -0.755004054476     1.007825032230
         H            2.007874621527    -1.143054209607    -1.023040054476     1.007825032230
         H            1.248672621527     0.607628790393     1.379501945524     1.007825032230
         H            4.315816621527    -0.028119209607    -1.816376054476     1.007825032230
         H            5.369470621527     0.716109790393    -0.605280054476     1.007825032230
         H            3.845811621527     1.500044790393    -1.061976054476     1.007825032230
         H           -3.716045378473    -1.058174209607    -0.977838054476     1.007825032230

  Basis Set: AUG-CC-PVTZ
    Blend: AUG-CC-PVTZ
  Basis Set: (AUG-CC-PVTZ AUX)
    Blend: AUG-CC-PVTZ-JKFIT
	 Reference Energy          =    -386.0622733274796019 [Eh]
	 Singles Energy            =      -0.0000000000000000 [Eh]
	 Same-Spin Energy          =      -0.4000823561455915 [Eh]
	 Opposite-Spin Energy      =      -1.3780912573812050 [Eh]
	 Correlation Energy        =      -1.7781736135267965 [Eh]
	 Total Energy              =    -387.8404469410064053 [Eh]

	 ================> DF-SCS-MP2 Energies <==================
	-----------------------------------------------------------
	 SCS Same-Spin Scale       =       0.3333333333333333 [-]
	 SCS Opposite-Spin Scale   =       1.2000000000000000 [-]
	 SCS Same-Spin Energy      =      -0.1333607853818638 [Eh]
	 SCS Opposite-Spin Energy  =      -1.6537095088574458 [Eh]
	 SCS Correlation Energy    =      -1.7870702942393097 [Eh]
	 SCS Total Energy          =    -387.8493436217189014 [Eh]
	-----------------------------------------------------------

  Dipole Moment: [D]
     X:    -1.1744      Y:     0.6416      Z:     0.5824     Total:     1.4595

*** Psi4 exiting successfully. Buy a developer a beer!
