                               Psi4 1.3.2 release

  ==> Input File <==

--------------------------------------------------------------------------
#psi4
#
memory 32 gb

molecule  {
0 1
  O       -2.7848290    -0.9154220    -0.7447340
  C       -2.7698910    -0.0438090     0.3861860
  C       -1.3446020     0.1937550     0.7721520
  C        3.5873700    -0.2293000     0.2222030
  C       -3.4755630     1.2700040     0.0649850
  C       -0.2802220    -0.2946410     0.1124460
  C        2.1660230    -0.5131760    -0.1475910
  C        1.0922740    -0.0266840     0.5021560
  C        4.3244450     0.5343730    -0.8803810
  H       -3.2865450    -0.5271910     1.2335890
  H       -1.1970340     0.8260370     1.6487790
  H        3.6131550     0.3461180     1.1547940
  H        4.1142490    -1.1721620     0.4188690
  H       -2.9813020     1.7413150    -0.7875330
  H       -4.5277090     1.0956620    -0.1864690
  H       -3.4435650     1.9541860     0.9176610
  H       -0.4623353    -0.9854056    -0.8363055
  H        2.0063450    -1.1440610    -1.0244550
  H        1.2471430     0.6066220     1.3780870
  H        4.3142870    -0.0291260    -1.8177910
  H        5.3679410     0.7151030    -0.6066950
  H        3.8442820     1.4990380    -1.0633910
  H       -3.7175750    -1.0591810    -0.9792530
units angstrom
no_reorient  #important for SAPT in psi4, default
symmetry c1  #important for SAPT in psi4, default
}

set PROPERTIES_ORIGIN ["COM"]
properties('MP2/aug-cc-pvtz', properties = ['dipole'])
--------------------------------------------------------------------------

    Molecular point group: c1
  Charge       = 0
  Multiplicity = 1
  Basis Set: AUG-CC-PVTZ
    Blend: AUG-CC-PVTZ
  Basis Set: (AUG-CC-PVTZ AUX)
    Blend: AUG-CC-PVTZ-JKFIT

    Orbital Energies [Eh]
    ---------------------

    Doubly Occupied:

       1A    -20.558459     2A    -11.286545     3A    -11.233234
       4A    -11.226166     5A    -11.223793     6A    -11.223260
       7A    -11.223105     8A    -11.220605     9A    -11.212948
      10A     -1.360572    11A     -1.096710    12A     -1.060980
      13A     -1.015419    14A     -0.962157    15A     -0.876059
      16A     -0.828186    17A     -0.752699    18A     -0.738659
      19A     -0.694656    20A     -0.633056    21A     -0.627227
      22A     -0.616662    23A     -0.589474    24A     -0.582531
      25A     -0.545970    26A     -0.542153    27A     -0.527455
      28A     -0.518444    29A     -0.495805    30A     -0.487706
      31A     -0.479201    32A     -0.466415    33A     -0.452801
      34A     -0.418544    35A     -0.297706

  @DF-RHF Final Energy:  -386.05509744204033

   => Energetics <=

    Nuclear Repulsion Energy =            417.8511701185673815
    One-Electron Energy =               -1351.6618070986742168
    Two-Electron Energy =                 547.7555395380665004
    Total Energy =                       -386.0550974420403918
  Basis Set: (AUG-CC-PVTZ AUX)
    Blend: AUG-CC-PVTZ-RI
    Molecular point group: c1

    Geometry (in Angstrom), charge = 0, multiplicity = 1:

       Center              X                  Y                   Z               Mass
    ------------   -----------------  -----------------  -----------------  -----------------
         O           -2.784706224666    -0.914957152954    -0.744095617369    15.994914619570
         C           -2.769768224666    -0.043344152954     0.386824382631    12.000000000000
         C           -1.344479224666     0.194219847046     0.772790382631    12.000000000000
         C            3.587492775334    -0.228835152954     0.222841382631    12.000000000000
         C           -3.475440224666     1.270468847046     0.065623382631    12.000000000000
         C           -0.280099224666    -0.294176152954     0.113084382631    12.000000000000
         C            2.166145775334    -0.512711152954    -0.146952617369    12.000000000000
         C            1.092396775334    -0.026219152954     0.502794382631    12.000000000000
         C            4.324567775334     0.534837847046    -0.879742617369    12.000000000000
         H           -3.286422224666    -0.526726152954     1.234227382631     1.007825032230
         H           -1.196911224666     0.826501847046     1.649417382631     1.007825032230
         H            3.613277775334     0.346582847046     1.155432382631     1.007825032230
         H            4.114371775334    -1.171697152954     0.419507382631     1.007825032230
         H           -2.981179224666     1.741779847046    -0.786894617369     1.007825032230
         H           -4.527586224666     1.096126847046    -0.185830617369     1.007825032230
         H           -3.443442224666     1.954650847046     0.918299382631     1.007825032230
         H           -0.462212524666    -0.984940752954    -0.835667117369     1.007825032230
         H            2.006467775334    -1.143596152954    -1.023816617369     1.007825032230
         H            1.247265775334     0.607086847046     1.378725382631     1.007825032230
         H            4.314409775334    -0.028661152954    -1.817152617369     1.007825032230
         H            5.368063775334     0.715567847046    -0.606056617369     1.007825032230
         H            3.844404775334     1.499502847046    -1.062752617369     1.007825032230
         H           -3.717452224666    -1.058716152954    -0.978614617369     1.007825032230

  Basis Set: AUG-CC-PVTZ
    Blend: AUG-CC-PVTZ
  Basis Set: (AUG-CC-PVTZ AUX)
    Blend: AUG-CC-PVTZ-JKFIT
	 Reference Energy          =    -386.0550974420403350 [Eh]
	 Singles Energy            =      -0.0000000000000000 [Eh]
	 Same-Spin Energy          =      -0.4007417066852857 [Eh]
	 Opposite-Spin Energy      =      -1.3793218351855066 [Eh]
	 Correlation Energy        =      -1.7800635418707924 [Eh]
	 Total Energy              =    -387.8351609839111234 [Eh]

	 ================> DF-SCS-MP2 Energies <==================
	-----------------------------------------------------------
	 SCS Same-Spin Scale       =       0.3333333333333333 [-]
	 SCS Opposite-Spin Scale   =       1.2000000000000000 [-]
	 SCS Same-Spin Energy      =      -0.1335805688950952 [Eh]
	 SCS Opposite-Spin Energy  =      -1.6551862022226078 [Eh]
	 SCS Correlation Energy    =      -1.7887667711177031 [Eh]
	 SCS Total Energy          =    -387.8438642131580423 [Eh]
	-----------------------------------------------------------

  Dipole Moment: [D]
     X:    -1.1560      Y:     0.6502      Z:     0.5873     Total:     1.4505

*** Psi4 exiting successfully. Buy a developer a beer!
