                               Psi4 1.4a3.dev225

  ==> Input File <==

--------------------------------------------------------------------------
#psi4
#
memory 32 gb

molecule  {
0 1
  O       -2.7624640     1.3159430     0.2248240
  C       -2.8209640    -0.0168770    -0.2887760
  C       -1.4198970    -0.4865040    -0.5315690
  C        3.5469730    -0.0618850    -0.4287090
  C       -3.5485140    -0.9406360     0.6857820
  C       -0.3124200     0.2274490    -0.2577540
  C        2.1505970     0.4383770    -0.2221580
  C        1.0342680    -0.2689350    -0.4861660
  C        4.3265940    -0.1505530     0.8872490
  H       -3.3622360    -0.0200820    -1.2509840
  H       -1.3293920    -1.4912640    -0.9473420
  H        3.5121556    -1.0920529    -0.9306921
  H        4.0812660     0.6062640    -1.1173180
  H       -3.0279280    -0.9272120     1.6463760
  H       -4.5820380    -0.6089360     0.8383050
  H       -3.5770120    -1.9680220     0.3103630
  H       -0.4219900     1.2292040     0.1523950
  H        2.0485920     1.4434520     0.1930580
  H        1.1311650    -1.2755230    -0.8987060
  H        4.3778580     0.8269450     1.3761990
  H        5.3504770    -0.4972710     0.7173650
  H        3.8373540    -0.8453320     1.5752720
  H       -3.6799020     1.6047450     0.3678300
units angstrom
no_reorient  #important for SAPT in psi4, default
symmetry c1  #important for SAPT in psi4, default
}

set PROPERTIES_ORIGIN ["COM"]
properties('MP2/aug-cc-pvtz', properties = ['dipole'])
--------------------------------------------------------------------------

    Molecular point group: c1
  Charge       = 0
  Multiplicity = 1
  Basis Set: AUG-CC-PVTZ
    Blend: AUG-CC-PVTZ
  Basis Set: (AUG-CC-PVTZ AUX)
    Blend: AUG-CC-PVTZ-JKFIT

    Orbital Energies [Eh]
    ---------------------

    Doubly Occupied:

       1A    -20.558896     2A    -11.287125     3A    -11.229881
       4A    -11.226808     5A    -11.224443     6A    -11.223857
       7A    -11.222571     8A    -11.221035     9A    -11.213732
      10A     -1.360220    11A     -1.096784    12A     -1.059969
      13A     -1.015232    14A     -0.962176    15A     -0.876150
      16A     -0.826872    17A     -0.750166    18A     -0.747962
      19A     -0.694890    20A     -0.635627    21A     -0.627120
      22A     -0.616207    23A     -0.589458    24A     -0.582069
      25A     -0.546556    26A     -0.543517    27A     -0.527368
      28A     -0.518888    29A     -0.500918    30A     -0.492344
      31A     -0.473974    32A     -0.468112    33A     -0.452918
      34A     -0.418026    35A     -0.297512

  @DF-RHF Final Energy:  -386.06020253851136

   => Energetics <=

    Nuclear Repulsion Energy =            417.5426782108023076
    One-Electron Energy =               -1351.0269935315482144
    Two-Electron Energy =                 547.4241127822346016
    Total Energy =                       -386.0602025385113620
  Basis Set: (AUG-CC-PVTZ AUX)
    Blend: AUG-CC-PVTZ-RI
    Molecular point group: c1

    Geometry (in Angstrom), charge = 0, multiplicity = 1:

       Center              X                  Y                   Z               Mass
    ------------   -----------------  -----------------  -----------------  -----------------
         O           -2.728260152939     1.292986240372     0.241168774175    15.994914619570
         C           -2.786760152939    -0.039833759628    -0.272431225825    12.000000000000
         C           -1.385693152939    -0.509460759628    -0.515224225825    12.000000000000
         C            3.581176847061    -0.084841759628    -0.412364225825    12.000000000000
         C           -3.514310152939    -0.963592759628     0.702126774175    12.000000000000
         C           -0.278216152939     0.204492240372    -0.241409225825    12.000000000000
         C            2.184800847061     0.415420240372    -0.205813225825    12.000000000000
         C            1.068471847061    -0.291891759628    -0.469821225825    12.000000000000
         C            4.360797847061    -0.173509759628     0.903593774175    12.000000000000
         H           -3.328032152939    -0.043038759628    -1.234639225825     1.007825032230
         H           -1.295188152939    -1.514220759628    -0.930997225825     1.007825032230
         H            3.546359447061    -1.115009659628    -0.914347325825     1.007825032230
         H            4.115469847061     0.583307240372    -1.100973225825     1.007825032230
         H           -2.993724152939    -0.950168759628     1.662720774175     1.007825032230
         H           -4.547834152939    -0.631892759628     0.854649774175     1.007825032230
         H           -3.542808152939    -1.990978759628     0.326707774175     1.007825032230
         H           -0.387786152939     1.206247240372     0.168739774175     1.007825032230
         H            2.082795847061     1.420495240372     0.209402774175     1.007825032230
         H            1.165368847061    -1.298479759628    -0.882361225825     1.007825032230
         H            4.412061847061     0.803988240372     1.392543774175     1.007825032230
         H            5.384680847061    -0.520227759628     0.733709774175     1.007825032230
         H            3.871557847061    -0.868288759628     1.591616774175     1.007825032230
         H           -3.645698152939     1.581788240372     0.384174774175     1.007825032230

  Basis Set: AUG-CC-PVTZ
    Blend: AUG-CC-PVTZ
  Basis Set: (AUG-CC-PVTZ AUX)
    Blend: AUG-CC-PVTZ-JKFIT
	 Reference Energy          =    -386.0602025385113620 [Eh]
	 Singles Energy            =      -0.0000000000000000 [Eh]
	 Same-Spin Energy          =      -0.4003036728423117 [Eh]
	 Opposite-Spin Energy      =      -1.3787951072999360 [Eh]
	 Correlation Energy        =      -1.7790987801422478 [Eh]
	 Total Energy              =    -387.8393013186536109 [Eh]

	 ================> DF-SCS-MP2 Energies <==================
	-----------------------------------------------------------
	 SCS Same-Spin Scale       =       0.3333333333333333 [-]
	 SCS Opposite-Spin Scale   =       1.2000000000000000 [-]
	 SCS Same-Spin Energy      =      -0.1334345576141039 [Eh]
	 SCS Opposite-Spin Energy  =      -1.6545541287599232 [Eh]
	 SCS Correlation Energy    =      -1.7879886863740271 [Eh]
	 SCS Total Energy          =    -387.8481912248853973 [Eh]
	-----------------------------------------------------------

  Dipole Moment: [D]
     X:    -1.2079      Y:    -0.7661      Z:    -0.1214     Total:     1.4355

*** Psi4 exiting successfully. Buy a developer a beer!
