                               Psi4 1.4a3.dev225

  ==> Input File <==

--------------------------------------------------------------------------
#psi4
#
memory 32 gb

molecule  {
0 1
  O       -2.7624640     1.3159430     0.2248240
  C       -2.8209640    -0.0168770    -0.2887760
  C       -1.4198970    -0.4865040    -0.5315690
  C        3.5469730    -0.0618850    -0.4287090
  C       -3.5485140    -0.9406360     0.6857820
  C       -0.3124200     0.2274490    -0.2577540
  C        2.1505970     0.4383770    -0.2221580
  C        1.0342680    -0.2689350    -0.4861660
  C        4.3265940    -0.1505530     0.8872490
  H       -3.3622360    -0.0200820    -1.2509840
  H       -1.3293920    -1.4912640    -0.9473420
  H        3.5130666    -1.0650968    -0.9175568
  H        4.0812660     0.6062640    -1.1173180
  H       -3.0279280    -0.9272120     1.6463760
  H       -4.5820380    -0.6089360     0.8383050
  H       -3.5770120    -1.9680220     0.3103630
  H       -0.4219900     1.2292040     0.1523950
  H        2.0485920     1.4434520     0.1930580
  H        1.1311650    -1.2755230    -0.8987060
  H        4.3778580     0.8269450     1.3761990
  H        5.3504770    -0.4972710     0.7173650
  H        3.8373540    -0.8453320     1.5752720
  H       -3.6799020     1.6047450     0.3678300
units angstrom
no_reorient  #important for SAPT in psi4, default
symmetry c1  #important for SAPT in psi4, default
}

set PROPERTIES_ORIGIN ["COM"]
properties('MP2/aug-cc-pvtz', properties = ['dipole'])
--------------------------------------------------------------------------

    Molecular point group: c1
  Charge       = 0
  Multiplicity = 1
  Basis Set: AUG-CC-PVTZ
    Blend: AUG-CC-PVTZ
  Basis Set: (AUG-CC-PVTZ AUX)
    Blend: AUG-CC-PVTZ-JKFIT

    Orbital Energies [Eh]
    ---------------------

    Doubly Occupied:

       1A    -20.558850     2A    -11.287073     3A    -11.226806
       4A    -11.226032     5A    -11.224362     6A    -11.223749
       7A    -11.222504     8A    -11.220994     9A    -11.213424
      10A     -1.360173    11A     -1.096951    12A     -1.060351
      13A     -1.015463    14A     -0.962119    15A     -0.876291
      16A     -0.827766    17A     -0.751482    18A     -0.747899
      19A     -0.694886    20A     -0.636349    21A     -0.627103
      22A     -0.616474    23A     -0.589770    24A     -0.582536
      25A     -0.546500    26A     -0.543416    27A     -0.527342
      28A     -0.518647    29A     -0.500872    30A     -0.492393
      31A     -0.477253    32A     -0.467962    33A     -0.452867
      34A     -0.417947    35A     -0.297406

  @DF-RHF Final Energy:  -386.06181023813326

   => Energetics <=

    Nuclear Repulsion Energy =            417.6652958797912447
    One-Electron Energy =               -1351.2701961200989444
    Two-Electron Energy =                 547.5430900021743810
    Total Energy =                       -386.0618102381332619
  Basis Set: (AUG-CC-PVTZ AUX)
    Blend: AUG-CC-PVTZ-RI
    Molecular point group: c1

    Geometry (in Angstrom), charge = 0, multiplicity = 1:

       Center              X                  Y                   Z               Mass
    ------------   -----------------  -----------------  -----------------  -----------------
         O           -2.728267433637     1.292770807616     0.241063797050    15.994914619570
         C           -2.786767433637    -0.040049192384    -0.272536202950    12.000000000000
         C           -1.385700433637    -0.509676192384    -0.515329202950    12.000000000000
         C            3.581169566363    -0.085057192384    -0.412469202950    12.000000000000
         C           -3.514317433637    -0.963808192384     0.702021797050    12.000000000000
         C           -0.278223433637     0.204276807616    -0.241514202950    12.000000000000
         C            2.184793566363     0.415204807616    -0.205918202950    12.000000000000
         C            1.068464566363    -0.292107192384    -0.469926202950    12.000000000000
         C            4.360790566363    -0.173725192384     0.903488797050    12.000000000000
         H           -3.328039433637    -0.043254192384    -1.234744202950     1.007825032230
         H           -1.295195433637    -1.514436192384    -0.931102202950     1.007825032230
         H            3.547263166363    -1.088268992384    -0.901317002950     1.007825032230
         H            4.115462566363     0.583091807616    -1.101078202950     1.007825032230
         H           -2.993731433637    -0.950384192384     1.662615797050     1.007825032230
         H           -4.547841433637    -0.632108192384     0.854544797050     1.007825032230
         H           -3.542815433637    -1.991194192384     0.326602797050     1.007825032230
         H           -0.387793433637     1.206031807616     0.168634797050     1.007825032230
         H            2.082788566363     1.420279807616     0.209297797050     1.007825032230
         H            1.165361566363    -1.298695192384    -0.882466202950     1.007825032230
         H            4.412054566363     0.803772807616     1.392438797050     1.007825032230
         H            5.384673566363    -0.520443192384     0.733604797050     1.007825032230
         H            3.871550566363    -0.868504192384     1.591511797050     1.007825032230
         H           -3.645705433637     1.581572807616     0.384069797050     1.007825032230

  Basis Set: AUG-CC-PVTZ
    Blend: AUG-CC-PVTZ
  Basis Set: (AUG-CC-PVTZ AUX)
    Blend: AUG-CC-PVTZ-JKFIT
	 Reference Energy          =    -386.0618102381332619 [Eh]
	 Singles Energy            =      -0.0000000000000000 [Eh]
	 Same-Spin Energy          =      -0.4002826550569633 [Eh]
	 Opposite-Spin Energy      =      -1.3785527676125091 [Eh]
	 Correlation Energy        =      -1.7788354226694723 [Eh]
	 Total Energy              =    -387.8406456608027497 [Eh]

	 ================> DF-SCS-MP2 Energies <==================
	-----------------------------------------------------------
	 SCS Same-Spin Scale       =       0.3333333333333333 [-]
	 SCS Opposite-Spin Scale   =       1.2000000000000000 [-]
	 SCS Same-Spin Energy      =      -0.1334275516856544 [Eh]
	 SCS Opposite-Spin Energy  =      -1.6542633211350108 [Eh]
	 SCS Correlation Energy    =      -1.7876908728206653 [Eh]
	 SCS Total Energy          =    -387.8495011109539519 [Eh]
	-----------------------------------------------------------

  Dipole Moment: [D]
     X:    -1.2027      Y:    -0.7836      Z:    -0.1350     Total:     1.4418

*** Psi4 exiting successfully. Buy a developer a beer!
