                               Psi4 1.3.2 release

  ==> Input File <==

--------------------------------------------------------------------------
#psi4
#
memory 32 gb

molecule  {
0 1
  O       -2.7848290    -0.9154220    -0.7447340
  C       -2.7698910    -0.0438090     0.3861860
  C       -1.3446020     0.1937550     0.7721520
  C        3.5873700    -0.2293000     0.2222030
  C       -3.4755630     1.2700040     0.0649850
  C       -0.2802220    -0.2946410     0.1124460
  C        2.0710035    -0.5321536    -0.1723124
  C        1.0922740    -0.0266840     0.5021560
  C        4.3244450     0.5343730    -0.8803810
  H       -3.2865450    -0.5271910     1.2335890
  H       -1.1970340     0.8260370     1.6487790
  H        3.6131550     0.3461180     1.1547940
  H        4.1142490    -1.1721620     0.4188690
  H       -2.9813020     1.7413150    -0.7875330
  H       -4.5277090     1.0956620    -0.1864690
  H       -3.4435650     1.9541860     0.9176610
  H       -0.4470010    -0.9272420    -0.7564190
  H        2.0063450    -1.1440610    -1.0244550
  H        1.2471430     0.6066220     1.3780870
  H        4.3142870    -0.0291260    -1.8177910
  H        5.3679410     0.7151030    -0.6066950
  H        3.8442820     1.4990380    -1.0633910
  H       -3.7175750    -1.0591810    -0.9792530
units angstrom
no_reorient  #important for SAPT in psi4, default
symmetry c1  #important for SAPT in psi4, default
}

set PROPERTIES_ORIGIN ["COM"]
properties('MP2/aug-cc-pvtz', properties = ['dipole'])
--------------------------------------------------------------------------

    Molecular point group: c1
  Charge       = 0
  Multiplicity = 1
  Basis Set: AUG-CC-PVTZ
    Blend: AUG-CC-PVTZ
  Basis Set: (AUG-CC-PVTZ AUX)
    Blend: AUG-CC-PVTZ-JKFIT

    Orbital Energies [Eh]
    ---------------------

    Doubly Occupied:

       1A    -20.558355     2A    -11.285719     3A    -11.225764
       4A    -11.221669     5A    -11.220199     6A    -11.220050
       7A    -11.219563     8A    -11.216569     9A    -11.211392
      10A     -1.360347    11A     -1.101179    12A     -1.055484
      13A     -1.014378    14A     -0.967053    15A     -0.870580
      16A     -0.825133    17A     -0.758312    18A     -0.747848
      19A     -0.696026    20A     -0.639536    21A     -0.623662
      22A     -0.616638    23A     -0.587784    24A     -0.583358
      25A     -0.550920    26A     -0.545184    27A     -0.532182
      28A     -0.512928    29A     -0.500447    30A     -0.489472
      31A     -0.480877    32A     -0.453368    33A     -0.446740
      34A     -0.425852    35A     -0.305066

  @DF-RHF Final Energy:  -386.05485833649709

   => Energetics <=

    Nuclear Repulsion Energy =            418.4693909311542939
    One-Electron Energy =               -1352.9092369039826735
    Two-Electron Energy =                 548.3849876363312887
    Total Energy =                       -386.0548583364970909
  Basis Set: (AUG-CC-PVTZ AUX)
    Blend: AUG-CC-PVTZ-RI
    Molecular point group: c1

    Geometry (in Angstrom), charge = 0, multiplicity = 1:

       Center              X                  Y                   Z               Mass
    ------------   -----------------  -----------------  -----------------  -----------------
         O           -2.775786796572    -0.913616102359    -0.742381600459    15.994914619570
         C           -2.760848796572    -0.042003102359     0.388538399541    12.000000000000
         C           -1.335559796572     0.195560897641     0.774504399541    12.000000000000
         C            3.596412203428    -0.227494102359     0.224555399541    12.000000000000
         C           -3.466520796572     1.271809897641     0.067337399541    12.000000000000
         C           -0.271179796572    -0.292835102359     0.114798399541    12.000000000000
         C            2.080045703428    -0.530347702359    -0.169960000459    12.000000000000
         C            1.101316203428    -0.024878102359     0.504508399541    12.000000000000
         C            4.333487203428     0.536178897641    -0.878028600459    12.000000000000
         H           -3.277502796572    -0.525385102359     1.235941399541     1.007825032230
         H           -1.187991796572     0.827842897641     1.651131399541     1.007825032230
         H            3.622197203428     0.347923897641     1.157146399541     1.007825032230
         H            4.123291203428    -1.170356102359     0.421221399541     1.007825032230
         H           -2.972259796572     1.743120897641    -0.785180600459     1.007825032230
         H           -4.518666796572     1.097467897641    -0.184116600459     1.007825032230
         H           -3.434522796572     1.955991897641     0.920013399541     1.007825032230
         H           -0.437958796572    -0.925436102359    -0.754066600459     1.007825032230
         H            2.015387203428    -1.142255102359    -1.022102600459     1.007825032230
         H            1.256185203428     0.608427897641     1.380439399541     1.007825032230
         H            4.323329203428    -0.027320102359    -1.815438600459     1.007825032230
         H            5.376983203428     0.716908897641    -0.604342600459     1.007825032230
         H            3.853324203428     1.500843897641    -1.061038600459     1.007825032230
         H           -3.708532796572    -1.057375102359    -0.976900600459     1.007825032230

  Basis Set: AUG-CC-PVTZ
    Blend: AUG-CC-PVTZ
  Basis Set: (AUG-CC-PVTZ AUX)
    Blend: AUG-CC-PVTZ-JKFIT
	 Reference Energy          =    -386.0548583364970909 [Eh]
	 Singles Energy            =      -0.0000000000000000 [Eh]
	 Same-Spin Energy          =      -0.3991965585798447 [Eh]
	 Opposite-Spin Energy      =      -1.3768157206791831 [Eh]
	 Correlation Energy        =      -1.7760122792590278 [Eh]
	 Total Energy              =    -387.8308706157561119 [Eh]

	 ================> DF-SCS-MP2 Energies <==================
	-----------------------------------------------------------
	 SCS Same-Spin Scale       =       0.3333333333333333 [-]
	 SCS Opposite-Spin Scale   =       1.2000000000000000 [-]
	 SCS Same-Spin Energy      =      -0.1330655195266149 [Eh]
	 SCS Opposite-Spin Energy  =      -1.6521788648150197 [Eh]
	 SCS Correlation Energy    =      -1.7852443843416346 [Eh]
	 SCS Total Energy          =    -387.8401027208387291 [Eh]
	-----------------------------------------------------------

  Dipole Moment: [D]
     X:    -1.2098      Y:     0.6274      Z:     0.5662     Total:     1.4757

*** Psi4 exiting successfully. Buy a developer a beer!
