                               Psi4 1.3.2 release

  ==> Input File <==

--------------------------------------------------------------------------
#psi4
#
memory 32 gb

molecule  {
0 1
  O       -2.7848290    -0.9154220    -0.7447340
  C       -2.7775582    -0.0289956     0.4062644
  C       -1.3446020     0.1937550     0.7721520
  C        3.5873700    -0.2293000     0.2222030
  C       -3.4755630     1.2700040     0.0649850
  C       -0.2802220    -0.2946410     0.1124460
  C        2.1660230    -0.5131760    -0.1475910
  C        1.0922740    -0.0266840     0.5021560
  C        4.3244450     0.5343730    -0.8803810
  H       -3.2865450    -0.5271910     1.2335890
  H       -1.2159144     0.8278251     1.6504608
  H        3.6131550     0.3461180     1.1547940
  H        4.1142490    -1.1721620     0.4188690
  H       -2.9813020     1.7413150    -0.7875330
  H       -4.5277090     1.0956620    -0.1864690
  H       -3.4435650     1.9541860     0.9176610
  H       -0.4470010    -0.9272420    -0.7564190
  H        2.0063450    -1.1440610    -1.0244550
  H        1.2471430     0.6066220     1.3780870
  H        4.3142870    -0.0291260    -1.8177910
  H        5.3679410     0.7151030    -0.6066950
  H        3.8442820     1.4990380    -1.0633910
  H       -3.7175750    -1.0591810    -0.9792530
units angstrom
no_reorient  #important for SAPT in psi4, default
symmetry c1  #important for SAPT in psi4, default
}

set PROPERTIES_ORIGIN ["COM"]
properties('MP2/aug-cc-pvtz', properties = ['dipole'])
--------------------------------------------------------------------------

    Molecular point group: c1
  Charge       = 0
  Multiplicity = 1
  Basis Set: AUG-CC-PVTZ
    Blend: AUG-CC-PVTZ
  Basis Set: (AUG-CC-PVTZ AUX)
    Blend: AUG-CC-PVTZ-JKFIT

    Orbital Energies [Eh]
    ---------------------

    Doubly Occupied:

       1A    -20.555573     2A    -11.285866     3A    -11.226258
       4A    -11.224360     5A    -11.223474     6A    -11.223269
       7A    -11.222445     8A    -11.221150     9A    -11.213009
      10A     -1.350835    11A     -1.098036    12A     -1.062332
      13A     -1.018186    14A     -0.963201    15A     -0.877144
      16A     -0.828976    17A     -0.752798    18A     -0.746622
      19A     -0.692978    20A     -0.635283    21A     -0.628361
      22A     -0.615331    23A     -0.589925    24A     -0.582022
      25A     -0.546360    26A     -0.545447    27A     -0.524903
      28A     -0.518996    29A     -0.499386    30A     -0.492571
      31A     -0.479373    32A     -0.468440    33A     -0.454174
      34A     -0.419615    35A     -0.298175

  @DF-RHF Final Energy:  -386.06136808594971

   => Energetics <=

    Nuclear Repulsion Energy =            418.0329847102969438
    One-Electron Energy =               -1352.0189612142605711
    Two-Electron Energy =                 547.9246084180140315
    Total Energy =                       -386.0613680859496526
  Basis Set: (AUG-CC-PVTZ AUX)
    Blend: AUG-CC-PVTZ-RI
    Molecular point group: c1

    Geometry (in Angstrom), charge = 0, multiplicity = 1:

       Center              X                  Y                   Z               Mass
    ------------   -----------------  -----------------  -----------------  -----------------
         O           -2.783948279670    -0.916845917352    -0.746658154504    15.994914619570
         C           -2.776677479670    -0.030419517352     0.404340245496    12.000000000000
         C           -1.343721279670     0.192331082648     0.770227845496    12.000000000000
         C            3.588250720330    -0.230723917352     0.220278845496    12.000000000000
         C           -3.474682279670     1.268580082648     0.063060845496    12.000000000000
         C           -0.279341279670    -0.296064917352     0.110521845496    12.000000000000
         C            2.166903720330    -0.514599917352    -0.149515154504    12.000000000000
         C            1.093154720330    -0.028107917352     0.500231845496    12.000000000000
         C            4.325325720330     0.532949082648    -0.882305154504    12.000000000000
         H           -3.285664279670    -0.528614917352     1.231664845496     1.007825032230
         H           -1.215033679670     0.826401182648     1.648536645496     1.007825032230
         H            3.614035720330     0.344694082648     1.152869845496     1.007825032230
         H            4.115129720330    -1.173585917352     0.416944845496     1.007825032230
         H           -2.980421279670     1.739891082648    -0.789457154504     1.007825032230
         H           -4.526828279670     1.094238082648    -0.188393154504     1.007825032230
         H           -3.442684279670     1.952762082648     0.915736845496     1.007825032230
         H           -0.446120279670    -0.928665917352    -0.758343154504     1.007825032230
         H            2.007225720330    -1.145484917352    -1.026379154504     1.007825032230
         H            1.248023720330     0.605198082648     1.376162845496     1.007825032230
         H            4.315167720330    -0.030549917352    -1.819715154504     1.007825032230
         H            5.368821720330     0.713679082648    -0.608619154504     1.007825032230
         H            3.845162720330     1.497614082648    -1.065315154504     1.007825032230
         H           -3.716694279670    -1.060604917352    -0.981177154504     1.007825032230

  Basis Set: AUG-CC-PVTZ
    Blend: AUG-CC-PVTZ
  Basis Set: (AUG-CC-PVTZ AUX)
    Blend: AUG-CC-PVTZ-JKFIT
	 Reference Energy          =    -386.0613680859497094 [Eh]
	 Singles Energy            =      -0.0000000000000000 [Eh]
	 Same-Spin Energy          =      -0.4004203874813442 [Eh]
	 Opposite-Spin Energy      =      -1.3788118793103221 [Eh]
	 Correlation Energy        =      -1.7792322667916665 [Eh]
	 Total Energy              =    -387.8406003527413759 [Eh]

	 ================> DF-SCS-MP2 Energies <==================
	-----------------------------------------------------------
	 SCS Same-Spin Scale       =       0.3333333333333333 [-]
	 SCS Opposite-Spin Scale   =       1.2000000000000000 [-]
	 SCS Same-Spin Energy      =      -0.1334734624937814 [Eh]
	 SCS Opposite-Spin Energy  =      -1.6545742551723865 [Eh]
	 SCS Correlation Energy    =      -1.7880477176661680 [Eh]
	 SCS Total Energy          =    -387.8494158036158979 [Eh]
	-----------------------------------------------------------

  Dipole Moment: [D]
     X:    -1.1459      Y:     0.6991      Z:     0.6342     Total:     1.4845

*** Psi4 exiting successfully. Buy a developer a beer!
