                               Psi4 1.3.2 release

  ==> Input File <==

--------------------------------------------------------------------------
#psi4
#
memory 32 gb

molecule  {
0 1
  O       -2.7848290    -0.9154220    -0.7447340
  C       -2.7737790    -0.0364111     0.3962109
  C       -1.3446020     0.1937550     0.7721520
  C        3.5873700    -0.2293000     0.2222030
  C       -3.4755630     1.2700040     0.0649850
  C       -0.2802220    -0.2946410     0.1124460
  C        2.1660230    -0.5131760    -0.1475910
  C        1.0922740    -0.0266840     0.5021560
  C        4.3244450     0.5343730    -0.8803810
  H       -3.2865450    -0.5271910     1.2335890
  H       -1.2064689     0.8269552     1.6496533
  H        3.6131550     0.3461180     1.1547940
  H        4.1142490    -1.1721620     0.4188690
  H       -2.9813020     1.7413150    -0.7875330
  H       -4.5277090     1.0956620    -0.1864690
  H       -3.4435650     1.9541860     0.9176610
  H       -0.4470010    -0.9272420    -0.7564190
  H        2.0063450    -1.1440610    -1.0244550
  H        1.2471430     0.6066220     1.3780870
  H        4.3142870    -0.0291260    -1.8177910
  H        5.3679410     0.7151030    -0.6066950
  H        3.8442820     1.4990380    -1.0633910
  H       -3.7175750    -1.0591810    -0.9792530
units angstrom
no_reorient  #important for SAPT in psi4, default
symmetry c1  #important for SAPT in psi4, default
}

set PROPERTIES_ORIGIN ["COM"]
properties('MP2/aug-cc-pvtz', properties = ['dipole'])
--------------------------------------------------------------------------

    Molecular point group: c1
  Charge       = 0
  Multiplicity = 1
  Basis Set: AUG-CC-PVTZ
    Blend: AUG-CC-PVTZ
  Basis Set: (AUG-CC-PVTZ AUX)
    Blend: AUG-CC-PVTZ-JKFIT

    Orbital Energies [Eh]
    ---------------------

    Doubly Occupied:

       1A    -20.557164     2A    -11.286131     3A    -11.226088
       4A    -11.223985     5A    -11.223357     6A    -11.223138
       7A    -11.222113     8A    -11.220888     9A    -11.212940
      10A     -1.355744    11A     -1.097921    12A     -1.061805
      13A     -1.017161    14A     -0.962839    15A     -0.876888
      16A     -0.828782    17A     -0.752606    18A     -0.747275
      19A     -0.694114    20A     -0.636221    21A     -0.627919
      22A     -0.616310    23A     -0.590090    24A     -0.582494
      25A     -0.546411    26A     -0.544409    27A     -0.526104
      28A     -0.518991    29A     -0.500111    30A     -0.492575
      31A     -0.479252    32A     -0.468223    33A     -0.453587
      34A     -0.418970    35A     -0.297827

  @DF-RHF Final Energy:  -386.06215824517903

   => Energetics <=

    Nuclear Repulsion Energy =            418.1509652813425078
    One-Electron Energy =               -1352.2453781006929603
    Two-Electron Energy =                 548.0322545741714748
    Total Energy =                       -386.0621582451790346
  Basis Set: (AUG-CC-PVTZ AUX)
    Blend: AUG-CC-PVTZ-RI
    Molecular point group: c1

    Geometry (in Angstrom), charge = 0, multiplicity = 1:

       Center              X                  Y                   Z               Mass
    ------------   -----------------  -----------------  -----------------  -----------------
         O           -2.784383393615    -0.916133312077    -0.745695017959    15.994914619570
         C           -2.773333393615    -0.037122412077     0.395249882041    12.000000000000
         C           -1.344156393615     0.193043687923     0.771190982041    12.000000000000
         C            3.587815606385    -0.230011312077     0.221241982041    12.000000000000
         C           -3.475117393615     1.269292687923     0.064023982041    12.000000000000
         C           -0.279776393615    -0.295352312077     0.111484982041    12.000000000000
         C            2.166468606385    -0.513887312077    -0.148552017959    12.000000000000
         C            1.092719606385    -0.027395312077     0.501194982041    12.000000000000
         C            4.324890606385     0.533661687923    -0.881342017959    12.000000000000
         H           -3.286099393615    -0.527902312077     1.232627982041     1.007825032230
         H           -1.206023293615     0.826243887923     1.648692282041     1.007825032230
         H            3.613600606385     0.345406687923     1.153832982041     1.007825032230
         H            4.114694606385    -1.172873312077     0.417907982041     1.007825032230
         H           -2.980856393615     1.740603687923    -0.788494017959     1.007825032230
         H           -4.527263393615     1.094950687923    -0.187430017959     1.007825032230
         H           -3.443119393615     1.953474687923     0.916699982041     1.007825032230
         H           -0.446555393615    -0.927953312077    -0.757380017959     1.007825032230
         H            2.006790606385    -1.144772312077    -1.025416017959     1.007825032230
         H            1.247588606385     0.605910687923     1.377125982041     1.007825032230
         H            4.314732606385    -0.029837312077    -1.818752017959     1.007825032230
         H            5.368386606385     0.714391687923    -0.607656017959     1.007825032230
         H            3.844727606385     1.498326687923    -1.064352017959     1.007825032230
         H           -3.717129393615    -1.059892312077    -0.980214017959     1.007825032230

  Basis Set: AUG-CC-PVTZ
    Blend: AUG-CC-PVTZ
  Basis Set: (AUG-CC-PVTZ AUX)
    Blend: AUG-CC-PVTZ-JKFIT
	 Reference Energy          =    -386.0621582451790346 [Eh]
	 Singles Energy            =      -0.0000000000000000 [Eh]
	 Same-Spin Energy          =      -0.4003776429893662 [Eh]
	 Opposite-Spin Energy      =      -1.3785475859008580 [Eh]
	 Correlation Energy        =      -1.7789252288902242 [Eh]
	 Total Energy              =    -387.8410834740692508 [Eh]

	 ================> DF-SCS-MP2 Energies <==================
	-----------------------------------------------------------
	 SCS Same-Spin Scale       =       0.3333333333333333 [-]
	 SCS Opposite-Spin Scale   =       1.2000000000000000 [-]
	 SCS Same-Spin Energy      =      -0.1334592143297887 [Eh]
	 SCS Opposite-Spin Energy  =      -1.6542571030810296 [Eh]
	 SCS Correlation Energy    =      -1.7877163174108184 [Eh]
	 SCS Total Energy          =    -387.8498745625898323 [Eh]
	-----------------------------------------------------------

  Dipole Moment: [D]
     X:    -1.1531      Y:     0.6707      Z:     0.6062     Total:     1.4653

*** Psi4 exiting successfully. Buy a developer a beer!
