                               Psi4 1.3.2 release

  ==> Input File <==

--------------------------------------------------------------------------
#psi4
#
memory 32 gb

molecule  {
0 1
  O       -2.7848290    -0.9154220    -0.7447340
  C       -2.7698910    -0.0438090     0.3861860
  C       -1.3446020     0.1937550     0.7721520
  C        3.5873700    -0.2293000     0.2222030
  C       -3.4755630     1.2700040     0.0649850
  C       -0.2535998    -0.3367889     0.0550779
  C        2.1220761    -0.5452932    -0.1923473
  C        1.0922740    -0.0266840     0.5021560
  C        4.3244450     0.5343730    -0.8803810
  H       -3.2865450    -0.5271910     1.2335890
  H       -1.1970340     0.8260370     1.6487790
  H        3.6131550     0.3461180     1.1547940
  H        4.1142490    -1.1721620     0.4188690
  H       -2.9813020     1.7413150    -0.7875330
  H       -4.5277090     1.0956620    -0.1864690
  H       -3.4435650     1.9541860     0.9176610
  H       -0.4470010    -0.9272420    -0.7564190
  H        2.0063450    -1.1440610    -1.0244550
  H        1.2471430     0.6066220     1.3780870
  H        4.3142870    -0.0291260    -1.8177910
  H        5.3679410     0.7151030    -0.6066950
  H        3.8442820     1.4990380    -1.0633910
  H       -3.7175750    -1.0591810    -0.9792530
units angstrom
no_reorient  #important for SAPT in psi4, default
symmetry c1  #important for SAPT in psi4, default
}

set PROPERTIES_ORIGIN ["COM"]
properties('MP2/aug-cc-pvtz', properties = ['dipole'])
--------------------------------------------------------------------------

    Molecular point group: c1
  Charge       = 0
  Multiplicity = 1
  Basis Set: AUG-CC-PVTZ
    Blend: AUG-CC-PVTZ
  Basis Set: (AUG-CC-PVTZ AUX)
    Blend: AUG-CC-PVTZ-JKFIT

    Orbital Energies [Eh]
    ---------------------

    Doubly Occupied:

       1A    -20.558498     2A    -11.285112     3A    -11.229780
       4A    -11.226278     5A    -11.225361     6A    -11.224231
       7A    -11.221785     8A    -11.219858     9A    -11.211170
      10A     -1.360370    11A     -1.093864    12A     -1.052839
      13A     -1.014466    14A     -0.956542    15A     -0.873663
      16A     -0.822332    17A     -0.764969    18A     -0.753842
      19A     -0.695520    20A     -0.641170    21A     -0.619957
      22A     -0.615330    23A     -0.590387    24A     -0.577088
      25A     -0.551694    26A     -0.545474    27A     -0.531719
      28A     -0.518012    29A     -0.509804    30A     -0.488932
      31A     -0.483270    32A     -0.455983    33A     -0.450803
      34A     -0.415761    35A     -0.287864

  @DF-RHF Final Energy:  -386.04608515111755

   => Energetics <=

    Nuclear Repulsion Energy =            417.4622984800117820
    One-Electron Energy =               -1350.8693114282198167
    Two-Electron Energy =                 547.3609277970904259
    Total Energy =                       -386.0460851511176088
  Basis Set: (AUG-CC-PVTZ AUX)
    Blend: AUG-CC-PVTZ-RI
    Molecular point group: c1

    Geometry (in Angstrom), charge = 0, multiplicity = 1:

       Center              X                  Y                   Z               Mass
    ------------   -----------------  -----------------  -----------------  -----------------
         O           -2.783180171576    -0.908354988094    -0.735015992909    15.994914619570
         C           -2.768242171576    -0.036741988094     0.395904007091    12.000000000000
         C           -1.342953171576     0.200822011906     0.781870007091    12.000000000000
         C            3.589018828424    -0.222232988094     0.231921007091    12.000000000000
         C           -3.473914171576     1.277071011906     0.074703007091    12.000000000000
         C           -0.251950971576    -0.329721888094     0.064795907091    12.000000000000
         C            2.123724928424    -0.538226188094    -0.182629292909    12.000000000000
         C            1.093922828424    -0.019616988094     0.511874007091    12.000000000000
         C            4.326093828424     0.541440011906    -0.870662992909    12.000000000000
         H           -3.284896171576    -0.520123988094     1.243307007091     1.007825032230
         H           -1.195385171576     0.833104011906     1.658497007091     1.007825032230
         H            3.614803828424     0.353185011906     1.164512007091     1.007825032230
         H            4.115897828424    -1.165094988094     0.428587007091     1.007825032230
         H           -2.979653171576     1.748382011906    -0.777814992909     1.007825032230
         H           -4.526060171576     1.102729011906    -0.176750992909     1.007825032230
         H           -3.441916171576     1.961253011906     0.927379007091     1.007825032230
         H           -0.445352171576    -0.920174988094    -0.746700992909     1.007825032230
         H            2.007993828424    -1.136993988094    -1.014736992909     1.007825032230
         H            1.248791828424     0.613689011906     1.387805007091     1.007825032230
         H            4.315935828424    -0.022058988094    -1.808072992909     1.007825032230
         H            5.369589828424     0.722170011906    -0.596976992909     1.007825032230
         H            3.845930828424     1.506105011906    -1.053672992909     1.007825032230
         H           -3.715926171576    -1.052113988094    -0.969534992909     1.007825032230

  Basis Set: AUG-CC-PVTZ
    Blend: AUG-CC-PVTZ
  Basis Set: (AUG-CC-PVTZ AUX)
    Blend: AUG-CC-PVTZ-JKFIT
	 Reference Energy          =    -386.0460851511175520 [Eh]
	 Singles Energy            =      -0.0000000000000000 [Eh]
	 Same-Spin Energy          =      -0.4007284263113948 [Eh]
	 Opposite-Spin Energy      =      -1.3801111874231471 [Eh]
	 Correlation Energy        =      -1.7808396137345419 [Eh]
	 Total Energy              =    -387.8269247648520945 [Eh]

	 ================> DF-SCS-MP2 Energies <==================
	-----------------------------------------------------------
	 SCS Same-Spin Scale       =       0.3333333333333333 [-]
	 SCS Opposite-Spin Scale   =       1.2000000000000000 [-]
	 SCS Same-Spin Energy      =      -0.1335761421037983 [Eh]
	 SCS Opposite-Spin Energy  =      -1.6561334249077764 [Eh]
	 SCS Correlation Energy    =      -1.7897095670115746 [Eh]
	 SCS Total Energy          =    -387.8357947181291365 [Eh]
	-----------------------------------------------------------

  Dipole Moment: [D]
     X:    -1.1976      Y:     0.6216      Z:     0.5769     Total:     1.4675

*** Psi4 exiting successfully. Buy a developer a beer!
