                               Psi4 1.3.2 release

  ==> Input File <==

--------------------------------------------------------------------------
#psi4
#
memory 32 gb

molecule  {
0 1
  O       -2.7910661    -0.9238928    -0.7380545
  C       -2.7698910    -0.0438090     0.3861860
  C       -1.3446020     0.1937550     0.7721520
  C        3.5873700    -0.2293000     0.2222030
  C       -3.4755630     1.2700040     0.0649850
  C       -0.2802220    -0.2946410     0.1124460
  C        2.1660230    -0.5131760    -0.1475910
  C        1.0922740    -0.0266840     0.5021560
  C        4.3244450     0.5343730    -0.8803810
  H       -3.2882396    -0.5349193     1.2280927
  H       -1.1970340     0.8260370     1.6487790
  H        3.6131550     0.3461180     1.1547940
  H        4.1142490    -1.1721620     0.4188690
  H       -2.9813020     1.7413150    -0.7875330
  H       -4.5277090     1.0956620    -0.1864690
  H       -3.4435650     1.9541860     0.9176610
  H       -0.4470010    -0.9272420    -0.7564190
  H        2.0063450    -1.1440610    -1.0244550
  H        1.2471430     0.6066220     1.3780870
  H        4.3142870    -0.0291260    -1.8177910
  H        5.3679410     0.7151030    -0.6066950
  H        3.8442820     1.4990380    -1.0633910
  H       -3.7175750    -1.0591810    -0.9792530
units angstrom
no_reorient  #important for SAPT in psi4, default
symmetry c1  #important for SAPT in psi4, default
}

set PROPERTIES_ORIGIN ["COM"]
properties('MP2/aug-cc-pvtz', properties = ['dipole'])
--------------------------------------------------------------------------

    Molecular point group: c1
  Charge       = 0
  Multiplicity = 1
  Basis Set: AUG-CC-PVTZ
    Blend: AUG-CC-PVTZ
  Basis Set: (AUG-CC-PVTZ AUX)
    Blend: AUG-CC-PVTZ-JKFIT

    Orbital Energies [Eh]
    ---------------------

    Doubly Occupied:

       1A    -20.557665     2A    -11.286456     3A    -11.226030
       4A    -11.223820     5A    -11.223328     6A    -11.223109
       7A    -11.221954     8A    -11.220904     9A    -11.212934
      10A     -1.361465    11A     -1.097966    12A     -1.061512
      13A     -1.016238    14A     -0.962553    15A     -0.876861
      16A     -0.828898    17A     -0.752660    18A     -0.748588
      19A     -0.694969    20A     -0.637407    21A     -0.627568
      22A     -0.618036    23A     -0.590575    24A     -0.583146
      25A     -0.546539    26A     -0.543589    27A     -0.527333
      28A     -0.519066    29A     -0.500934    30A     -0.492283
      31A     -0.479195    32A     -0.468099    33A     -0.452653
      34A     -0.418326    35A     -0.297598

  @DF-RHF Final Energy:  -386.06301930284224

   => Energetics <=

    Nuclear Repulsion Energy =            418.2131781424357655
    One-Electron Energy =               -1352.3518816886673903
    Two-Electron Energy =                 548.0756842433894462
    Total Energy =                       -386.0630193028422354
  Basis Set: (AUG-CC-PVTZ AUX)
    Blend: AUG-CC-PVTZ-RI
    Molecular point group: c1

    Geometry (in Angstrom), charge = 0, multiplicity = 1:

       Center              X                  Y                   Z               Mass
    ------------   -----------------  -----------------  -----------------  -----------------
         O           -2.790261227876    -0.922756606663    -0.738857861227    15.994914619570
         C           -2.769086127876    -0.042672806663     0.385382638773    12.000000000000
         C           -1.343797127876     0.194891193337     0.771348638773    12.000000000000
         C            3.588174872124    -0.228163806663     0.221399638773    12.000000000000
         C           -3.474758127876     1.271140193337     0.064181638773    12.000000000000
         C           -0.279417127876    -0.293504806663     0.111642638773    12.000000000000
         C            2.166827872124    -0.512039806663    -0.148394361227    12.000000000000
         C            1.093078872124    -0.025547806663     0.501352638773    12.000000000000
         C            4.325249872124     0.535509193337    -0.881184361227    12.000000000000
         H           -3.287434727876    -0.533783106663     1.227289338773     1.007825032230
         H           -1.196229127876     0.827173193337     1.647975638773     1.007825032230
         H            3.613959872124     0.347254193337     1.153990638773     1.007825032230
         H            4.115053872124    -1.171025806663     0.418065638773     1.007825032230
         H           -2.980497127876     1.742451193337    -0.788336361227     1.007825032230
         H           -4.526904127876     1.096798193337    -0.187272361227     1.007825032230
         H           -3.442760127876     1.955322193337     0.916857638773     1.007825032230
         H           -0.446196127876    -0.926105806663    -0.757222361227     1.007825032230
         H            2.007149872124    -1.142924806663    -1.025258361227     1.007825032230
         H            1.247947872124     0.607758193337     1.377283638773     1.007825032230
         H            4.315091872124    -0.027989806663    -1.818594361227     1.007825032230
         H            5.368745872124     0.716239193337    -0.607498361227     1.007825032230
         H            3.845086872124     1.500174193337    -1.064194361227     1.007825032230
         H           -3.716770127876    -1.058044806663    -0.980056361227     1.007825032230

  Basis Set: AUG-CC-PVTZ
    Blend: AUG-CC-PVTZ
  Basis Set: (AUG-CC-PVTZ AUX)
    Blend: AUG-CC-PVTZ-JKFIT
	 Reference Energy          =    -386.0630193028422354 [Eh]
	 Singles Energy            =      -0.0000000000000000 [Eh]
	 Same-Spin Energy          =      -0.4002351028583722 [Eh]
	 Opposite-Spin Energy      =      -1.3780647015010654 [Eh]
	 Correlation Energy        =      -1.7782998043594376 [Eh]
	 Total Energy              =    -387.8413191072016843 [Eh]

	 ================> DF-SCS-MP2 Energies <==================
	-----------------------------------------------------------
	 SCS Same-Spin Scale       =       0.3333333333333333 [-]
	 SCS Opposite-Spin Scale   =       1.2000000000000000 [-]
	 SCS Same-Spin Energy      =      -0.1334117009527907 [Eh]
	 SCS Opposite-Spin Energy  =      -1.6536776418012784 [Eh]
	 SCS Correlation Energy    =      -1.7870893427540691 [Eh]
	 SCS Total Energy          =    -387.8501086455963218 [Eh]
	-----------------------------------------------------------

  Dipole Moment: [D]
     X:    -1.1463      Y:     0.6660      Z:     0.5665     Total:     1.4417

*** Psi4 exiting successfully. Buy a developer a beer!
