                               Psi4 1.3.2 release

  ==> Input File <==

--------------------------------------------------------------------------
#psi4
#
memory 32 gb

molecule  {
0 1
  O       -2.7848290    -0.9154220    -0.7447340
  C       -2.7688449     0.0172324     0.4653874
  C       -1.3446020     0.1937550     0.7721520
  C        3.5873700    -0.2293000     0.2222030
  C       -3.4755630     1.2700040     0.0649850
  C       -0.2802220    -0.2946410     0.1124460
  C        2.1660230    -0.5131760    -0.1475910
  C        1.0922740    -0.0266840     0.5021560
  C        4.3244450     0.5343730    -0.8803810
  H       -3.2865450    -0.5271910     1.2335890
  H       -1.1970340     0.8260370     1.6487790
  H        3.6131550     0.3461180     1.1547940
  H        4.1142490    -1.1721620     0.4188690
  H       -2.9813020     1.7413150    -0.7875330
  H       -4.5277090     1.0956620    -0.1864690
  H       -3.4435650     1.9541860     0.9176610
  H       -0.4470010    -0.9272420    -0.7564190
  H        2.0063450    -1.1440610    -1.0244550
  H        1.2471430     0.6066220     1.3780870
  H        4.3142870    -0.0291260    -1.8177910
  H        5.3679410     0.7151030    -0.6066950
  H        3.8442820     1.4990380    -1.0633910
  H       -3.7175750    -1.0591810    -0.9792530
units angstrom
no_reorient  #important for SAPT in psi4, default
symmetry c1  #important for SAPT in psi4, default
}

set PROPERTIES_ORIGIN ["COM"]
properties('MP2/aug-cc-pvtz', properties = ['dipole'])
--------------------------------------------------------------------------

    Molecular point group: c1
  Charge       = 0
  Multiplicity = 1
  Basis Set: AUG-CC-PVTZ
    Blend: AUG-CC-PVTZ
  Basis Set: (AUG-CC-PVTZ AUX)
    Blend: AUG-CC-PVTZ-JKFIT

    Orbital Energies [Eh]
    ---------------------

    Doubly Occupied:

       1A    -20.545288     2A    -11.287328     3A    -11.227863
       4A    -11.226774     5A    -11.224564     6A    -11.224290
       7A    -11.223102     8A    -11.223085     9A    -11.213730
      10A     -1.323604    11A     -1.100451    12A     -1.067569
      13A     -1.022854    14A     -0.965885    15A     -0.880665
      16A     -0.830722    17A     -0.754061    18A     -0.745342
      19A     -0.685723    20A     -0.634489    21A     -0.628200
      22A     -0.608971    23A     -0.590882    24A     -0.579520
      25A     -0.551936    26A     -0.544844    27A     -0.521350
      28A     -0.519813    29A     -0.501157    30A     -0.483404
      31A     -0.480867    32A     -0.472010    33A     -0.452909
      34A     -0.421988    35A     -0.300119

  @DF-RHF Final Energy:  -386.05222044695455

   => Energetics <=

    Nuclear Repulsion Energy =            417.6555321272930428
    One-Electron Energy =               -1351.2847889474712701
    Two-Electron Energy =                 547.5770363732235637
    Total Energy =                       -386.0522204469546068
  Basis Set: (AUG-CC-PVTZ AUX)
    Blend: AUG-CC-PVTZ-RI
    Molecular point group: c1

    Geometry (in Angstrom), charge = 0, multiplicity = 1:

       Center              X                  Y                   Z               Mass
    ------------   -----------------  -----------------  -----------------  -----------------
         O           -2.784928322206    -0.921230646376    -0.752270810959    15.994914619570
         C           -2.768944222206     0.011423753624     0.457850589041    12.000000000000
         C           -1.344701322206     0.187946353624     0.764615189041    12.000000000000
         C            3.587270677794    -0.235108646376     0.214666189041    12.000000000000
         C           -3.475662322206     1.264195353624     0.057448189041    12.000000000000
         C           -0.280321322206    -0.300449646376     0.104909189041    12.000000000000
         C            2.165923677794    -0.518984646376    -0.155127810959    12.000000000000
         C            1.092174677794    -0.032492646376     0.494619189041    12.000000000000
         C            4.324345677794     0.528564353624    -0.887917810959    12.000000000000
         H           -3.286644322206    -0.532999646376     1.226052189041     1.007825032230
         H           -1.197133322206     0.820228353624     1.641242189041     1.007825032230
         H            3.613055677794     0.340309353624     1.147257189041     1.007825032230
         H            4.114149677794    -1.177970646376     0.411332189041     1.007825032230
         H           -2.981401322206     1.735506353624    -0.795069810959     1.007825032230
         H           -4.527808322206     1.089853353624    -0.194005810959     1.007825032230
         H           -3.443664322206     1.948377353624     0.910124189041     1.007825032230
         H           -0.447100322206    -0.933050646376    -0.763955810959     1.007825032230
         H            2.006245677794    -1.149869646376    -1.031991810959     1.007825032230
         H            1.247043677794     0.600813353624     1.370550189041     1.007825032230
         H            4.314187677794    -0.034934646376    -1.825327810959     1.007825032230
         H            5.367841677794     0.709294353624    -0.614231810959     1.007825032230
         H            3.844182677794     1.493229353624    -1.070927810959     1.007825032230
         H           -3.717674322206    -1.064989646376    -0.986789810959     1.007825032230

  Basis Set: AUG-CC-PVTZ
    Blend: AUG-CC-PVTZ
  Basis Set: (AUG-CC-PVTZ AUX)
    Blend: AUG-CC-PVTZ-JKFIT
	 Reference Energy          =    -386.0522204469545500 [Eh]
	 Singles Energy            =      -0.0000000000000000 [Eh]
	 Same-Spin Energy          =      -0.4010009282087217 [Eh]
	 Opposite-Spin Energy      =      -1.3806381655005247 [Eh]
	 Correlation Energy        =      -1.7816390937092463 [Eh]
	 Total Energy              =    -387.8338595406638092 [Eh]

	 ================> DF-SCS-MP2 Energies <==================
	-----------------------------------------------------------
	 SCS Same-Spin Scale       =       0.3333333333333333 [-]
	 SCS Opposite-Spin Scale   =       1.2000000000000000 [-]
	 SCS Same-Spin Energy      =      -0.1336669760695739 [Eh]
	 SCS Opposite-Spin Energy  =      -1.6567657986006294 [Eh]
	 SCS Correlation Energy    =      -1.7904327746702033 [Eh]
	 SCS Total Energy          =    -387.8426532216247438 [Eh]
	-----------------------------------------------------------

  Dipole Moment: [D]
     X:    -1.0412      Y:     0.8605      Z:     0.7901     Total:     1.5649

*** Psi4 exiting successfully. Buy a developer a beer!
