                               Psi4 1.3.2 release

  ==> Input File <==

--------------------------------------------------------------------------
#psi4
#
memory 32 gb

molecule  {
0 1
  O       -2.7848290    -0.9154220    -0.7447340
  C       -2.7698910    -0.0438090     0.3861860
  C       -1.3587646     0.1827973     0.7569970
  C        3.5873700    -0.2293000     0.2222030
  C       -3.4755630     1.2700040     0.0649850
  C       -0.2802220    -0.2946410     0.1124460
  C        2.1660230    -0.5131760    -0.1475910
  C        1.0922740    -0.0266840     0.5021560
  C        4.3244450     0.5343730    -0.8803810
  H       -3.2865450    -0.5271910     1.2335890
  H       -1.1970340     0.8260370     1.6487790
  H        3.6131550     0.3461180     1.1547940
  H        4.1142490    -1.1721620     0.4188690
  H       -2.9813020     1.7413150    -0.7875330
  H       -4.5277090     1.0956620    -0.1864690
  H       -3.4435650     1.9541860     0.9176610
  H       -0.4657325    -0.9253473    -0.7539956
  H        2.0063450    -1.1440610    -1.0244550
  H        1.2471430     0.6066220     1.3780870
  H        4.3142870    -0.0291260    -1.8177910
  H        5.3679410     0.7151030    -0.6066950
  H        3.8442820     1.4990380    -1.0633910
  H       -3.7175750    -1.0591810    -0.9792530
units angstrom
no_reorient  #important for SAPT in psi4, default
symmetry c1  #important for SAPT in psi4, default
}

set PROPERTIES_ORIGIN ["COM"]
properties('MP2/aug-cc-pvtz', properties = ['dipole'])
--------------------------------------------------------------------------

    Molecular point group: c1
  Charge       = 0
  Multiplicity = 1
  Basis Set: AUG-CC-PVTZ
    Blend: AUG-CC-PVTZ
  Basis Set: (AUG-CC-PVTZ AUX)
    Blend: AUG-CC-PVTZ-JKFIT

    Orbital Energies [Eh]
    ---------------------

    Doubly Occupied:

       1A    -20.558734     2A    -11.285866     3A    -11.226415
       4A    -11.224017     5A    -11.223450     6A    -11.223368
       7A    -11.221604     8A    -11.221074     9A    -11.213020
      10A     -1.361472    11A     -1.097967    12A     -1.062724
      13A     -1.016795    14A     -0.962893    15A     -0.878275
      16A     -0.829840    17A     -0.752914    18A     -0.744412
      19A     -0.696347    20A     -0.637435    21A     -0.628344
      22A     -0.617998    23A     -0.590375    24A     -0.582326
      25A     -0.546227    26A     -0.542185    27A     -0.527956
      28A     -0.518636    29A     -0.498454    30A     -0.492990
      31A     -0.479597    32A     -0.470090    33A     -0.453592
      34A     -0.417959    35A     -0.297389

  @DF-RHF Final Energy:  -386.06146356159633

   => Energetics <=

    Nuclear Repulsion Energy =            418.4979759780058544
    One-Electron Energy =               -1352.9134025042135363
    Two-Electron Energy =                 548.3539629646113553
    Total Energy =                       -386.0614635615963834
  Basis Set: (AUG-CC-PVTZ AUX)
    Blend: AUG-CC-PVTZ-RI
    Molecular point group: c1

    Geometry (in Angstrom), charge = 0, multiplicity = 1:

       Center              X                  Y                   Z               Mass
    ------------   -----------------  -----------------  -----------------  -----------------
         O           -2.783331372609    -0.914394412041    -0.743311299206    15.994914619570
         C           -2.768393372609    -0.042781412041     0.387608700794    12.000000000000
         C           -1.357266972609     0.183824887959     0.758419700794    12.000000000000
         C            3.588867627391    -0.228272412041     0.223625700794    12.000000000000
         C           -3.474065372609     1.271031587959     0.066407700794    12.000000000000
         C           -0.278724372609    -0.293613412041     0.113868700794    12.000000000000
         C            2.167520627391    -0.512148412041    -0.146168299206    12.000000000000
         C            1.093771627391    -0.025656412041     0.503578700794    12.000000000000
         C            4.325942627391     0.535400587959    -0.878958299206    12.000000000000
         H           -3.285047372609    -0.526163412041     1.235011700794     1.007825032230
         H           -1.195536372609     0.827064587959     1.650201700794     1.007825032230
         H            3.614652627391     0.347145587959     1.156216700794     1.007825032230
         H            4.115746627391    -1.171134412041     0.420291700794     1.007825032230
         H           -2.979804372609     1.742342587959    -0.786110299206     1.007825032230
         H           -4.526211372609     1.096689587959    -0.185046299206     1.007825032230
         H           -3.442067372609     1.955213587959     0.919083700794     1.007825032230
         H           -0.464234872609    -0.924319712041    -0.752572899206     1.007825032230
         H            2.007842627391    -1.143033412041    -1.023032299206     1.007825032230
         H            1.248640627391     0.607649587959     1.379509700794     1.007825032230
         H            4.315784627391    -0.028098412041    -1.816368299206     1.007825032230
         H            5.369438627391     0.716130587959    -0.605272299206     1.007825032230
         H            3.845779627391     1.500065587959    -1.061968299206     1.007825032230
         H           -3.716077372609    -1.058153412041    -0.977830299206     1.007825032230

  Basis Set: AUG-CC-PVTZ
    Blend: AUG-CC-PVTZ
  Basis Set: (AUG-CC-PVTZ AUX)
    Blend: AUG-CC-PVTZ-JKFIT
	 Reference Energy          =    -386.0614635615963266 [Eh]
	 Singles Energy            =      -0.0000000000000000 [Eh]
	 Same-Spin Energy          =      -0.4005963654566266 [Eh]
	 Opposite-Spin Energy      =      -1.3785863466046955 [Eh]
	 Correlation Energy        =      -1.7791827120613222 [Eh]
	 Total Energy              =    -387.8406462736576259 [Eh]

	 ================> DF-SCS-MP2 Energies <==================
	-----------------------------------------------------------
	 SCS Same-Spin Scale       =       0.3333333333333333 [-]
	 SCS Opposite-Spin Scale   =       1.2000000000000000 [-]
	 SCS Same-Spin Energy      =      -0.1335321218188755 [Eh]
	 SCS Opposite-Spin Energy  =      -1.6543036159256346 [Eh]
	 SCS Correlation Energy    =      -1.7878357377445102 [Eh]
	 SCS Total Energy          =    -387.8492992993408279 [Eh]
	-----------------------------------------------------------

  Dipole Moment: [D]
     X:    -1.1713      Y:     0.6401      Z:     0.5670     Total:     1.4502

*** Psi4 exiting successfully. Buy a developer a beer!
