                               Psi4 1.3.2 release

  ==> Input File <==

--------------------------------------------------------------------------
#psi4
#
memory 32 gb

molecule  {
0 1
  O       -2.7848290    -0.9154220    -0.7447340
  C       -2.7698910    -0.0438090     0.3861860
  C       -1.3446020     0.1937550     0.7721520
  C        3.5873700    -0.2293000     0.2222030
  C       -3.4755630     1.2700040     0.0649850
  C       -0.2802220    -0.2946410     0.1124460
  C        2.1660230    -0.5131760    -0.1475910
  C        1.0922740    -0.0266840     0.5021560
  C        4.3393698     0.5924656    -0.8272564
  H       -3.2865450    -0.5271910     1.2335890
  H       -1.1970340     0.8260370     1.6487790
  H        3.6429826     0.3866412     1.1272005
  H        4.1142490    -1.1721620     0.4188690
  H       -2.9813020     1.7413150    -0.7875330
  H       -4.5277090     1.0956620    -0.1864690
  H       -3.4435650     1.9541860     0.9176610
  H       -0.4470010    -0.9272420    -0.7564190
  H        2.0063450    -1.1440610    -1.0244550
  H        1.2471430     0.6066220     1.3780870
  H        4.3142870    -0.0291260    -1.8177910
  H        5.3679410     0.7151030    -0.6066950
  H        3.8442820     1.4990380    -1.0633910
  H       -3.7175750    -1.0591810    -0.9792530
units angstrom
no_reorient  #important for SAPT in psi4, default
symmetry c1  #important for SAPT in psi4, default
}

set PROPERTIES_ORIGIN ["COM"]
properties('MP2/aug-cc-pvtz', properties = ['dipole'])
--------------------------------------------------------------------------

    Molecular point group: c1
  Charge       = 0
  Multiplicity = 1
  Basis Set: AUG-CC-PVTZ
    Blend: AUG-CC-PVTZ
  Basis Set: (AUG-CC-PVTZ AUX)
    Blend: AUG-CC-PVTZ-JKFIT

    Orbital Energies [Eh]
    ---------------------

    Doubly Occupied:

       1A    -20.559010     2A    -11.286831     3A    -11.226685
       4A    -11.224334     5A    -11.223813     6A    -11.223390
       7A    -11.222287     8A    -11.220932     9A    -11.213296
      10A     -1.361062    11A     -1.098040    12A     -1.061474
      13A     -1.016684    14A     -0.963376    15A     -0.877110
      16A     -0.828580    17A     -0.752359    18A     -0.748478
      19A     -0.695503    20A     -0.637250    21A     -0.629841
      22A     -0.617554    23A     -0.595233    24A     -0.583163
      25A     -0.546365    26A     -0.542175    27A     -0.525253
      28A     -0.523152    29A     -0.507681    30A     -0.492539
      31A     -0.470715    32A     -0.460993    33A     -0.453192
      34A     -0.419001    35A     -0.298355

  @DF-RHF Final Energy:  -386.05534768913344

   => Energetics <=

    Nuclear Repulsion Energy =            418.1497863450177874
    One-Electron Energy =               -1352.1988561614866740
    Two-Electron Energy =                 547.9937221273354453
    Total Energy =                       -386.0553476891334412
  Basis Set: (AUG-CC-PVTZ AUX)
    Blend: AUG-CC-PVTZ-RI
    Molecular point group: c1

    Geometry (in Angstrom), charge = 0, multiplicity = 1:

       Center              X                  Y                   Z               Mass
    ------------   -----------------  -----------------  -----------------  -----------------
         O           -2.786487389934    -0.921273901746    -0.749568836688    15.994914619570
         C           -2.771549389934    -0.049660901746     0.381351163312    12.000000000000
         C           -1.346260389934     0.187903098254     0.767317163312    12.000000000000
         C            3.585711610066    -0.235151901746     0.217368163312    12.000000000000
         C           -3.477221389934     1.264152098254     0.060150163312    12.000000000000
         C           -0.281880389934    -0.300492901746     0.107611163312    12.000000000000
         C            2.164364610066    -0.519027901746    -0.152425836688    12.000000000000
         C            1.090615610066    -0.032535901746     0.497321163312    12.000000000000
         C            4.337711410066     0.586613698254    -0.832091236688    12.000000000000
         H           -3.288203389934    -0.533042901746     1.228754163312     1.007825032230
         H           -1.198692389934     0.820185098254     1.643944163312     1.007825032230
         H            3.641324210066     0.380789298254     1.122365663312     1.007825032230
         H            4.112590610066    -1.178013901746     0.414034163312     1.007825032230
         H           -2.982960389934     1.735463098254    -0.792367836688     1.007825032230
         H           -4.529367389934     1.089810098254    -0.191303836688     1.007825032230
         H           -3.445223389934     1.948334098254     0.912826163312     1.007825032230
         H           -0.448659389934    -0.933093901746    -0.761253836688     1.007825032230
         H            2.004686610066    -1.149912901746    -1.029289836688     1.007825032230
         H            1.245484610066     0.600770098254     1.373252163312     1.007825032230
         H            4.312628610066    -0.034977901746    -1.822625836688     1.007825032230
         H            5.366282610066     0.709251098254    -0.611529836688     1.007825032230
         H            3.842623610066     1.493186098254    -1.068225836688     1.007825032230
         H           -3.719233389934    -1.065032901746    -0.984087836688     1.007825032230

  Basis Set: AUG-CC-PVTZ
    Blend: AUG-CC-PVTZ
  Basis Set: (AUG-CC-PVTZ AUX)
    Blend: AUG-CC-PVTZ-JKFIT
	 Reference Energy          =    -386.0553476891334412 [Eh]
	 Singles Energy            =      -0.0000000000000000 [Eh]
	 Same-Spin Energy          =      -0.4004174635889994 [Eh]
	 Opposite-Spin Energy      =      -1.3786416520700349 [Eh]
	 Correlation Energy        =      -1.7790591156590343 [Eh]
	 Total Energy              =    -387.8344068047924793 [Eh]

	 ================> DF-SCS-MP2 Energies <==================
	-----------------------------------------------------------
	 SCS Same-Spin Scale       =       0.3333333333333333 [-]
	 SCS Opposite-Spin Scale   =       1.2000000000000000 [-]
	 SCS Same-Spin Energy      =      -0.1334724878629998 [Eh]
	 SCS Opposite-Spin Energy  =      -1.6543699824840419 [Eh]
	 SCS Correlation Energy    =      -1.7878424703470417 [Eh]
	 SCS Total Energy          =    -387.8431901594804572 [Eh]
	-----------------------------------------------------------

  Dipole Moment: [D]
     X:    -1.2013      Y:     0.6782      Z:     0.6255     Total:     1.5147

*** Psi4 exiting successfully. Buy a developer a beer!
