                               Psi4 1.4a3.dev225

  ==> Input File <==

--------------------------------------------------------------------------
#psi4
#
memory 32 gb

molecule  {
0 1
  O       -2.7624640     1.3159430     0.2248240
  C       -2.8209640    -0.0168770    -0.2887760
  C       -1.4198970    -0.4865040    -0.5315690
  C        3.5469730    -0.0618850    -0.4287090
  C       -3.5485140    -0.9406360     0.6857820
  C       -0.3124200     0.2274490    -0.2577540
  C        2.1505970     0.4383770    -0.2221580
  C        1.0342680    -0.2689350    -0.4861660
  C        4.3265940    -0.1505530     0.8872490
  H       -3.3622360    -0.0200820    -1.2509840
  H       -1.3293920    -1.4912640    -0.9473420
  H        3.5136740    -1.0471260    -0.9088000
  H        4.0812660     0.6062640    -1.1173180
  H       -3.0279280    -0.9272120     1.6463760
  H       -4.5820380    -0.6089360     0.8383050
  H       -3.5770120    -1.9680220     0.3103630
  H       -0.4219900     1.2292040     0.1523950
  H        2.0467242     1.4618559     0.2006610
  H        1.1311650    -1.2755230    -0.8987060
  H        4.3778580     0.8269450     1.3761990
  H        5.3504770    -0.4972710     0.7173650
  H        3.8373540    -0.8453320     1.5752720
  H       -3.6799020     1.6047450     0.3678300
units angstrom
no_reorient  #important for SAPT in psi4, default
symmetry c1  #important for SAPT in psi4, default
}

set PROPERTIES_ORIGIN ["COM"]
properties('MP2/aug-cc-pvtz', properties = ['dipole'])
--------------------------------------------------------------------------

    Molecular point group: c1
  Charge       = 0
  Multiplicity = 1
  Basis Set: AUG-CC-PVTZ
    Blend: AUG-CC-PVTZ
  Basis Set: (AUG-CC-PVTZ AUX)
    Blend: AUG-CC-PVTZ-JKFIT

    Orbital Energies [Eh]
    ---------------------

    Doubly Occupied:

       1A    -20.558819     2A    -11.287049     3A    -11.228771
       4A    -11.224467     5A    -11.224007     6A    -11.223862
       7A    -11.222489     8A    -11.220974     9A    -11.213261
      10A     -1.360142    11A     -1.096869    12A     -1.060540
      13A     -1.015692    14A     -0.961902    15A     -0.876291
      16A     -0.828508    17A     -0.750318    18A     -0.747580
      19A     -0.694580    20A     -0.636617    21A     -0.626909
      22A     -0.616625    23A     -0.589987    24A     -0.582683
      25A     -0.546286    26A     -0.542724    27A     -0.526761
      28A     -0.518634    29A     -0.500928    30A     -0.492443
      31A     -0.478692    32A     -0.467676    33A     -0.452840
      34A     -0.417976    35A     -0.297441

  @DF-RHF Final Energy:  -386.06174861481230

   => Energetics <=

    Nuclear Repulsion Energy =            417.6608613152050680
    One-Electron Energy =               -1351.2625342769770214
    Two-Electron Energy =                 547.5399243469596513
    Total Energy =                       -386.0617486148123589
  Basis Set: (AUG-CC-PVTZ AUX)
    Blend: AUG-CC-PVTZ-RI
    Molecular point group: c1

    Geometry (in Angstrom), charge = 0, multiplicity = 1:

       Center              X                  Y                   Z               Mass
    ------------   -----------------  -----------------  -----------------  -----------------
         O           -2.728257360539     1.292480101548     0.240933049769    15.994914619570
         C           -2.786757360539    -0.040339898452    -0.272666950231    12.000000000000
         C           -1.385690360539    -0.509966898452    -0.515459950231    12.000000000000
         C            3.581179639461    -0.085347898452    -0.412599950231    12.000000000000
         C           -3.514307360539    -0.964098898452     0.701891049769    12.000000000000
         C           -0.278213360539     0.203986101548    -0.241644950231    12.000000000000
         C            2.184803639461     0.414914101548    -0.206048950231    12.000000000000
         C            1.068474639461    -0.292397898452    -0.470056950231    12.000000000000
         C            4.360800639461    -0.174015898452     0.903358049769    12.000000000000
         H           -3.328029360539    -0.043544898452    -1.234874950231     1.007825032230
         H           -1.295185360539    -1.514726898452    -0.931232950231     1.007825032230
         H            3.547880639461    -1.070588898452    -0.892690950231     1.007825032230
         H            4.115472639461     0.582801101548    -1.101208950231     1.007825032230
         H           -2.993721360539    -0.950674898452     1.662485049769     1.007825032230
         H           -4.547831360539    -0.632398898452     0.854414049769     1.007825032230
         H           -3.542805360539    -1.991484898452     0.326472049769     1.007825032230
         H           -0.387783360539     1.205741101548     0.168504049769     1.007825032230
         H            2.080930839461     1.438393001548     0.216770049769     1.007825032230
         H            1.165371639461    -1.298985898452    -0.882596950231     1.007825032230
         H            4.412064639461     0.803482101548     1.392308049769     1.007825032230
         H            5.384683639461    -0.520733898452     0.733474049769     1.007825032230
         H            3.871560639461    -0.868794898452     1.591381049769     1.007825032230
         H           -3.645695360539     1.581282101548     0.383939049769     1.007825032230

  Basis Set: AUG-CC-PVTZ
    Blend: AUG-CC-PVTZ
  Basis Set: (AUG-CC-PVTZ AUX)
    Blend: AUG-CC-PVTZ-JKFIT
	 Reference Energy          =    -386.0617486148123021 [Eh]
	 Singles Energy            =      -0.0000000000000000 [Eh]
	 Same-Spin Energy          =      -0.4003096050650032 [Eh]
	 Opposite-Spin Energy      =      -1.3785528584529168 [Eh]
	 Correlation Energy        =      -1.7788624635179200 [Eh]
	 Total Energy              =    -387.8406110783301983 [Eh]

	 ================> DF-SCS-MP2 Energies <==================
	-----------------------------------------------------------
	 SCS Same-Spin Scale       =       0.3333333333333333 [-]
	 SCS Opposite-Spin Scale   =       1.2000000000000000 [-]
	 SCS Same-Spin Energy      =      -0.1334365350216677 [Eh]
	 SCS Opposite-Spin Energy  =      -1.6542634301435000 [Eh]
	 SCS Correlation Energy    =      -1.7876999651651677 [Eh]
	 SCS Total Energy          =    -387.8494485799774907 [Eh]
	-----------------------------------------------------------

  Dipole Moment: [D]
     X:    -1.1963      Y:    -0.8038      Z:    -0.1470     Total:     1.4487

*** Psi4 exiting successfully. Buy a developer a beer!
