                               Psi4 1.3.2 release

  ==> Input File <==

--------------------------------------------------------------------------
#psi4
#
memory 32 gb

molecule  {
0 1
  O       -2.7848290    -0.9154220    -0.7447340
  C       -2.7698910    -0.0438090     0.3861860
  C       -1.3446020     0.1937550     0.7721520
  C        3.5873700    -0.2293000     0.2222030
  C       -3.4755630     1.2700040     0.0649850
  C       -0.2802220    -0.2946410     0.1124460
  C        2.1660230    -0.5131760    -0.1475910
  C        1.0922740    -0.0266840     0.5021560
  C        4.3244450     0.5343730    -0.8803810
  H       -3.2865450    -0.5271910     1.2335890
  H       -1.1970340     0.8260370     1.6487790
  H        3.6131550     0.3461180     1.1547940
  H        4.1142490    -1.1721620     0.4188690
  H       -2.9813020     1.7413150    -0.7875330
  H       -4.5277090     1.0956620    -0.1864690
  H       -3.4435650     1.9541860     0.9176610
  H       -0.4470010    -0.9272420    -0.7564190
  H        2.0063450    -1.1440610    -1.0244550
  H        1.2471430     0.6066220     1.3780870
  H        4.3142870    -0.0291260    -1.8177910
  H        5.3679410     0.7151030    -0.6066950
  H        3.8442820     1.4990380    -1.0633910
  H       -3.9094070    -1.0887470    -1.0274850
units angstrom
no_reorient  #important for SAPT in psi4, default
symmetry c1  #important for SAPT in psi4, default
}

set PROPERTIES_ORIGIN ["COM"]
properties('MP2/aug-cc-pvtz', properties = ['dipole'])
--------------------------------------------------------------------------

    Molecular point group: c1
  Charge       = 0
  Multiplicity = 1
  Basis Set: AUG-CC-PVTZ
    Blend: AUG-CC-PVTZ
  Basis Set: (AUG-CC-PVTZ AUX)
    Blend: AUG-CC-PVTZ-JKFIT

    Orbital Energies [Eh]
    ---------------------

    Doubly Occupied:

       1A    -20.573954     2A    -11.284868     3A    -11.225735
       4A    -11.223622     5A    -11.223125     6A    -11.222906
       7A    -11.221754     8A    -11.219433     9A    -11.212734
      10A     -1.330113    11A     -1.096577    12A     -1.057391
      13A     -1.013152    14A     -0.961994    15A     -0.873881
      16A     -0.825338    17A     -0.751874    18A     -0.739707
      19A     -0.675548    20A     -0.634171    21A     -0.626651
      22A     -0.606994    23A     -0.589052    24A     -0.577778
      25A     -0.543436    26A     -0.539356    27A     -0.525833
      28A     -0.518415    29A     -0.500152    30A     -0.486584
      31A     -0.478190    32A     -0.465588    33A     -0.449487
      34A     -0.417796    35A     -0.297261

  @DF-RHF Final Energy:  -386.02668481457482

   => Energetics <=

    Nuclear Repulsion Energy =            417.1791894759069805
    One-Electron Energy =               -1350.4308401023397437
    Two-Electron Energy =                 547.2249658118579418
    Total Energy =                       -386.0266848145748781
  Basis Set: (AUG-CC-PVTZ AUX)
    Blend: AUG-CC-PVTZ-RI
    Molecular point group: c1

    Geometry (in Angstrom), charge = 0, multiplicity = 1:

       Center              X                  Y                   Z               Mass
    ------------   -----------------  -----------------  -----------------  -----------------
         O           -2.783295657641    -0.915185704553    -0.744348599668    15.994914619570
         C           -2.768357657641    -0.043572704553     0.386571400332    12.000000000000
         C           -1.343068657641     0.193991295447     0.772537400332    12.000000000000
         C            3.588903342359    -0.229063704553     0.222588400332    12.000000000000
         C           -3.474029657641     1.270240295447     0.065370400332    12.000000000000
         C           -0.278688657641    -0.294404704553     0.112831400332    12.000000000000
         C            2.167556342359    -0.512939704553    -0.147205599668    12.000000000000
         C            1.093807342359    -0.026447704553     0.502541400332    12.000000000000
         C            4.325978342359     0.534609295447    -0.879995599668    12.000000000000
         H           -3.285011657641    -0.526954704553     1.233974400332     1.007825032230
         H           -1.195500657641     0.826273295447     1.649164400332     1.007825032230
         H            3.614688342359     0.346354295447     1.155179400332     1.007825032230
         H            4.115782342359    -1.171925704553     0.419254400332     1.007825032230
         H           -2.979768657641     1.741551295447    -0.787147599668     1.007825032230
         H           -4.526175657641     1.095898295447    -0.186083599668     1.007825032230
         H           -3.442031657641     1.954422295447     0.918046400332     1.007825032230
         H           -0.445467657641    -0.927005704553    -0.756033599668     1.007825032230
         H            2.007878342359    -1.143824704553    -1.024069599668     1.007825032230
         H            1.248676342359     0.606858295447     1.378472400332     1.007825032230
         H            4.315820342359    -0.028889704553    -1.817405599668     1.007825032230
         H            5.369474342359     0.715339295447    -0.606309599668     1.007825032230
         H            3.845815342359     1.499274295447    -1.063005599668     1.007825032230
         H           -3.907873657641    -1.088510704553    -1.027099599668     1.007825032230

  Basis Set: AUG-CC-PVTZ
    Blend: AUG-CC-PVTZ
  Basis Set: (AUG-CC-PVTZ AUX)
    Blend: AUG-CC-PVTZ-JKFIT
	 Reference Energy          =    -386.0266848145748213 [Eh]
	 Singles Energy            =      -0.0000000000000000 [Eh]
	 Same-Spin Energy          =      -0.4025710723956238 [Eh]
	 Opposite-Spin Energy      =      -1.3851436905225119 [Eh]
	 Correlation Energy        =      -1.7877147629181356 [Eh]
	 Total Energy              =    -387.8143995774929635 [Eh]

	 ================> DF-SCS-MP2 Energies <==================
	-----------------------------------------------------------
	 SCS Same-Spin Scale       =       0.3333333333333333 [-]
	 SCS Opposite-Spin Scale   =       1.2000000000000000 [-]
	 SCS Same-Spin Energy      =      -0.1341903574652079 [Eh]
	 SCS Opposite-Spin Energy  =      -1.6621724286270141 [Eh]
	 SCS Correlation Energy    =      -1.7963627860922220 [Eh]
	 SCS Total Energy          =    -387.8230476006670528 [Eh]
	-----------------------------------------------------------

  Dipole Moment: [D]
     X:    -1.2541      Y:     0.6000      Z:     0.5333     Total:     1.4890

*** Psi4 exiting successfully. Buy a developer a beer!
