                               Psi4 1.3.2 release

  ==> Input File <==

--------------------------------------------------------------------------
#psi4
#
memory 32 gb

molecule  {
0 1
  O       -2.7848290    -0.9154220    -0.7447340
  C       -2.7698910    -0.0438090     0.3861860
  C       -1.3387018     0.1422776     0.7785180
  C        3.5873700    -0.2293000     0.2222030
  C       -3.5200262     1.2425448     0.0547667
  C       -0.2802220    -0.2946410     0.1124460
  C        2.1660230    -0.5131760    -0.1475910
  C        1.0922740    -0.0266840     0.5021560
  C        4.3244450     0.5343730    -0.8803810
  H       -3.2865450    -0.5271910     1.2335890
  H       -1.1970340     0.8260370     1.6487790
  H        3.6131550     0.3461180     1.1547940
  H        4.1142490    -1.1721620     0.4188690
  H       -2.9813020     1.7413150    -0.7875330
  H       -4.5277090     1.0956620    -0.1864690
  H       -3.4435650     1.9541860     0.9176610
  H       -0.4470010    -0.9272420    -0.7564190
  H        2.0063450    -1.1440610    -1.0244550
  H        1.2471430     0.6066220     1.3780870
  H        4.3142870    -0.0291260    -1.8177910
  H        5.3679410     0.7151030    -0.6066950
  H        3.8442820     1.4990380    -1.0633910
  H       -3.7175750    -1.0591810    -0.9792530
units angstrom
no_reorient  #important for SAPT in psi4, default
symmetry c1  #important for SAPT in psi4, default
}

set PROPERTIES_ORIGIN ["COM"]
properties('MP2/aug-cc-pvtz', properties = ['dipole'])
--------------------------------------------------------------------------

    Molecular point group: c1
  Charge       = 0
  Multiplicity = 1
  Basis Set: AUG-CC-PVTZ
    Blend: AUG-CC-PVTZ
  Basis Set: (AUG-CC-PVTZ AUX)
    Blend: AUG-CC-PVTZ-JKFIT

    Orbital Energies [Eh]
    ---------------------

    Doubly Occupied:

       1A    -20.556951     2A    -11.286533     3A    -11.226716
       4A    -11.223817     5A    -11.223575     6A    -11.222968
       7A    -11.221799     8A    -11.220239     9A    -11.213220
      10A     -1.360216    11A     -1.099299    12A     -1.061526
      13A     -1.016186    14A     -0.965336    15A     -0.878286
      16A     -0.830611    17A     -0.753012    18A     -0.743370
      19A     -0.694358    20A     -0.637691    21A     -0.630554
      22A     -0.616464    23A     -0.592933    24A     -0.582624
      25A     -0.550945    26A     -0.538159    27A     -0.525373
      28A     -0.518393    29A     -0.497930    30A     -0.491847
      31A     -0.479710    32A     -0.468868    33A     -0.450666
      34A     -0.419789    35A     -0.300884

  @DF-RHF Final Energy:  -386.05822093139267

   => Energetics <=

    Nuclear Repulsion Energy =            418.3027964738741389
    One-Electron Energy =               -1352.5203371558379786
    Two-Electron Energy =                 548.1593197505710577
    Total Energy =                       -386.0582209313927251
  Basis Set: (AUG-CC-PVTZ AUX)
    Blend: AUG-CC-PVTZ-RI
    Molecular point group: c1

    Geometry (in Angstrom), charge = 0, multiplicity = 1:

       Center              X                  Y                   Z               Mass
    ------------   -----------------  -----------------  -----------------  -----------------
         O           -2.781159151941    -0.907910451892    -0.744367487318    15.994914619570
         C           -2.766221151941    -0.036297451892     0.386552512682    12.000000000000
         C           -1.335031951941     0.149789148108     0.778884512682    12.000000000000
         C            3.591039848059    -0.221788451892     0.222569512682    12.000000000000
         C           -3.516356351941     1.250056348108     0.055133212682    12.000000000000
         C           -0.276552151941    -0.287129451892     0.112812512682    12.000000000000
         C            2.169692848059    -0.505664451892    -0.147224487318    12.000000000000
         C            1.095943848059    -0.019172451892     0.502522512682    12.000000000000
         C            4.328114848059     0.541884548108    -0.880014487318    12.000000000000
         H           -3.282875151941    -0.519679451892     1.233955512682     1.007825032230
         H           -1.193364151941     0.833548548108     1.649145512682     1.007825032230
         H            3.616824848059     0.353629548108     1.155160512682     1.007825032230
         H            4.117918848059    -1.164650451892     0.419235512682     1.007825032230
         H           -2.977632151941     1.748826548108    -0.787166487318     1.007825032230
         H           -4.524039151941     1.103173548108    -0.186102487318     1.007825032230
         H           -3.439895151941     1.961697548108     0.918027512682     1.007825032230
         H           -0.443331151941    -0.919730451892    -0.756052487318     1.007825032230
         H            2.010014848059    -1.136549451892    -1.024088487318     1.007825032230
         H            1.250812848059     0.614133548108     1.378453512682     1.007825032230
         H            4.317956848059    -0.021614451892    -1.817424487318     1.007825032230
         H            5.371610848059     0.722614548108    -0.606328487318     1.007825032230
         H            3.847951848059     1.506549548108    -1.063024487318     1.007825032230
         H           -3.713905151941    -1.051669451892    -0.978886487318     1.007825032230

  Basis Set: AUG-CC-PVTZ
    Blend: AUG-CC-PVTZ
  Basis Set: (AUG-CC-PVTZ AUX)
    Blend: AUG-CC-PVTZ-JKFIT
	 Reference Energy          =    -386.0582209313926683 [Eh]
	 Singles Energy            =      -0.0000000000000000 [Eh]
	 Same-Spin Energy          =      -0.4001949333714107 [Eh]
	 Opposite-Spin Energy      =      -1.3780347448739803 [Eh]
	 Correlation Energy        =      -1.7782296782453910 [Eh]
	 Total Energy              =    -387.8364506096380637 [Eh]

	 ================> DF-SCS-MP2 Energies <==================
	-----------------------------------------------------------
	 SCS Same-Spin Scale       =       0.3333333333333333 [-]
	 SCS Opposite-Spin Scale   =       1.2000000000000000 [-]
	 SCS Same-Spin Energy      =      -0.1333983111238035 [Eh]
	 SCS Opposite-Spin Energy  =      -1.6536416938487764 [Eh]
	 SCS Correlation Energy    =      -1.7870400049725799 [Eh]
	 SCS Total Energy          =    -387.8452609363652641 [Eh]
	-----------------------------------------------------------

  Dipole Moment: [D]
     X:    -1.1406      Y:     0.6633      Z:     0.5235     Total:     1.4195

*** Psi4 exiting successfully. Buy a developer a beer!
