                               Psi4 1.3.2 release

  ==> Input File <==

--------------------------------------------------------------------------
#psi4
#
memory 32 gb

molecule  {
0 1
  O       -2.7848290    -0.9154220    -0.7447340
  C       -2.7847890    -0.0141143     0.4264543
  C       -1.3446020     0.1937550     0.7721520
  C        3.5873700    -0.2293000     0.2222030
  C       -3.4755630     1.2700040     0.0649850
  C       -0.2802220    -0.2946410     0.1124460
  C        2.1660230    -0.5131760    -0.1475910
  C        1.0922740    -0.0266840     0.5021560
  C        4.3244450     0.5343730    -0.8803810
  H       -3.2865450    -0.5271910     1.2335890
  H       -1.2348340     0.8294200     1.6518751
  H        3.6131550     0.3461180     1.1547940
  H        4.1142490    -1.1721620     0.4188690
  H       -2.9813020     1.7413150    -0.7875330
  H       -4.5277090     1.0956620    -0.1864690
  H       -3.4435650     1.9541860     0.9176610
  H       -0.4470010    -0.9272420    -0.7564190
  H        2.0063450    -1.1440610    -1.0244550
  H        1.2471430     0.6066220     1.3780870
  H        4.3142870    -0.0291260    -1.8177910
  H        5.3679410     0.7151030    -0.6066950
  H        3.8442820     1.4990380    -1.0633910
  H       -3.7175750    -1.0591810    -0.9792530
units angstrom
no_reorient  #important for SAPT in psi4, default
symmetry c1  #important for SAPT in psi4, default
}

set PROPERTIES_ORIGIN ["COM"]
properties('MP2/aug-cc-pvtz', properties = ['dipole'])
--------------------------------------------------------------------------

    Molecular point group: c1
  Charge       = 0
  Multiplicity = 1
  Basis Set: AUG-CC-PVTZ
    Blend: AUG-CC-PVTZ
  Basis Set: (AUG-CC-PVTZ AUX)
    Blend: AUG-CC-PVTZ-JKFIT

    Orbital Energies [Eh]
    ---------------------

    Doubly Occupied:

       1A    -20.552312     2A    -11.285551     3A    -11.226611
       4A    -11.225225     5A    -11.223729     6A    -11.223520
       7A    -11.223092     8A    -11.221701     9A    -11.213154
      10A     -1.341349    11A     -1.098307    12A     -1.063505
      13A     -1.020193    14A     -0.963905    15A     -0.877750
      16A     -0.829478    17A     -0.753261    18A     -0.745655
      19A     -0.690596    20A     -0.634054    21A     -0.629016
      22A     -0.613499    23A     -0.589902    24A     -0.580914
      25A     -0.547839    26A     -0.546344    27A     -0.522780
      28A     -0.518904    29A     -0.497914    30A     -0.491831
      31A     -0.479602    32A     -0.468688    33A     -0.454886
      34A     -0.420759    35A     -0.298855

  @DF-RHF Final Energy:  -386.05874561153797

   => Energetics <=

    Nuclear Repulsion Energy =            417.8025687482211197
    One-Electron Energy =               -1351.5732697212904441
    Two-Electron Energy =                 547.7119553615312952
    Total Energy =                       -386.0587456115380292
  Basis Set: (AUG-CC-PVTZ AUX)
    Blend: AUG-CC-PVTZ-RI
    Molecular point group: c1

    Geometry (in Angstrom), charge = 0, multiplicity = 1:

       Center              X                  Y                   Z               Mass
    ------------   -----------------  -----------------  -----------------  -----------------
         O           -2.783108997362    -0.918274756370    -0.748590712299    15.994914619570
         C           -2.783068997362    -0.016967056370     0.422597587701    12.000000000000
         C           -1.342881997362     0.190902243630     0.768295287701    12.000000000000
         C            3.589090002638    -0.232152756370     0.218346287701    12.000000000000
         C           -3.473842997362     1.267151243630     0.061128287701    12.000000000000
         C           -0.278501997362    -0.297493756370     0.108589287701    12.000000000000
         C            2.167743002638    -0.516028756370    -0.151447712299    12.000000000000
         C            1.093994002638    -0.029536756370     0.498299287701    12.000000000000
         C            4.326165002638     0.531520243630    -0.884237712299    12.000000000000
         H           -3.284824997362    -0.530043756370     1.229732287701     1.007825032230
         H           -1.233113997362     0.826567243630     1.648018387701     1.007825032230
         H            3.614875002638     0.343265243630     1.150937287701     1.007825032230
         H            4.115969002638    -1.175014756370     0.415012287701     1.007825032230
         H           -2.979581997362     1.738462243630    -0.791389712299     1.007825032230
         H           -4.525988997362     1.092809243630    -0.190325712299     1.007825032230
         H           -3.441844997362     1.951333243630     0.913804287701     1.007825032230
         H           -0.445280997362    -0.930094756370    -0.760275712299     1.007825032230
         H            2.008065002638    -1.146913756370    -1.028311712299     1.007825032230
         H            1.248863002638     0.603769243630     1.374230287701     1.007825032230
         H            4.316007002638    -0.031978756370    -1.821647712299     1.007825032230
         H            5.369661002638     0.712250243630    -0.610551712299     1.007825032230
         H            3.846002002638     1.496185243630    -1.067247712299     1.007825032230
         H           -3.715854997362    -1.062033756370    -0.983109712299     1.007825032230

  Basis Set: AUG-CC-PVTZ
    Blend: AUG-CC-PVTZ
  Basis Set: (AUG-CC-PVTZ AUX)
    Blend: AUG-CC-PVTZ-JKFIT
	 Reference Energy          =    -386.0587456115379723 [Eh]
	 Singles Energy            =      -0.0000000000000000 [Eh]
	 Same-Spin Energy          =      -0.4005476426215043 [Eh]
	 Opposite-Spin Energy      =      -1.3794110578435292 [Eh]
	 Correlation Energy        =      -1.7799587004650337 [Eh]
	 Total Energy              =    -387.8387043120030171 [Eh]

	 ================> DF-SCS-MP2 Energies <==================
	-----------------------------------------------------------
	 SCS Same-Spin Scale       =       0.3333333333333333 [-]
	 SCS Opposite-Spin Scale   =       1.2000000000000000 [-]
	 SCS Same-Spin Energy      =      -0.1335158808738348 [Eh]
	 SCS Opposite-Spin Energy  =      -1.6552932694122351 [Eh]
	 SCS Correlation Energy    =      -1.7888091502860699 [Eh]
	 SCS Total Energy          =    -387.8475547618240284 [Eh]
	-----------------------------------------------------------

  Dipole Moment: [D]
     X:    -1.1305      Y:     0.7555      Z:     0.6884     Total:     1.5240

*** Psi4 exiting successfully. Buy a developer a beer!
