                               Psi4 1.4a3.dev225

  ==> Input File <==

--------------------------------------------------------------------------
#psi4
#
memory 32 gb

molecule  {
0 1
  O       -2.7624640     1.3159430     0.2248240
  C       -2.8209640    -0.0168770    -0.2887760
  C       -1.4198970    -0.4865040    -0.5315690
  C        3.5469730    -0.0618850    -0.4287090
  C       -3.5485140    -0.9406360     0.6857820
  C       -0.3124200     0.2274490    -0.2577540
  C        2.1505970     0.4383770    -0.2221580
  C        1.0342680    -0.2689350    -0.4861660
  C        4.3265940    -0.1505530     0.8872490
  H       -3.3622360    -0.0200820    -1.2509840
  H       -1.3293920    -1.4912640    -0.9473420
  H        3.5136740    -1.0471260    -0.9088000
  H        4.0812660     0.6062640    -1.1173180
  H       -3.0279280    -0.9272120     1.6463760
  H       -4.5820380    -0.6089360     0.8383050
  H       -3.5770120    -1.9680220     0.3103630
  H       -0.4219900     1.2292040     0.1523950
  H        2.0532615     1.3974421     0.1740504
  H        1.1311650    -1.2755230    -0.8987060
  H        4.3778580     0.8269450     1.3761990
  H        5.3504770    -0.4972710     0.7173650
  H        3.8373540    -0.8453320     1.5752720
  H       -3.6799020     1.6047450     0.3678300
units angstrom
no_reorient  #important for SAPT in psi4, default
symmetry c1  #important for SAPT in psi4, default
}

set PROPERTIES_ORIGIN ["COM"]
properties('MP2/aug-cc-pvtz', properties = ['dipole'])
--------------------------------------------------------------------------

    Molecular point group: c1
  Charge       = 0
  Multiplicity = 1
  Basis Set: AUG-CC-PVTZ
    Blend: AUG-CC-PVTZ
  Basis Set: (AUG-CC-PVTZ AUX)
    Blend: AUG-CC-PVTZ-JKFIT

    Orbital Energies [Eh]
    ---------------------

    Doubly Occupied:

       1A    -20.558835     2A    -11.287032     3A    -11.224309
       4A    -11.223677     5A    -11.223141     6A    -11.222447
       7A    -11.220965     8A    -11.219911     9A    -11.213157
      10A     -1.360156    11A     -1.097799    12A     -1.060992
      13A     -1.015536    14A     -0.962689    15A     -0.876825
      16A     -0.828306    17A     -0.758968    18A     -0.747985
      19A     -0.695619    20A     -0.637718    21A     -0.627503
      22A     -0.616737    23A     -0.590234    24A     -0.583118
      25A     -0.547442    26A     -0.544586    27A     -0.528519
      28A     -0.518222    29A     -0.500744    30A     -0.492508
      31A     -0.480680    32A     -0.468119    33A     -0.452832
      34A     -0.417735    35A     -0.297130

  @DF-RHF Final Energy:  -386.06156273748610

   => Energetics <=

    Nuclear Repulsion Energy =            417.9803988616539527
    One-Electron Energy =               -1351.8795749752421216
    Two-Electron Energy =                 547.8376133761020128
    Total Energy =                       -386.0615627374861560
  Basis Set: (AUG-CC-PVTZ AUX)
    Blend: AUG-CC-PVTZ-RI
    Molecular point group: c1

    Geometry (in Angstrom), charge = 0, multiplicity = 1:

       Center              X                  Y                   Z               Mass
    ------------   -----------------  -----------------  -----------------  -----------------
         O           -2.728309606544     1.292994895692     0.241145721293    15.994914619570
         C           -2.786809606544    -0.039825104308    -0.272454278707    12.000000000000
         C           -1.385742606544    -0.509452104308    -0.515247278707    12.000000000000
         C            3.581127393456    -0.084833104308    -0.412387278707    12.000000000000
         C           -3.514359606544    -0.963584104308     0.702103721293    12.000000000000
         C           -0.278265606544     0.204500895692    -0.241432278707    12.000000000000
         C            2.184751393456     0.415428895692    -0.205836278707    12.000000000000
         C            1.068422393456    -0.291883104308    -0.469844278707    12.000000000000
         C            4.360748393456    -0.173501104308     0.903570721293    12.000000000000
         H           -3.328081606544    -0.043030104308    -1.234662278707     1.007825032230
         H           -1.295237606544    -1.514212104308    -0.931020278707     1.007825032230
         H            3.547828393456    -1.070074104308    -0.892478278707     1.007825032230
         H            4.115420393456     0.583315895692    -1.100996278707     1.007825032230
         H           -2.993773606544    -0.950160104308     1.662697721293     1.007825032230
         H           -4.547883606544    -0.631884104308     0.854626721293     1.007825032230
         H           -3.542857606544    -1.990970104308     0.326684721293     1.007825032230
         H           -0.387835606544     1.206255895692     0.168716721293     1.007825032230
         H            2.087415893456     1.374493995692     0.190372121293     1.007825032230
         H            1.165319393456    -1.298471104308    -0.882384278707     1.007825032230
         H            4.412012393456     0.803996895692     1.392520721293     1.007825032230
         H            5.384631393456    -0.520219104308     0.733686721293     1.007825032230
         H            3.871508393456    -0.868280104308     1.591593721293     1.007825032230
         H           -3.645747606544     1.581796895692     0.384151721293     1.007825032230

  Basis Set: AUG-CC-PVTZ
    Blend: AUG-CC-PVTZ
  Basis Set: (AUG-CC-PVTZ AUX)
    Blend: AUG-CC-PVTZ-JKFIT
	 Reference Energy          =    -386.0615627374860992 [Eh]
	 Singles Energy            =      -0.0000000000000000 [Eh]
	 Same-Spin Energy          =      -0.4001811675416991 [Eh]
	 Opposite-Spin Energy      =      -1.3780857157766775 [Eh]
	 Correlation Energy        =      -1.7782668833183766 [Eh]
	 Total Energy              =    -387.8398296208044940 [Eh]

	 ================> DF-SCS-MP2 Energies <==================
	-----------------------------------------------------------
	 SCS Same-Spin Scale       =       0.3333333333333333 [-]
	 SCS Opposite-Spin Scale   =       1.2000000000000000 [-]
	 SCS Same-Spin Energy      =      -0.1333937225138997 [Eh]
	 SCS Opposite-Spin Energy  =      -1.6537028589320129 [Eh]
	 SCS Correlation Energy    =      -1.7870965814459125 [Eh]
	 SCS Total Energy          =    -387.8486593189319933 [Eh]
	-----------------------------------------------------------

  Dipole Moment: [D]
     X:    -1.2077      Y:    -0.7737      Z:    -0.1354     Total:     1.4407

*** Psi4 exiting successfully. Buy a developer a beer!
