                               Psi4 1.4a3.dev225

  ==> Input File <==

--------------------------------------------------------------------------
#psi4
#
memory 32 gb

molecule  {
0 1
  O       -2.7624640     1.3159430     0.2248240
  C       -2.8209640    -0.0168770    -0.2887760
  C       -1.4198970    -0.4865040    -0.5315690
  C        3.5469730    -0.0618850    -0.4287090
  C       -3.5485140    -0.9406360     0.6857820
  C       -0.3124200     0.2274490    -0.2577540
  C        2.1505970     0.4383770    -0.2221580
  C        1.0756854    -0.2426927    -0.4763709
  C        4.3265940    -0.1505530     0.8872490
  H       -3.3622360    -0.0200820    -1.2509840
  H       -1.3293920    -1.4912640    -0.9473420
  H        3.5136740    -1.0471260    -0.9088000
  H        4.0812660     0.6062640    -1.1173180
  H       -3.0279280    -0.9272120     1.6463760
  H       -4.5820380    -0.6089360     0.8383050
  H       -3.5770120    -1.9680220     0.3103630
  H       -0.4219900     1.2292040     0.1523950
  H        2.0485920     1.4434520     0.1930580
  H        1.1311650    -1.2755230    -0.8987060
  H        4.3778580     0.8269450     1.3761990
  H        5.3504770    -0.4972710     0.7173650
  H        3.8373540    -0.8453320     1.5752720
  H       -3.6799020     1.6047450     0.3678300
units angstrom
no_reorient  #important for SAPT in psi4, default
symmetry c1  #important for SAPT in psi4, default
}

set PROPERTIES_ORIGIN ["COM"]
properties('MP2/aug-cc-pvtz', properties = ['dipole'])
--------------------------------------------------------------------------

    Molecular point group: c1
  Charge       = 0
  Multiplicity = 1
  Basis Set: AUG-CC-PVTZ
    Blend: AUG-CC-PVTZ
  Basis Set: (AUG-CC-PVTZ AUX)
    Blend: AUG-CC-PVTZ-JKFIT

    Orbital Energies [Eh]
    ---------------------

    Doubly Occupied:

       1A    -20.558806     2A    -11.287557     3A    -11.225540
       4A    -11.223723     5A    -11.223201     6A    -11.221542
       7A    -11.221176     8A    -11.218234     9A    -11.213043
      10A     -1.360164    11A     -1.099938    12A     -1.061702
      13A     -1.014478    14A     -0.967135    15A     -0.874499
      16A     -0.830328    17A     -0.750757    18A     -0.745327
      19A     -0.694584    20A     -0.636690    21A     -0.627496
      22A     -0.616702    23A     -0.592852    24A     -0.581732
      25A     -0.546499    26A     -0.542871    27A     -0.527558
      28A     -0.519701    29A     -0.500565    30A     -0.491148
      31A     -0.480071    32A     -0.459813    33A     -0.452704
      34A     -0.419171    35A     -0.306631

  @DF-RHF Final Energy:  -386.06102881744567

   => Energetics <=

    Nuclear Repulsion Energy =            417.9518426597661573
    One-Electron Energy =               -1351.8378648569669167
    Two-Electron Energy =                 547.8249933797551421
    Total Energy =                       -386.0610288174456173
  Basis Set: (AUG-CC-PVTZ AUX)
    Blend: AUG-CC-PVTZ-RI
    Molecular point group: c1

    Geometry (in Angstrom), charge = 0, multiplicity = 1:

       Center              X                  Y                   Z               Mass
    ------------   -----------------  -----------------  -----------------  -----------------
         O           -2.732213534615     1.290129988975     0.240061718954    15.994914619570
         C           -2.790713534615    -0.042690011025    -0.273538281046    12.000000000000
         C           -1.389646534615    -0.512317011025    -0.516331281046    12.000000000000
         C            3.577223465385    -0.087698011025    -0.413471281046    12.000000000000
         C           -3.518263534615    -0.966449011025     0.701019718954    12.000000000000
         C           -0.282169534615     0.201635988975    -0.242516281046    12.000000000000
         C            2.180847465385     0.412563988975    -0.206920281046    12.000000000000
         C            1.105935865385    -0.268505711025    -0.461133181046    12.000000000000
         C            4.356844465385    -0.176366011025     0.902486718954    12.000000000000
         H           -3.331985534615    -0.045895011025    -1.235746281046     1.007825032230
         H           -1.299141534615    -1.517077011025    -0.932104281046     1.007825032230
         H            3.543924465385    -1.072939011025    -0.893562281046     1.007825032230
         H            4.111516465385     0.580450988975    -1.102080281046     1.007825032230
         H           -2.997677534615    -0.953025011025     1.661613718954     1.007825032230
         H           -4.551787534615    -0.634749011025     0.853542718954     1.007825032230
         H           -3.546761534615    -1.993835011025     0.325600718954     1.007825032230
         H           -0.391739534615     1.203390988975     0.167632718954     1.007825032230
         H            2.078842465385     1.417638988975     0.208295718954     1.007825032230
         H            1.161415465385    -1.301336011025    -0.883468281046     1.007825032230
         H            4.408108465385     0.801131988975     1.391436718954     1.007825032230
         H            5.380727465385    -0.523084011025     0.732602718954     1.007825032230
         H            3.867604465385    -0.871145011025     1.590509718954     1.007825032230
         H           -3.649651534615     1.578931988975     0.383067718954     1.007825032230

  Basis Set: AUG-CC-PVTZ
    Blend: AUG-CC-PVTZ
  Basis Set: (AUG-CC-PVTZ AUX)
    Blend: AUG-CC-PVTZ-JKFIT
	 Reference Energy          =    -386.0610288174456741 [Eh]
	 Singles Energy            =      -0.0000000000000000 [Eh]
	 Same-Spin Energy          =      -0.3994867452918945 [Eh]
	 Opposite-Spin Energy      =      -1.3770663958017086 [Eh]
	 Correlation Energy        =      -1.7765531410936033 [Eh]
	 Total Energy              =    -387.8375819585392605 [Eh]

	 ================> DF-SCS-MP2 Energies <==================
	-----------------------------------------------------------
	 SCS Same-Spin Scale       =       0.3333333333333333 [-]
	 SCS Opposite-Spin Scale   =       1.2000000000000000 [-]
	 SCS Same-Spin Energy      =      -0.1331622484306315 [Eh]
	 SCS Opposite-Spin Energy  =      -1.6524796749620503 [Eh]
	 SCS Correlation Energy    =      -1.7856419233926817 [Eh]
	 SCS Total Energy          =    -387.8466707408383627 [Eh]
	-----------------------------------------------------------

  Dipole Moment: [D]
     X:    -1.2056      Y:    -0.7788      Z:    -0.1360     Total:     1.4417

*** Psi4 exiting successfully. Buy a developer a beer!
