                               Psi4 1.4a3.dev225

  ==> Input File <==

--------------------------------------------------------------------------
#psi4
#
memory 32 gb

molecule  {
0 1
  O       -2.7624640     1.3159430     0.2248240
  C       -2.8209640    -0.0168770    -0.2887760
  C       -1.4011848    -0.4927762    -0.5348117
  C        3.5469730    -0.0618850    -0.4287090
  C       -3.5485140    -0.9406360     0.6857820
  C       -0.3124200     0.2274490    -0.2577540
  C        2.1505970     0.4383770    -0.2221580
  C        1.0342680    -0.2689350    -0.4861660
  C        4.3265940    -0.1505530     0.8872490
  H       -3.3622360    -0.0200820    -1.2509840
  H       -1.3293920    -1.4912640    -0.9473420
  H        3.5136740    -1.0471260    -0.9088000
  H        4.0812660     0.6062640    -1.1173180
  H       -3.0279280    -0.9272120     1.6463760
  H       -4.5820380    -0.6089360     0.8383050
  H       -3.5770120    -1.9680220     0.3103630
  H       -0.4219900     1.2292040     0.1523950
  H        2.0485920     1.4434520     0.1930580
  H        1.1311650    -1.2755230    -0.8987060
  H        4.3778580     0.8269450     1.3761990
  H        5.3504770    -0.4972710     0.7173650
  H        3.8373540    -0.8453320     1.5752720
  H       -3.6799020     1.6047450     0.3678300
units angstrom
no_reorient  #important for SAPT in psi4, default
symmetry c1  #important for SAPT in psi4, default
}

set PROPERTIES_ORIGIN ["COM"]
properties('MP2/aug-cc-pvtz', properties = ['dipole'])
--------------------------------------------------------------------------

    Molecular point group: c1
  Charge       = 0
  Multiplicity = 1
  Basis Set: AUG-CC-PVTZ
    Blend: AUG-CC-PVTZ
  Basis Set: (AUG-CC-PVTZ AUX)
    Blend: AUG-CC-PVTZ-JKFIT

    Orbital Energies [Eh]
    ---------------------

    Doubly Occupied:

       1A    -20.558714     2A    -11.287704     3A    -11.226089
       4A    -11.223601     5A    -11.223380     6A    -11.222768
       7A    -11.221084     8A    -11.220751     9A    -11.213093
      10A     -1.359638    11A     -1.097630    12A     -1.059815
      13A     -1.015053    14A     -0.962708    15A     -0.874718
      16A     -0.827996    17A     -0.752246    18A     -0.749120
      19A     -0.693966    20A     -0.636738    21A     -0.627403
      22A     -0.616120    23A     -0.589682    24A     -0.583488
      25A     -0.547217    26A     -0.543797    27A     -0.526583
      28A     -0.518534    29A     -0.501851    30A     -0.491739
      31A     -0.478897    32A     -0.465045    33A     -0.452298
      34A     -0.419272    35A     -0.298899

  @DF-RHF Final Energy:  -386.06266882679733

   => Energetics <=

    Nuclear Repulsion Energy =            417.6916933146901556
    One-Electron Energy =               -1351.3334539696750198
    Two-Electron Energy =                 547.5790918281875292
    Total Energy =                       -386.0626688267973350
  Basis Set: (AUG-CC-PVTZ AUX)
    Blend: AUG-CC-PVTZ-RI
    Molecular point group: c1

    Geometry (in Angstrom), charge = 0, multiplicity = 1:

       Center              X                  Y                   Z               Mass
    ------------   -----------------  -----------------  -----------------  -----------------
         O           -2.730052925949     1.293224042780     0.241302385571    15.994914619570
         C           -2.788552925949    -0.039595957220    -0.272297614429    12.000000000000
         C           -1.368773725949    -0.515495157220    -0.518333314429    12.000000000000
         C            3.579384074051    -0.084603957220    -0.412230614429    12.000000000000
         C           -3.516102925949    -0.963354957220     0.702260385571    12.000000000000
         C           -0.280008925949     0.204730042780    -0.241275614429    12.000000000000
         C            2.183008074051     0.415658042780    -0.205679614429    12.000000000000
         C            1.066679074051    -0.291653957220    -0.469687614429    12.000000000000
         C            4.359005074051    -0.173271957220     0.903727385571    12.000000000000
         H           -3.329824925949    -0.042800957220    -1.234505614429     1.007825032230
         H           -1.296980925949    -1.513982957220    -0.930863614429     1.007825032230
         H            3.546085074051    -1.069844957220    -0.892321614429     1.007825032230
         H            4.113677074051     0.583545042780    -1.100839614429     1.007825032230
         H           -2.995516925949    -0.949930957220     1.662854385571     1.007825032230
         H           -4.549626925949    -0.631654957220     0.854783385571     1.007825032230
         H           -3.544600925949    -1.990740957220     0.326841385571     1.007825032230
         H           -0.389578925949     1.206485042780     0.168873385571     1.007825032230
         H            2.081003074051     1.420733042780     0.209536385571     1.007825032230
         H            1.163576074051    -1.298241957220    -0.882227614429     1.007825032230
         H            4.410269074051     0.804226042780     1.392677385571     1.007825032230
         H            5.382888074051    -0.519989957220     0.733843385571     1.007825032230
         H            3.869765074051    -0.868050957220     1.591750385571     1.007825032230
         H           -3.647490925949     1.582026042780     0.384308385571     1.007825032230

  Basis Set: AUG-CC-PVTZ
    Blend: AUG-CC-PVTZ
  Basis Set: (AUG-CC-PVTZ AUX)
    Blend: AUG-CC-PVTZ-JKFIT
	 Reference Energy          =    -386.0626688267973350 [Eh]
	 Singles Energy            =      -0.0000000000000000 [Eh]
	 Same-Spin Energy          =      -0.3999668809071223 [Eh]
	 Opposite-Spin Energy      =      -1.3779652351425451 [Eh]
	 Correlation Energy        =      -1.7779321160496675 [Eh]
	 Total Energy              =    -387.8406009428470043 [Eh]

	 ================> DF-SCS-MP2 Energies <==================
	-----------------------------------------------------------
	 SCS Same-Spin Scale       =       0.3333333333333333 [-]
	 SCS Opposite-Spin Scale   =       1.2000000000000000 [-]
	 SCS Same-Spin Energy      =      -0.1333222936357074 [Eh]
	 SCS Opposite-Spin Energy  =      -1.6535582821710542 [Eh]
	 SCS Correlation Energy    =      -1.7868805758067616 [Eh]
	 SCS Total Energy          =    -387.8495494026041115 [Eh]
	-----------------------------------------------------------

  Dipole Moment: [D]
     X:    -1.1983      Y:    -0.7954      Z:    -0.1456     Total:     1.4456

*** Psi4 exiting successfully. Buy a developer a beer!
