                               Psi4 1.3.2 release

  ==> Input File <==

--------------------------------------------------------------------------
#psi4
#
memory 32 gb

molecule  {
0 1
  O       -2.7848290    -0.9154220    -0.7447340
  C       -2.7698910    -0.0438090     0.3861860
  C       -1.3517237     0.1883387     0.7645673
  C        3.5873700    -0.2293000     0.2222030
  C       -3.4755630     1.2700040     0.0649850
  C       -0.2802220    -0.2946410     0.1124460
  C        2.1660230    -0.5131760    -0.1475910
  C        1.0963475    -0.0337445     0.4924584
  C        4.3244450     0.5343730    -0.8803810
  H       -3.2865450    -0.5271910     1.2335890
  H       -1.1970340     0.8260370     1.6487790
  H        3.6131550     0.3461180     1.1547940
  H        4.1142490    -1.1721620     0.4188690
  H       -2.9813020     1.7413150    -0.7875330
  H       -4.5277090     1.0956620    -0.1864690
  H       -3.4435650     1.9541860     0.9176610
  H       -0.4470010    -0.9272420    -0.7564190
  H        2.0063450    -1.1440610    -1.0244550
  H        1.2471430     0.6066220     1.3780870
  H        4.3142870    -0.0291260    -1.8177910
  H        5.3679410     0.7151030    -0.6066950
  H        3.8442820     1.4990380    -1.0633910
  H       -3.7175750    -1.0591810    -0.9792530
units angstrom
no_reorient  #important for SAPT in psi4, default
symmetry c1  #important for SAPT in psi4, default
}

set PROPERTIES_ORIGIN ["COM"]
properties('MP2/aug-cc-pvtz', properties = ['dipole'])
--------------------------------------------------------------------------

    Molecular point group: c1
  Charge       = 0
  Multiplicity = 1
  Basis Set: AUG-CC-PVTZ
    Blend: AUG-CC-PVTZ
  Basis Set: (AUG-CC-PVTZ AUX)
    Blend: AUG-CC-PVTZ-JKFIT

    Orbital Energies [Eh]
    ---------------------

    Doubly Occupied:

       1A    -20.558705     2A    -11.286366     3A    -11.224845
       4A    -11.223927     5A    -11.223406     6A    -11.222783
       7A    -11.221923     8A    -11.220957     9A    -11.212977
      10A     -1.361085    11A     -1.098741    12A     -1.062326
      13A     -1.016635    14A     -0.963726    15A     -0.877565
      16A     -0.829691    17A     -0.751859    18A     -0.745974
      19A     -0.695710    20A     -0.637442    21A     -0.628245
      22A     -0.617635    23A     -0.590886    24A     -0.582464
      25A     -0.546261    26A     -0.542869    27A     -0.526989
      28A     -0.519277    29A     -0.499499    30A     -0.492315
      31A     -0.479378    32A     -0.467908    33A     -0.453297
      34A     -0.418982    35A     -0.299091

  @DF-RHF Final Energy:  -386.06237793194549

   => Energetics <=

    Nuclear Repulsion Energy =            418.4709106529767837
    One-Electron Energy =               -1352.8630957650225355
    Two-Electron Energy =                 548.3298071801002607
    Total Energy =                       -386.0623779319455480
  Basis Set: (AUG-CC-PVTZ AUX)
    Blend: AUG-CC-PVTZ-RI
    Molecular point group: c1

    Geometry (in Angstrom), charge = 0, multiplicity = 1:

       Center              X                  Y                   Z               Mass
    ------------   -----------------  -----------------  -----------------  -----------------
         O           -2.784538711894    -0.914234713285    -0.743089499263    15.994914619570
         C           -2.769600711894    -0.042621713285     0.387830500737    12.000000000000
         C           -1.351433411894     0.189525986715     0.766211800737    12.000000000000
         C            3.587660288106    -0.228112713285     0.223847500737    12.000000000000
         C           -3.475272711894     1.271191286715     0.066629500737    12.000000000000
         C           -0.279931711894    -0.293453713285     0.114090500737    12.000000000000
         C            2.166313288106    -0.511988713285    -0.145946499263    12.000000000000
         C            1.096637788106    -0.032557213285     0.494102900737    12.000000000000
         C            4.324735288106     0.535560286715    -0.878736499263    12.000000000000
         H           -3.286254711894    -0.526003713285     1.235233500737     1.007825032230
         H           -1.196743711894     0.827224286715     1.650423500737     1.007825032230
         H            3.613445288106     0.347305286715     1.156438500737     1.007825032230
         H            4.114539288106    -1.170974713285     0.420513500737     1.007825032230
         H           -2.981011711894     1.742502286715    -0.785888499263     1.007825032230
         H           -4.527418711894     1.096849286715    -0.184824499263     1.007825032230
         H           -3.443274711894     1.955373286715     0.919305500737     1.007825032230
         H           -0.446710711894    -0.926054713285    -0.754774499263     1.007825032230
         H            2.006635288106    -1.142873713285    -1.022810499263     1.007825032230
         H            1.247433288106     0.607809286715     1.379731500737     1.007825032230
         H            4.314577288106    -0.027938713285    -1.816146499263     1.007825032230
         H            5.368231288106     0.716290286715    -0.605050499263     1.007825032230
         H            3.844572288106     1.500225286715    -1.061746499263     1.007825032230
         H           -3.717284711894    -1.057993713285    -0.977608499263     1.007825032230

  Basis Set: AUG-CC-PVTZ
    Blend: AUG-CC-PVTZ
  Basis Set: (AUG-CC-PVTZ AUX)
    Blend: AUG-CC-PVTZ-JKFIT
	 Reference Energy          =    -386.0623779319454911 [Eh]
	 Singles Energy            =      -0.0000000000000000 [Eh]
	 Same-Spin Energy          =      -0.4003625840203939 [Eh]
	 Opposite-Spin Energy      =      -1.3782082348564102 [Eh]
	 Correlation Energy        =      -1.7785708188768041 [Eh]
	 Total Energy              =    -387.8409487508222924 [Eh]

	 ================> DF-SCS-MP2 Energies <==================
	-----------------------------------------------------------
	 SCS Same-Spin Scale       =       0.3333333333333333 [-]
	 SCS Opposite-Spin Scale   =       1.2000000000000000 [-]
	 SCS Same-Spin Energy      =      -0.1334541946734646 [Eh]
	 SCS Opposite-Spin Energy  =      -1.6538498818276921 [Eh]
	 SCS Correlation Energy    =      -1.7873040765011567 [Eh]
	 SCS Total Energy          =    -387.8496820084466208 [Eh]
	-----------------------------------------------------------

  Dipole Moment: [D]
     X:    -1.1674      Y:     0.6395      Z:     0.5681     Total:     1.4472

*** Psi4 exiting successfully. Buy a developer a beer!
