                               Psi4 1.3.2 release

  ==> Input File <==

--------------------------------------------------------------------------
#psi4
#
memory 32 gb

molecule  {
0 1
  O       -2.7848290    -0.9154220    -0.7447340
  C       -2.7698910    -0.0438090     0.3861860
  C       -1.3446020     0.1937550     0.7721520
  C        3.5873700    -0.2293000     0.2222030
  C       -3.4755630     1.2700040     0.0649850
  C       -0.2387267    -0.2616321     0.1587110
  C        2.1660230    -0.5131760    -0.1475910
  C        1.0922740    -0.0266840     0.5021560
  C        4.3244450     0.5343730    -0.8803810
  H       -3.2865450    -0.5271910     1.2335890
  H       -1.1406706     0.8202477     1.6416062
  H        3.6131550     0.3461180     1.1547940
  H        4.1142490    -1.1721620     0.4188690
  H       -2.9813020     1.7413150    -0.7875330
  H       -4.5277090     1.0956620    -0.1864690
  H       -3.4435650     1.9541860     0.9176610
  H       -0.4470010    -0.9272420    -0.7564190
  H        2.0063450    -1.1440610    -1.0244550
  H        1.2471430     0.6066220     1.3780870
  H        4.3142870    -0.0291260    -1.8177910
  H        5.3679410     0.7151030    -0.6066950
  H        3.8442820     1.4990380    -1.0633910
  H       -3.7175750    -1.0591810    -0.9792530
units angstrom
no_reorient  #important for SAPT in psi4, default
symmetry c1  #important for SAPT in psi4, default
}

set PROPERTIES_ORIGIN ["COM"]
properties('MP2/aug-cc-pvtz', properties = ['dipole'])
--------------------------------------------------------------------------

    Molecular point group: c1
  Charge       = 0
  Multiplicity = 1
  Basis Set: AUG-CC-PVTZ
    Blend: AUG-CC-PVTZ
  Basis Set: (AUG-CC-PVTZ AUX)
    Blend: AUG-CC-PVTZ-JKFIT

    Orbital Energies [Eh]
    ---------------------

    Doubly Occupied:

       1A    -20.559437     2A    -11.289530     3A    -11.228450
       4A    -11.224316     5A    -11.223282     6A    -11.221690
       7A    -11.221194     8A    -11.219892     9A    -11.213713
      10A     -1.361330    11A     -1.103649    12A     -1.061518
      13A     -1.020246    14A     -0.963180    15A     -0.880735
      16A     -0.830136    17A     -0.758556    18A     -0.739695
      19A     -0.696256    20A     -0.636507    21A     -0.631522
      22A     -0.618176    23A     -0.592096    24A     -0.584808
      25A     -0.546164    26A     -0.541946    27A     -0.528190
      28A     -0.519186    29A     -0.496131    30A     -0.483734
      31A     -0.480502    32A     -0.469801    33A     -0.454429
      34A     -0.425173    35A     -0.294125

  @DF-RHF Final Energy:  -386.05438632641346

   => Energetics <=

    Nuclear Repulsion Energy =            418.5908878739769534
    One-Electron Energy =               -1353.0519593547621753
    Two-Electron Energy =                 548.4066851543717576
    Total Energy =                       -386.0543863264134643
  Basis Set: (AUG-CC-PVTZ AUX)
    Blend: AUG-CC-PVTZ-RI
    Molecular point group: c1

    Geometry (in Angstrom), charge = 0, multiplicity = 1:

       Center              X                  Y                   Z               Mass
    ------------   -----------------  -----------------  -----------------  -----------------
         O           -2.789227891179    -0.918516828104    -0.749079284575    15.994914619570
         C           -2.774289891179    -0.046903828104     0.381840715425    12.000000000000
         C           -1.349000891179     0.190660171896     0.767806715425    12.000000000000
         C            3.582971108821    -0.232394828104     0.217857715425    12.000000000000
         C           -3.479961891179     1.266909171896     0.060639715425    12.000000000000
         C           -0.243125591179    -0.264726928104     0.154365715425    12.000000000000
         C            2.161624108821    -0.516270828104    -0.151936284575    12.000000000000
         C            1.087875108821    -0.029778828104     0.497810715425    12.000000000000
         C            4.320046108821     0.531278171896    -0.884726284575    12.000000000000
         H           -3.290943891179    -0.530285828104     1.229243715425     1.007825032230
         H           -1.145069491179     0.817152871896     1.637260915425     1.007825032230
         H            3.608756108821     0.343023171896     1.150448715425     1.007825032230
         H            4.109850108821    -1.175256828104     0.414523715425     1.007825032230
         H           -2.985700891179     1.738220171896    -0.791878284575     1.007825032230
         H           -4.532107891179     1.092567171896    -0.190814284575     1.007825032230
         H           -3.447963891179     1.951091171896     0.913315715425     1.007825032230
         H           -0.451399891179    -0.930336828104    -0.760764284575     1.007825032230
         H            2.001946108821    -1.147155828104    -1.028800284575     1.007825032230
         H            1.242744108821     0.603527171896     1.373741715425     1.007825032230
         H            4.309888108821    -0.032220828104    -1.822136284575     1.007825032230
         H            5.363542108821     0.712008171896    -0.611040284575     1.007825032230
         H            3.839883108821     1.495943171896    -1.067736284575     1.007825032230
         H           -3.721973891179    -1.062275828104    -0.983598284575     1.007825032230

  Basis Set: AUG-CC-PVTZ
    Blend: AUG-CC-PVTZ
  Basis Set: (AUG-CC-PVTZ AUX)
    Blend: AUG-CC-PVTZ-JKFIT
	 Reference Energy          =    -386.0543863264134643 [Eh]
	 Singles Energy            =      -0.0000000000000000 [Eh]
	 Same-Spin Energy          =      -0.4014531535234632 [Eh]
	 Opposite-Spin Energy      =      -1.3795977472185759 [Eh]
	 Correlation Energy        =      -1.7810509007420392 [Eh]
	 Total Energy              =    -387.8354372271555235 [Eh]

	 ================> DF-SCS-MP2 Energies <==================
	-----------------------------------------------------------
	 SCS Same-Spin Scale       =       0.3333333333333333 [-]
	 SCS Opposite-Spin Scale   =       1.2000000000000000 [-]
	 SCS Same-Spin Energy      =      -0.1338177178411544 [Eh]
	 SCS Opposite-Spin Energy  =      -1.6555172966622911 [Eh]
	 SCS Correlation Energy    =      -1.7893350145034455 [Eh]
	 SCS Total Energy          =    -387.8437213409168862 [Eh]
	-----------------------------------------------------------

  Dipole Moment: [D]
     X:    -1.1237      Y:     0.6480      Z:     0.5672     Total:     1.4157

*** Psi4 exiting successfully. Buy a developer a beer!
