                               Psi4 1.3.2 release

  ==> Input File <==

--------------------------------------------------------------------------
#psi4
#
memory 32 gb

molecule  {
0 1
  O       -2.7848290    -0.9154220    -0.7447340
  C       -2.7915811     0.0008303     0.4467495
  C       -1.3446020     0.1937550     0.7721520
  C        3.5873700    -0.2293000     0.2222030
  C       -3.4755630     1.2700040     0.0649850
  C       -0.2802220    -0.2946410     0.1124460
  C        2.1660230    -0.5131760    -0.1475910
  C        1.0922740    -0.0266840     0.5021560
  C        4.3244450     0.5343730    -0.8803810
  H       -3.2865450    -0.5271910     1.2335890
  H       -1.2537870     0.8308214     1.6530214
  H        3.6131550     0.3461180     1.1547940
  H        4.1142490    -1.1721620     0.4188690
  H       -2.9813020     1.7413150    -0.7875330
  H       -4.5277090     1.0956620    -0.1864690
  H       -3.4435650     1.9541860     0.9176610
  H       -0.4470010    -0.9272420    -0.7564190
  H        2.0063450    -1.1440610    -1.0244550
  H        1.2471430     0.6066220     1.3780870
  H        4.3142870    -0.0291260    -1.8177910
  H        5.3679410     0.7151030    -0.6066950
  H        3.8442820     1.4990380    -1.0633910
  H       -3.7175750    -1.0591810    -0.9792530
units angstrom
no_reorient  #important for SAPT in psi4, default
symmetry c1  #important for SAPT in psi4, default
}

set PROPERTIES_ORIGIN ["COM"]
properties('MP2/aug-cc-pvtz', properties = ['dipole'])
--------------------------------------------------------------------------

    Molecular point group: c1
  Charge       = 0
  Multiplicity = 1
  Basis Set: AUG-CC-PVTZ
    Blend: AUG-CC-PVTZ
  Basis Set: (AUG-CC-PVTZ AUX)
    Blend: AUG-CC-PVTZ-JKFIT

    Orbital Energies [Eh]
    ---------------------

    Doubly Occupied:

       1A    -20.548922     2A    -11.285525     3A    -11.226985
       4A    -11.226192     5A    -11.224061     6A    -11.223808
       7A    -11.223665     8A    -11.222300     9A    -11.213307
      10A     -1.332277    11A     -1.098631    12A     -1.064838
      13A     -1.022125    14A     -0.964591    15A     -0.878481
      16A     -0.830107    17A     -0.753817    18A     -0.745115
      19A     -0.688106    20A     -0.634031    21A     -0.628961
      22A     -0.611816    23A     -0.590181    24A     -0.579742
      25A     -0.550498    26A     -0.546502    27A     -0.521370
      28A     -0.518526    29A     -0.496904    30A     -0.489590
      31A     -0.479813    32A     -0.468647    33A     -0.454934
      34A     -0.421752    35A     -0.299521

  @DF-RHF Final Energy:  -386.05480501936768

   => Energetics <=

    Nuclear Repulsion Energy =            417.5790603242568864
    One-Electron Energy =               -1351.1364490693888456
    Two-Electron Energy =                 547.5025837257642252
    Total Energy =                       -386.0548050193676772
  Basis Set: (AUG-CC-PVTZ AUX)
    Blend: AUG-CC-PVTZ-RI
    Molecular point group: c1

    Geometry (in Angstrom), charge = 0, multiplicity = 1:

       Center              X                  Y                   Z               Mass
    ------------   -----------------  -----------------  -----------------  -----------------
         O           -2.782311194463    -0.919708072517    -0.750531148505    15.994914619570
         C           -2.789063294463    -0.003455772517     0.440952351495    12.000000000000
         C           -1.342084194463     0.189468927483     0.766354851495    12.000000000000
         C            3.589887805537    -0.233586072517     0.216405851495    12.000000000000
         C           -3.473045194463     1.265717927483     0.059187851495    12.000000000000
         C           -0.277704194463    -0.298927072517     0.106648851495    12.000000000000
         C            2.168540805537    -0.517462072517    -0.153388148505    12.000000000000
         C            1.094791805537    -0.030970072517     0.496358851495    12.000000000000
         C            4.326962805537     0.530086927483    -0.886178148505    12.000000000000
         H           -3.284027194463    -0.531477072517     1.227791851495     1.007825032230
         H           -1.251269194463     0.826535327483     1.647224251495     1.007825032230
         H            3.615672805537     0.341831927483     1.148996851495     1.007825032230
         H            4.116766805537    -1.176448072517     0.413071851495     1.007825032230
         H           -2.978784194463     1.737028927483    -0.793330148505     1.007825032230
         H           -4.525191194463     1.091375927483    -0.192266148505     1.007825032230
         H           -3.441047194463     1.949899927483     0.911863851495     1.007825032230
         H           -0.444483194463    -0.931528072517    -0.762216148505     1.007825032230
         H            2.008862805537    -1.148347072517    -1.030252148505     1.007825032230
         H            1.249660805537     0.602335927483     1.372289851495     1.007825032230
         H            4.316804805537    -0.033412072517    -1.823588148505     1.007825032230
         H            5.370458805537     0.710816927483    -0.612492148505     1.007825032230
         H            3.846799805537     1.494751927483    -1.069188148505     1.007825032230
         H           -3.715057194463    -1.063467072517    -0.985050148505     1.007825032230

  Basis Set: AUG-CC-PVTZ
    Blend: AUG-CC-PVTZ
  Basis Set: (AUG-CC-PVTZ AUX)
    Blend: AUG-CC-PVTZ-JKFIT
	 Reference Energy          =    -386.0548050193676772 [Eh]
	 Singles Energy            =      -0.0000000000000000 [Eh]
	 Same-Spin Energy          =      -0.4007288822055377 [Eh]
	 Opposite-Spin Energy      =      -1.3800986456498776 [Eh]
	 Correlation Energy        =      -1.7808275278554153 [Eh]
	 Total Energy              =    -387.8356325472230992 [Eh]

	 ================> DF-SCS-MP2 Energies <==================
	-----------------------------------------------------------
	 SCS Same-Spin Scale       =       0.3333333333333333 [-]
	 SCS Opposite-Spin Scale   =       1.2000000000000000 [-]
	 SCS Same-Spin Energy      =      -0.1335762940685126 [Eh]
	 SCS Opposite-Spin Energy  =      -1.6561183747798531 [Eh]
	 SCS Correlation Energy    =      -1.7896946688483657 [Eh]
	 SCS Total Energy          =    -387.8444996882160467 [Eh]
	-----------------------------------------------------------

  Dipole Moment: [D]
     X:    -1.1142      Y:     0.8115      Z:     0.7404     Total:     1.5646

*** Psi4 exiting successfully. Buy a developer a beer!
