                               Psi4 1.3.2 release

  ==> Input File <==

--------------------------------------------------------------------------
#psi4
#
memory 32 gb

molecule  {
0 1
  O       -2.7848290    -0.9154220    -0.7447340
  C       -2.7698910    -0.0438090     0.3861860
  C       -1.3446020     0.1937550     0.7721520
  C        3.5873700    -0.2293000     0.2222030
  C       -3.4755630     1.2700040     0.0649850
  C       -0.2802220    -0.2946410     0.1124460
  C        2.1660230    -0.5131760    -0.1475910
  C        1.0922740    -0.0266840     0.5021560
  C        4.3244450     0.5343730    -0.8803810
  H       -3.2865450    -0.5271910     1.2335890
  H       -1.1970340     0.8260370     1.6487790
  H        3.6131550     0.3461180     1.1547940
  H        4.1142490    -1.1721620     0.4188690
  H       -2.9813020     1.7413150    -0.7875330
  H       -4.5277090     1.0956620    -0.1864690
  H       -3.4435650     1.9541860     0.9176610
  H       -0.4163325    -0.8109148    -0.5966459
  H        2.0063450    -1.1440610    -1.0244550
  H        1.2471430     0.6066220     1.3780870
  H        4.3142870    -0.0291260    -1.8177910
  H        5.3679410     0.7151030    -0.6066950
  H        3.8442820     1.4990380    -1.0633910
  H       -3.7175750    -1.0591810    -0.9792530
units angstrom
no_reorient  #important for SAPT in psi4, default
symmetry c1  #important for SAPT in psi4, default
}

set PROPERTIES_ORIGIN ["COM"]
properties('MP2/aug-cc-pvtz', properties = ['dipole'])
--------------------------------------------------------------------------

    Molecular point group: c1
  Charge       = 0
  Multiplicity = 1
  Basis Set: AUG-CC-PVTZ
    Blend: AUG-CC-PVTZ
  Basis Set: (AUG-CC-PVTZ AUX)
    Blend: AUG-CC-PVTZ-JKFIT

    Orbital Energies [Eh]
    ---------------------

    Doubly Occupied:

       1A    -20.559181     2A    -11.286571     3A    -11.225534
       4A    -11.223079     5A    -11.222552     6A    -11.222266
       7A    -11.220856     8A    -11.212728     9A    -11.200009
      10A     -1.361098    11A     -1.102735    12A     -1.062873
      13A     -1.018847    14A     -0.964057    15A     -0.879824
      16A     -0.831408    17A     -0.776437    18A     -0.751931
      19A     -0.696543    20A     -0.648336    21A     -0.627548
      22A     -0.618336    23A     -0.592525    24A     -0.583401
      25A     -0.549858    26A     -0.545048    27A     -0.527183
      28A     -0.521722    29A     -0.511398    30A     -0.493443
      31A     -0.478975    32A     -0.468585    33A     -0.453072
      34A     -0.418174    35A     -0.297362

  @DF-RHF Final Energy:  -386.02798396165969

   => Energetics <=

    Nuclear Repulsion Energy =            419.2793426125193719
    One-Electron Energy =               -1354.3076636653502192
    Two-Electron Energy =                 549.0003370911712182
    Total Energy =                       -386.0279839616596291
  Basis Set: (AUG-CC-PVTZ AUX)
    Blend: AUG-CC-PVTZ-RI
    Molecular point group: c1

    Geometry (in Angstrom), charge = 0, multiplicity = 1:

       Center              X                  Y                   Z               Mass
    ------------   -----------------  -----------------  -----------------  -----------------
         O           -2.785073878368    -0.916351680864    -0.746010973372    15.994914619570
         C           -2.770135878368    -0.044738680864     0.384909026628    12.000000000000
         C           -1.344846878368     0.192825319136     0.770875026628    12.000000000000
         C            3.587125121632    -0.230229680864     0.220926026628    12.000000000000
         C           -3.475807878368     1.269074319136     0.063708026628    12.000000000000
         C           -0.280466878368    -0.295570680864     0.111169026628    12.000000000000
         C            2.165778121632    -0.514105680864    -0.148867973372    12.000000000000
         C            1.092029121632    -0.027613680864     0.500879026628    12.000000000000
         C            4.324200121632     0.533443319136    -0.881657973372    12.000000000000
         H           -3.286789878368    -0.528120680864     1.232312026628     1.007825032230
         H           -1.197278878368     0.825107319136     1.647502026628     1.007825032230
         H            3.612910121632     0.345188319136     1.153517026628     1.007825032230
         H            4.114004121632    -1.173091680864     0.417592026628     1.007825032230
         H           -2.981546878368     1.740385319136    -0.788809973372     1.007825032230
         H           -4.527953878368     1.094732319136    -0.187745973372     1.007825032230
         H           -3.443809878368     1.953256319136     0.916384026628     1.007825032230
         H           -0.416577378368    -0.811844480864    -0.597922873372     1.007825032230
         H            2.006100121632    -1.144990680864    -1.025731973372     1.007825032230
         H            1.246898121632     0.605692319136     1.376810026628     1.007825032230
         H            4.314042121632    -0.030055680864    -1.819067973372     1.007825032230
         H            5.367696121632     0.714173319136    -0.607971973372     1.007825032230
         H            3.844037121632     1.498108319136    -1.064667973372     1.007825032230
         H           -3.717819878368    -1.060110680864    -0.980529973372     1.007825032230

  Basis Set: AUG-CC-PVTZ
    Blend: AUG-CC-PVTZ
  Basis Set: (AUG-CC-PVTZ AUX)
    Blend: AUG-CC-PVTZ-JKFIT
	 Reference Energy          =    -386.0279839616596860 [Eh]
	 Singles Energy            =      -0.0000000000000000 [Eh]
	 Same-Spin Energy          =      -0.3998559593247327 [Eh]
	 Opposite-Spin Energy      =      -1.3774936883514246 [Eh]
	 Correlation Energy        =      -1.7773496476761572 [Eh]
	 Total Energy              =    -387.8053336093358325 [Eh]

	 ================> DF-SCS-MP2 Energies <==================
	-----------------------------------------------------------
	 SCS Same-Spin Scale       =       0.3333333333333333 [-]
	 SCS Opposite-Spin Scale   =       1.2000000000000000 [-]
	 SCS Same-Spin Energy      =      -0.1332853197749109 [Eh]
	 SCS Opposite-Spin Energy  =      -1.6529924260217095 [Eh]
	 SCS Correlation Energy    =      -1.7862777457966204 [Eh]
	 SCS Total Energy          =    -387.8142617074562963 [Eh]
	-----------------------------------------------------------

  Dipole Moment: [D]
     X:    -1.1734      Y:     0.6432      Z:     0.5795     Total:     1.4582

*** Psi4 exiting successfully. Buy a developer a beer!
