                               Psi4 1.3.2 release

  ==> Input File <==

--------------------------------------------------------------------------
#psi4
#
memory 32 gb

molecule  {
0 1
  O       -2.8594936    -0.9117745    -0.7440882
  C       -2.7698910    -0.0438090     0.3861860
  C       -1.3701305     0.2396346     0.8302418
  C        3.5873700    -0.2293000     0.2222030
  C       -3.4755630     1.2700040     0.0649850
  C       -0.2802220    -0.2946410     0.1124460
  C        2.1660230    -0.5131760    -0.1475910
  C        1.0922740    -0.0266840     0.5021560
  C        4.3244450     0.5343730    -0.8803810
  H       -3.2865450    -0.5271910     1.2335890
  H       -1.1970340     0.8260370     1.6487790
  H        3.6131550     0.3461180     1.1547940
  H        4.1142490    -1.1721620     0.4188690
  H       -2.9813020     1.7413150    -0.7875330
  H       -4.5277090     1.0956620    -0.1864690
  H       -3.4435650     1.9541860     0.9176610
  H       -0.4470010    -0.9272420    -0.7564190
  H        2.0063450    -1.1440610    -1.0244550
  H        1.2471430     0.6066220     1.3780870
  H        4.3142870    -0.0291260    -1.8177910
  H        5.3679410     0.7151030    -0.6066950
  H        3.8442820     1.4990380    -1.0633910
  H       -3.7175750    -1.0591810    -0.9792530
units angstrom
no_reorient  #important for SAPT in psi4, default
symmetry c1  #important for SAPT in psi4, default
}

set PROPERTIES_ORIGIN ["COM"]
properties('MP2/aug-cc-pvtz', properties = ['dipole'])
--------------------------------------------------------------------------

    Molecular point group: c1
  Charge       = 0
  Multiplicity = 1
  Basis Set: AUG-CC-PVTZ
    Blend: AUG-CC-PVTZ
  Basis Set: (AUG-CC-PVTZ AUX)
    Blend: AUG-CC-PVTZ-JKFIT

    Orbital Energies [Eh]
    ---------------------

    Doubly Occupied:

       1A    -20.550725     2A    -11.288018     3A    -11.234659
       4A    -11.228488     5A    -11.226914     6A    -11.224179
       7A    -11.223878     8A    -11.218330     9A    -11.213429
      10A     -1.374228    11A     -1.096480    12A     -1.062721
      13A     -1.016333    14A     -0.957668    15A     -0.878618
      16A     -0.828258    17A     -0.771773    18A     -0.750791
      19A     -0.699307    20A     -0.641919    21A     -0.623582
      22A     -0.618148    23A     -0.598803    24A     -0.583479
      25A     -0.552516    26A     -0.542057    27A     -0.528345
      28A     -0.520531    29A     -0.508912    30A     -0.488656
      31A     -0.479177    32A     -0.466388    33A     -0.452826
      34A     -0.413604    35A     -0.289734

  @DF-RHF Final Energy:  -386.04939032047861

   => Energetics <=

    Nuclear Repulsion Energy =            417.1241768146270488
    One-Electron Energy =               -1350.0401858140980949
    Two-Electron Energy =                 546.8666186789923813
    Total Energy =                       -386.0493903204786648
  Basis Set: (AUG-CC-PVTZ AUX)
    Blend: AUG-CC-PVTZ-RI
    Molecular point group: c1

    Geometry (in Angstrom), charge = 0, multiplicity = 1:

       Center              X                  Y                   Z               Mass
    ------------   -----------------  -----------------  -----------------  -----------------
         O           -2.847593750715    -0.916603005436    -0.749697960366    15.994914619570
         C           -2.757991150715    -0.048637505436     0.380576239634    12.000000000000
         C           -1.358230650715     0.234806094564     0.824632039634    12.000000000000
         C            3.599269849285    -0.234128505436     0.216593239634    12.000000000000
         C           -3.463663150715     1.265175494564     0.059375239634    12.000000000000
         C           -0.268322150715    -0.299469505436     0.106836239634    12.000000000000
         C            2.177922849285    -0.518004505436    -0.153200760366    12.000000000000
         C            1.104173849285    -0.031512505436     0.496546239634    12.000000000000
         C            4.336344849285     0.529544494564    -0.885990760366    12.000000000000
         H           -3.274645150715    -0.532019505436     1.227979239634     1.007825032230
         H           -1.185134150715     0.821208494564     1.643169239634     1.007825032230
         H            3.625054849285     0.341289494564     1.149184239634     1.007825032230
         H            4.126148849285    -1.176990505436     0.413259239634     1.007825032230
         H           -2.969402150715     1.736486494564    -0.793142760366     1.007825032230
         H           -4.515809150715     1.090833494564    -0.192078760366     1.007825032230
         H           -3.431665150715     1.949357494564     0.912051239634     1.007825032230
         H           -0.435101150715    -0.932070505436    -0.762028760366     1.007825032230
         H            2.018244849285    -1.148889505436    -1.030064760366     1.007825032230
         H            1.259042849285     0.601793494564     1.372477239634     1.007825032230
         H            4.326186849285    -0.033954505436    -1.823400760366     1.007825032230
         H            5.379840849285     0.710274494564    -0.612304760366     1.007825032230
         H            3.856181849285     1.494209494564    -1.069000760366     1.007825032230
         H           -3.705675150715    -1.064009505436    -0.984862760366     1.007825032230

  Basis Set: AUG-CC-PVTZ
    Blend: AUG-CC-PVTZ
  Basis Set: (AUG-CC-PVTZ AUX)
    Blend: AUG-CC-PVTZ-JKFIT
	 Reference Energy          =    -386.0493903204786079 [Eh]
	 Singles Energy            =      -0.0000000000000000 [Eh]
	 Same-Spin Energy          =      -0.4000921896580772 [Eh]
	 Opposite-Spin Energy      =      -1.3776533510338589 [Eh]
	 Correlation Energy        =      -1.7777455406919360 [Eh]
	 Total Energy              =    -387.8271358611705182 [Eh]

	 ================> DF-SCS-MP2 Energies <==================
	-----------------------------------------------------------
	 SCS Same-Spin Scale       =       0.3333333333333333 [-]
	 SCS Opposite-Spin Scale   =       1.2000000000000000 [-]
	 SCS Same-Spin Energy      =      -0.1333640632193591 [Eh]
	 SCS Opposite-Spin Energy  =      -1.6531840212406306 [Eh]
	 SCS Correlation Energy    =      -1.7865480844599897 [Eh]
	 SCS Total Energy          =    -387.8359384049385881 [Eh]
	-----------------------------------------------------------

  Dipole Moment: [D]
     X:    -0.9841      Y:     0.6466      Z:     0.6305     Total:     1.3357

*** Psi4 exiting successfully. Buy a developer a beer!
