                               Psi4 1.4a3.dev225

  ==> Input File <==

--------------------------------------------------------------------------
#psi4
#
memory 32 gb

molecule  {
0 1
  O       -2.7624640     1.3159430     0.2248240
  C       -2.8209640    -0.0168770    -0.2887760
  C       -1.4198970    -0.4865040    -0.5315690
  C        3.5469730    -0.0618850    -0.4287090
  C       -3.5485140    -0.9406360     0.6857820
  C       -0.3124200     0.2274490    -0.2577540
  C        2.1505970     0.4383770    -0.2221580
  C        0.9879366    -0.2518574    -0.4783077
  C        4.3265940    -0.1505530     0.8872490
  H       -3.3622360    -0.0200820    -1.2509840
  H       -1.3293920    -1.4912640    -0.9473420
  H        3.5136740    -1.0471260    -0.9088000
  H        4.0812660     0.6062640    -1.1173180
  H       -3.0279280    -0.9272120     1.6463760
  H       -4.5820380    -0.6089360     0.8383050
  H       -3.5770120    -1.9680220     0.3103630
  H       -0.4219900     1.2292040     0.1523950
  H        2.0485920     1.4434520     0.1930580
  H        1.1311650    -1.2755230    -0.8987060
  H        4.3778580     0.8269450     1.3761990
  H        5.3504770    -0.4972710     0.7173650
  H        3.8373540    -0.8453320     1.5752720
  H       -3.6799020     1.6047450     0.3678300
units angstrom
no_reorient  #important for SAPT in psi4, default
symmetry c1  #important for SAPT in psi4, default
}

set PROPERTIES_ORIGIN ["COM"]
properties('MP2/aug-cc-pvtz', properties = ['dipole'])
--------------------------------------------------------------------------

    Molecular point group: c1
  Charge       = 0
  Multiplicity = 1
  Basis Set: AUG-CC-PVTZ
    Blend: AUG-CC-PVTZ
  Basis Set: (AUG-CC-PVTZ AUX)
    Blend: AUG-CC-PVTZ-JKFIT

    Orbital Energies [Eh]
    ---------------------

    Doubly Occupied:

       1A    -20.559138     2A    -11.287348     3A    -11.230487
       4A    -11.226122     5A    -11.225237     6A    -11.224418
       7A    -11.221265     8A    -11.220079     9A    -11.213777
      10A     -1.360481    11A     -1.099586    12A     -1.060403
      13A     -1.018925    14A     -0.959291    15A     -0.880102
      16A     -0.827926    17A     -0.754102    18A     -0.746919
      19A     -0.695122    20A     -0.637476    21A     -0.629286
      22A     -0.616702    23A     -0.588478    24A     -0.585045
      25A     -0.546748    26A     -0.543552    27A     -0.524067
      28A     -0.518536    29A     -0.499703    30A     -0.491539
      31A     -0.476840    32A     -0.473930    33A     -0.453773
      34A     -0.422005    35A     -0.289923

  @DF-RHF Final Energy:  -386.05660268555357

   => Energetics <=

    Nuclear Repulsion Energy =            417.9981137287068123
    One-Electron Energy =               -1351.8927752615486497
    Two-Electron Energy =                 547.8380588472882664
    Total Energy =                       -386.0566026855535711
  Basis Set: (AUG-CC-PVTZ AUX)
    Blend: AUG-CC-PVTZ-RI
    Molecular point group: c1

    Geometry (in Angstrom), charge = 0, multiplicity = 1:

       Center              X                  Y                   Z               Mass
    ------------   -----------------  -----------------  -----------------  -----------------
         O           -2.723863429015     1.291002094495     0.240246023293    15.994914619570
         C           -2.782363429015    -0.041817905505    -0.273353976707    12.000000000000
         C           -1.381296429015    -0.511444905505    -0.516146976707    12.000000000000
         C            3.585573570985    -0.086825905505    -0.413286976707    12.000000000000
         C           -3.509913429015    -0.965576905505     0.701204023293    12.000000000000
         C           -0.273819429015     0.202508094495    -0.242331976707    12.000000000000
         C            2.189197570985     0.413436094495    -0.206735976707    12.000000000000
         C            1.026537170985    -0.276798305505    -0.462885676707    12.000000000000
         C            4.365194570985    -0.175493905505     0.902671023293    12.000000000000
         H           -3.323635429015    -0.045022905505    -1.235561976707     1.007825032230
         H           -1.290791429015    -1.516204905505    -0.931919976707     1.007825032230
         H            3.552274570985    -1.072066905505    -0.893377976707     1.007825032230
         H            4.119866570985     0.581323094495    -1.101895976707     1.007825032230
         H           -2.989327429015    -0.952152905505     1.661798023293     1.007825032230
         H           -4.543437429015    -0.633876905505     0.853727023293     1.007825032230
         H           -3.538411429015    -1.992962905505     0.325785023293     1.007825032230
         H           -0.383389429015     1.204263094495     0.167817023293     1.007825032230
         H            2.087192570985     1.418511094495     0.208480023293     1.007825032230
         H            1.169765570985    -1.300463905505    -0.883283976707     1.007825032230
         H            4.416458570985     0.802004094495     1.391621023293     1.007825032230
         H            5.389077570985    -0.522211905505     0.732787023293     1.007825032230
         H            3.875954570985    -0.870272905505     1.590694023293     1.007825032230
         H           -3.641301429015     1.579804094495     0.383252023293     1.007825032230

  Basis Set: AUG-CC-PVTZ
    Blend: AUG-CC-PVTZ
  Basis Set: (AUG-CC-PVTZ AUX)
    Blend: AUG-CC-PVTZ-JKFIT
	 Reference Energy          =    -386.0566026855535711 [Eh]
	 Singles Energy            =      -0.0000000000000000 [Eh]
	 Same-Spin Energy          =      -0.4014579259999420 [Eh]
	 Opposite-Spin Energy      =      -1.3800623994955155 [Eh]
	 Correlation Energy        =      -1.7815203254954575 [Eh]
	 Total Energy              =    -387.8381230110490492 [Eh]

	 ================> DF-SCS-MP2 Energies <==================
	-----------------------------------------------------------
	 SCS Same-Spin Scale       =       0.3333333333333333 [-]
	 SCS Opposite-Spin Scale   =       1.2000000000000000 [-]
	 SCS Same-Spin Energy      =      -0.1338193086666473 [Eh]
	 SCS Opposite-Spin Energy  =      -1.6560748793946185 [Eh]
	 SCS Correlation Energy    =      -1.7898941880612658 [Eh]
	 SCS Total Energy          =    -387.8464968736148535 [Eh]
	-----------------------------------------------------------

  Dipole Moment: [D]
     X:    -1.2191      Y:    -0.7925      Z:    -0.1359     Total:     1.4604

*** Psi4 exiting successfully. Buy a developer a beer!
