                               Psi4 1.3.2 release

  ==> Input File <==

--------------------------------------------------------------------------
#psi4
#
memory 32 gb

molecule  {
0 1
  O       -2.7848290    -0.9154220    -0.7447340
  C       -2.7532376    -0.0725081     0.3458835
  C       -1.3446020     0.1937550     0.7721520
  C        3.5873700    -0.2293000     0.2222030
  C       -3.4755630     1.2700040     0.0649850
  C       -0.3095023    -0.3152468     0.0821279
  C        2.1660230    -0.5131760    -0.1475910
  C        1.0922740    -0.0266840     0.5021560
  C        4.3244450     0.5343730    -0.8803810
  H       -3.2865450    -0.5271910     1.2335890
  H       -1.1970340     0.8260370     1.6487790
  H        3.6131550     0.3461180     1.1547940
  H        4.1142490    -1.1721620     0.4188690
  H       -2.9813020     1.7413150    -0.7875330
  H       -4.5277090     1.0956620    -0.1864690
  H       -3.4435650     1.9541860     0.9176610
  H       -0.4470010    -0.9272420    -0.7564190
  H        2.0063450    -1.1440610    -1.0244550
  H        1.2471430     0.6066220     1.3780870
  H        4.3142870    -0.0291260    -1.8177910
  H        5.3679410     0.7151030    -0.6066950
  H        3.8442820     1.4990380    -1.0633910
  H       -3.7175750    -1.0591810    -0.9792530
units angstrom
no_reorient  #important for SAPT in psi4, default
symmetry c1  #important for SAPT in psi4, default
}

set PROPERTIES_ORIGIN ["COM"]
properties('MP2/aug-cc-pvtz', properties = ['dipole'])
--------------------------------------------------------------------------

    Molecular point group: c1
  Charge       = 0
  Multiplicity = 1
  Basis Set: AUG-CC-PVTZ
    Blend: AUG-CC-PVTZ
  Basis Set: (AUG-CC-PVTZ AUX)
    Blend: AUG-CC-PVTZ-JKFIT

    Orbital Energies [Eh]
    ---------------------

    Doubly Occupied:

       1A    -20.564481     2A    -11.286649     3A    -11.225314
       4A    -11.223242     5A    -11.223112     6A    -11.222106
       7A    -11.220886     8A    -11.219339     9A    -11.212102
      10A     -1.381857    11A     -1.094290    12A     -1.059871
      13A     -1.009432    14A     -0.960651    15A     -0.873776
      16A     -0.827717    17A     -0.758256    18A     -0.748955
      19A     -0.698765    20A     -0.644119    21A     -0.623965
      22A     -0.621179    23A     -0.592520    24A     -0.581044
      25A     -0.548970    26A     -0.542488    27A     -0.531187
      28A     -0.520800    29A     -0.508878    30A     -0.490823
      31A     -0.478029    32A     -0.460164    33A     -0.447746
      34A     -0.410621    35A     -0.298328

  @DF-RHF Final Energy:  -386.05872209319693

   => Energetics <=

    Nuclear Repulsion Energy =            418.5890847156896939
    One-Electron Energy =               -1353.0722928362647508
    Two-Electron Energy =                 548.4244860273780660
    Total Energy =                       -386.0587220931969341
  Basis Set: (AUG-CC-PVTZ AUX)
    Blend: AUG-CC-PVTZ-RI
    Molecular point group: c1

    Geometry (in Angstrom), charge = 0, multiplicity = 1:

       Center              X                  Y                   Z               Mass
    ------------   -----------------  -----------------  -----------------  -----------------
         O           -2.783627210465    -0.910730180756    -0.738013869311    15.994914619570
         C           -2.752035810465    -0.067816280756     0.352603630689    12.000000000000
         C           -1.343400210465     0.198446819244     0.778872130689    12.000000000000
         C            3.588571789535    -0.224608180756     0.228923130689    12.000000000000
         C           -3.474361210465     1.274695819244     0.071705130689    12.000000000000
         C           -0.308300510465    -0.310554980756     0.088848030689    12.000000000000
         C            2.167224789535    -0.508484180756    -0.140870869311    12.000000000000
         C            1.093475789535    -0.021992180756     0.508876130689    12.000000000000
         C            4.325646789535     0.539064819244    -0.873660869311    12.000000000000
         H           -3.285343210465    -0.522499180756     1.240309130689     1.007825032230
         H           -1.195832210465     0.830728819244     1.655499130689     1.007825032230
         H            3.614356789535     0.350809819244     1.161514130689     1.007825032230
         H            4.115450789535    -1.167470180756     0.425589130689     1.007825032230
         H           -2.980100210465     1.746006819244    -0.780812869311     1.007825032230
         H           -4.526507210465     1.100353819244    -0.179748869311     1.007825032230
         H           -3.442363210465     1.958877819244     0.924381130689     1.007825032230
         H           -0.445799210465    -0.922550180756    -0.749698869311     1.007825032230
         H            2.007546789535    -1.139369180756    -1.017734869311     1.007825032230
         H            1.248344789535     0.611313819244     1.384807130689     1.007825032230
         H            4.315488789535    -0.024434180756    -1.811070869311     1.007825032230
         H            5.369142789535     0.719794819244    -0.599974869311     1.007825032230
         H            3.845483789535     1.503729819244    -1.056670869311     1.007825032230
         H           -3.716373210465    -1.054489180756    -0.972532869311     1.007825032230

  Basis Set: AUG-CC-PVTZ
    Blend: AUG-CC-PVTZ
  Basis Set: (AUG-CC-PVTZ AUX)
    Blend: AUG-CC-PVTZ-JKFIT
	 Reference Energy          =    -386.0587220931969341 [Eh]
	 Singles Energy            =      -0.0000000000000000 [Eh]
	 Same-Spin Energy          =      -0.3998817762025924 [Eh]
	 Opposite-Spin Energy      =      -1.3772533025725759 [Eh]
	 Correlation Energy        =      -1.7771350787751683 [Eh]
	 Total Energy              =    -387.8358571719721226 [Eh]

	 ================> DF-SCS-MP2 Energies <==================
	-----------------------------------------------------------
	 SCS Same-Spin Scale       =       0.3333333333333333 [-]
	 SCS Opposite-Spin Scale   =       1.2000000000000000 [-]
	 SCS Same-Spin Energy      =      -0.1332939254008641 [Eh]
	 SCS Opposite-Spin Energy  =      -1.6527039630870910 [Eh]
	 SCS Correlation Energy    =      -1.7859978884879550 [Eh]
	 SCS Total Energy          =    -387.8447199816848752 [Eh]
	-----------------------------------------------------------

  Dipole Moment: [D]
     X:    -1.2132      Y:     0.5266      Z:     0.4650     Total:     1.4019

*** Psi4 exiting successfully. Buy a developer a beer!
