                               Psi4 1.3.2 release

  ==> Input File <==

--------------------------------------------------------------------------
#psi4
#
memory 32 gb

molecule  {
0 1
  O       -2.7848290    -0.9154220    -0.7447340
  C       -2.7698910    -0.0438090     0.3861860
  C       -1.3446020     0.1937550     0.7721520
  C        3.5873700    -0.2293000     0.2222030
  C       -3.4755630     1.2700040     0.0649850
  C       -0.2802220    -0.2946410     0.1124460
  C        2.1660230    -0.5131760    -0.1475910
  C        1.1151337    -0.0696174     0.4437569
  C        4.3244450     0.5343730    -0.8803810
  H       -3.2865450    -0.5271910     1.2335890
  H       -1.1970340     0.8260370     1.6487790
  H        3.6131550     0.3461180     1.1547940
  H        4.1142490    -1.1721620     0.4188690
  H       -2.9813020     1.7413150    -0.7875330
  H       -4.5277090     1.0956620    -0.1864690
  H       -3.4435650     1.9541860     0.9176610
  H       -0.3905266    -0.9319697    -0.7619513
  H        2.0063450    -1.1440610    -1.0244550
  H        1.2471430     0.6066220     1.3780870
  H        4.3142870    -0.0291260    -1.8177910
  H        5.3679410     0.7151030    -0.6066950
  H        3.8442820     1.4990380    -1.0633910
  H       -3.7175750    -1.0591810    -0.9792530
units angstrom
no_reorient  #important for SAPT in psi4, default
symmetry c1  #important for SAPT in psi4, default
}

set PROPERTIES_ORIGIN ["COM"]
properties('MP2/aug-cc-pvtz', properties = ['dipole'])
--------------------------------------------------------------------------

    Molecular point group: c1
  Charge       = 0
  Multiplicity = 1
  Basis Set: AUG-CC-PVTZ
    Blend: AUG-CC-PVTZ
  Basis Set: (AUG-CC-PVTZ AUX)
    Blend: AUG-CC-PVTZ-JKFIT

    Orbital Energies [Eh]
    ---------------------

    Doubly Occupied:

       1A    -20.558682     2A    -11.287734     3A    -11.226561
       4A    -11.223943     5A    -11.223885     6A    -11.221326
       7A    -11.220494     8A    -11.216291     9A    -11.213153
      10A     -1.360727    11A     -1.104000    12A     -1.063249
      13A     -1.017442    14A     -0.968938    15A     -0.877609
      16A     -0.831803    17A     -0.754970    18A     -0.740144
      19A     -0.695182    20A     -0.637679    21A     -0.629800
      22A     -0.617199    23A     -0.594939    24A     -0.581814
      25A     -0.546746    26A     -0.543732    27A     -0.524751
      28A     -0.521589    29A     -0.500635    30A     -0.489621
      31A     -0.479699    32A     -0.455707    33A     -0.453216
      34A     -0.424082    35A     -0.307428

  @DF-RHF Final Energy:  -386.05566555218934

   => Energetics <=

    Nuclear Repulsion Energy =            418.8151853147012957
    One-Electron Energy =               -1353.5121558955806904
    Two-Electron Energy =                 548.6413050286901125
    Total Energy =                       -386.0556655521893390
  Basis Set: (AUG-CC-PVTZ AUX)
    Blend: AUG-CC-PVTZ-RI
    Molecular point group: c1

    Geometry (in Angstrom), charge = 0, multiplicity = 1:

       Center              X                  Y                   Z               Mass
    ------------   -----------------  -----------------  -----------------  -----------------
         O           -2.787455429504    -0.911298703889    -0.739132643412    15.994914619570
         C           -2.772517429504    -0.039685703889     0.391787356588    12.000000000000
         C           -1.347228429504     0.197878296111     0.777753356588    12.000000000000
         C            3.584743570496    -0.225176703889     0.227804356588    12.000000000000
         C           -3.478189429504     1.274127296111     0.070586356588    12.000000000000
         C           -0.282848429504    -0.290517703889     0.118047356588    12.000000000000
         C            2.163396570496    -0.509052703889    -0.141989643412    12.000000000000
         C            1.112507270496    -0.065494103889     0.449358256588    12.000000000000
         C            4.321818570496     0.538496296111    -0.874779643412    12.000000000000
         H           -3.289171429504    -0.523067703889     1.239190356588     1.007825032230
         H           -1.199660429504     0.830160296111     1.654380356588     1.007825032230
         H            3.610528570496     0.350241296111     1.160395356588     1.007825032230
         H            4.111622570496    -1.168038703889     0.424470356588     1.007825032230
         H           -2.983928429504     1.745438296111    -0.781931643412     1.007825032230
         H           -4.530335429504     1.099785296111    -0.180867643412     1.007825032230
         H           -3.446191429504     1.958309296111     0.923262356588     1.007825032230
         H           -0.393153029504    -0.927846403889    -0.756349943412     1.007825032230
         H            2.003718570496    -1.139937703889    -1.018853643412     1.007825032230
         H            1.244516570496     0.610745296111     1.383688356588     1.007825032230
         H            4.311660570496    -0.025002703889    -1.812189643412     1.007825032230
         H            5.365314570496     0.719226296111    -0.601093643412     1.007825032230
         H            3.841655570496     1.503161296111    -1.057789643412     1.007825032230
         H           -3.720201429504    -1.055057703889    -0.973651643412     1.007825032230

  Basis Set: AUG-CC-PVTZ
    Blend: AUG-CC-PVTZ
  Basis Set: (AUG-CC-PVTZ AUX)
    Blend: AUG-CC-PVTZ-JKFIT
	 Reference Energy          =    -386.0556655521893390 [Eh]
	 Singles Energy            =      -0.0000000000000000 [Eh]
	 Same-Spin Energy          =      -0.3999436385597676 [Eh]
	 Opposite-Spin Energy      =      -1.3773999247734077 [Eh]
	 Correlation Energy        =      -1.7773435633331753 [Eh]
	 Total Energy              =    -387.8330091155224864 [Eh]

	 ================> DF-SCS-MP2 Energies <==================
	-----------------------------------------------------------
	 SCS Same-Spin Scale       =       0.3333333333333333 [-]
	 SCS Opposite-Spin Scale   =       1.2000000000000000 [-]
	 SCS Same-Spin Energy      =      -0.1333145461865892 [Eh]
	 SCS Opposite-Spin Energy  =      -1.6528799097280891 [Eh]
	 SCS Correlation Energy    =      -1.7861944559146783 [Eh]
	 SCS Total Energy          =    -387.8418600081039926 [Eh]
	-----------------------------------------------------------

  Dipole Moment: [D]
     X:    -1.1784      Y:     0.6267      Z:     0.5415     Total:     1.4403

*** Psi4 exiting successfully. Buy a developer a beer!
