                               Psi4 1.3.2 release

  ==> Input File <==

--------------------------------------------------------------------------
#psi4
#
memory 32 gb

molecule  {
0 1
  O       -2.7848290    -0.9154220    -0.7447340
  C       -2.7698910    -0.0438090     0.3861860
  C       -1.3373989     0.1991783     0.7796544
  C        3.5873700    -0.2293000     0.2222030
  C       -3.4755630     1.2700040     0.0649850
  C       -0.2802220    -0.2946410     0.1124460
  C        2.1660230    -0.5131760    -0.1475910
  C        1.0922740    -0.0266840     0.5021560
  C        4.3244450     0.5343730    -0.8803810
  H       -3.2865450    -0.5271910     1.2335890
  H       -1.1970340     0.8260370     1.6487790
  H        3.6131550     0.3461180     1.1547940
  H        4.1142490    -1.1721620     0.4188690
  H       -2.9813020     1.7413150    -0.7875330
  H       -4.5277090     1.0956620    -0.1864690
  H       -3.4435650     1.9541860     0.9176610
  H       -0.4376159    -0.9281171    -0.7575315
  H        2.0063450    -1.1440610    -1.0244550
  H        1.2471430     0.6066220     1.3780870
  H        4.3142870    -0.0291260    -1.8177910
  H        5.3679410     0.7151030    -0.6066950
  H        3.8442820     1.4990380    -1.0633910
  H       -3.7175750    -1.0591810    -0.9792530
units angstrom
no_reorient  #important for SAPT in psi4, default
symmetry c1  #important for SAPT in psi4, default
}

set PROPERTIES_ORIGIN ["COM"]
properties('MP2/aug-cc-pvtz', properties = ['dipole'])
--------------------------------------------------------------------------

    Molecular point group: c1
  Charge       = 0
  Multiplicity = 1
  Basis Set: AUG-CC-PVTZ
    Blend: AUG-CC-PVTZ
  Basis Set: (AUG-CC-PVTZ AUX)
    Blend: AUG-CC-PVTZ-JKFIT

    Orbital Energies [Eh]
    ---------------------

    Doubly Occupied:

       1A    -20.558734     2A    -11.286761     3A    -11.225689
       4A    -11.223699     5A    -11.223134     6A    -11.222737
       7A    -11.221819     8A    -11.220416     9A    -11.212804
      10A     -1.360444    11A     -1.097779    12A     -1.060661
      13A     -1.015783    14A     -0.962281    15A     -0.875910
      16A     -0.828035    17A     -0.752457    18A     -0.749682
      19A     -0.694668    20A     -0.637260    21A     -0.627148
      22A     -0.617007    23A     -0.590403    24A     -0.583201
      25A     -0.547191    26A     -0.543755    27A     -0.526989
      28A     -0.519151    29A     -0.501970    30A     -0.491852
      31A     -0.478912    32A     -0.466627    33A     -0.452491
      34A     -0.418440    35A     -0.297529

  @DF-RHF Final Energy:  -386.06260482358158

   => Energetics <=

    Nuclear Repulsion Energy =            418.1598528126404517
    One-Electron Energy =               -1352.2580720860053134
    Two-Electron Energy =                 548.0356144497832247
    Total Energy =                       -386.0626048235816370
  Basis Set: (AUG-CC-PVTZ AUX)
    Blend: AUG-CC-PVTZ-RI
    Molecular point group: c1

    Geometry (in Angstrom), charge = 0, multiplicity = 1:

       Center              X                  Y                   Z               Mass
    ------------   -----------------  -----------------  -----------------  -----------------
         O           -2.785589222981    -0.915931078693    -0.745439100401    15.994914619570
         C           -2.770651222981    -0.044318078693     0.385480899599    12.000000000000
         C           -1.338159122981     0.198669221307     0.778949299599    12.000000000000
         C            3.586609777019    -0.229809078693     0.221497899599    12.000000000000
         C           -3.476323222981     1.269494921307     0.064279899599    12.000000000000
         C           -0.280982222981    -0.295150078693     0.111740899599    12.000000000000
         C            2.165262777019    -0.513685078693    -0.148296100401    12.000000000000
         C            1.091513777019    -0.027193078693     0.501450899599    12.000000000000
         C            4.323684777019     0.533863921307    -0.881086100401    12.000000000000
         H           -3.287305222981    -0.527700078693     1.232883899599     1.007825032230
         H           -1.197794222981     0.825527921307     1.648073899599     1.007825032230
         H            3.612394777019     0.345608921307     1.154088899599     1.007825032230
         H            4.113488777019    -1.172671078693     0.418163899599     1.007825032230
         H           -2.982062222981     1.740805921307    -0.788238100401     1.007825032230
         H           -4.528469222981     1.095152921307    -0.187174100401     1.007825032230
         H           -3.444325222981     1.953676921307     0.916955899599     1.007825032230
         H           -0.438376122981    -0.928626178693    -0.758236600401     1.007825032230
         H            2.005584777019    -1.144570078693    -1.025160100401     1.007825032230
         H            1.246382777019     0.606112921307     1.377381899599     1.007825032230
         H            4.313526777019    -0.029635078693    -1.818496100401     1.007825032230
         H            5.367180777019     0.714593921307    -0.607400100401     1.007825032230
         H            3.843521777019     1.498528921307    -1.064096100401     1.007825032230
         H           -3.718335222981    -1.059690078693    -0.979958100401     1.007825032230

  Basis Set: AUG-CC-PVTZ
    Blend: AUG-CC-PVTZ
  Basis Set: (AUG-CC-PVTZ AUX)
    Blend: AUG-CC-PVTZ-JKFIT
	 Reference Energy          =    -386.0626048235815801 [Eh]
	 Singles Energy            =      -0.0000000000000000 [Eh]
	 Same-Spin Energy          =      -0.4002427161554096 [Eh]
	 Opposite-Spin Energy      =      -1.3782041220884933 [Eh]
	 Correlation Energy        =      -1.7784468382439029 [Eh]
	 Total Energy              =    -387.8410516618254746 [Eh]

	 ================> DF-SCS-MP2 Energies <==================
	-----------------------------------------------------------
	 SCS Same-Spin Scale       =       0.3333333333333333 [-]
	 SCS Opposite-Spin Scale   =       1.2000000000000000 [-]
	 SCS Same-Spin Energy      =      -0.1334142387184699 [Eh]
	 SCS Opposite-Spin Energy  =      -1.6538449465061920 [Eh]
	 SCS Correlation Energy    =      -1.7872591852246618 [Eh]
	 SCS Total Energy          =    -387.8498640088062643 [Eh]
	-----------------------------------------------------------

  Dipole Moment: [D]
     X:    -1.1542      Y:     0.6426      Z:     0.5821     Total:     1.4435

*** Psi4 exiting successfully. Buy a developer a beer!
