                               Psi4 1.4a3.dev225

  ==> Input File <==

--------------------------------------------------------------------------
#psi4
#
memory 32 gb

molecule  {
0 1
  O       -2.7624640     1.3159430     0.2248240
  C       -2.8209640    -0.0168770    -0.2887760
  C       -1.4198970    -0.4865040    -0.5315690
  C        3.5469730    -0.0618850    -0.4287090
  C       -3.5485140    -0.9406360     0.6857820
  C       -0.3124200     0.2274490    -0.2577540
  C        2.1505970     0.4383770    -0.2221580
  C        1.0342680    -0.2689350    -0.4861660
  C        4.3265940    -0.1505530     0.8872490
  H       -3.3377220    -0.0199368    -1.2074060
  H       -1.3293920    -1.4912640    -0.9473420
  H        3.5136740    -1.0471260    -0.9088000
  H        4.0812660     0.6062640    -1.1173180
  H       -3.0279280    -0.9272120     1.6463760
  H       -4.5820380    -0.6089360     0.8383050
  H       -3.5770120    -1.9680220     0.3103630
  H       -0.4219900     1.2292040     0.1523950
  H        2.0485920     1.4434520     0.1930580
  H        1.1311650    -1.2755230    -0.8987060
  H        4.3778580     0.8269450     1.3761990
  H        5.3504770    -0.4972710     0.7173650
  H        3.8373540    -0.8453320     1.5752720
  H       -3.6799020     1.6047450     0.3678300
units angstrom
no_reorient  #important for SAPT in psi4, default
symmetry c1  #important for SAPT in psi4, default
}

set PROPERTIES_ORIGIN ["COM"]
properties('MP2/aug-cc-pvtz', properties = ['dipole'])
--------------------------------------------------------------------------

    Molecular point group: c1
  Charge       = 0
  Multiplicity = 1
  Basis Set: AUG-CC-PVTZ
    Blend: AUG-CC-PVTZ
  Basis Set: (AUG-CC-PVTZ AUX)
    Blend: AUG-CC-PVTZ-JKFIT

    Orbital Energies [Eh]
    ---------------------

    Doubly Occupied:

       1A    -20.557922     2A    -11.280668     3A    -11.226331
       4A    -11.224047     5A    -11.223613     6A    -11.223394
       7A    -11.222122     8A    -11.220448     9A    -11.213126
      10A     -1.359698    11A     -1.097010    12A     -1.061169
      13A     -1.016412    14A     -0.961931    15A     -0.877386
      16A     -0.830653    17A     -0.753772    18A     -0.747730
      19A     -0.699334    20A     -0.636602    21A     -0.627715
      22A     -0.616898    23A     -0.589805    24A     -0.582616
      25A     -0.546354    26A     -0.543208    27A     -0.527373
      28A     -0.518411    29A     -0.500673    30A     -0.493528
      31A     -0.479252    32A     -0.467863    33A     -0.454119
      34A     -0.418302    35A     -0.297341

  @DF-RHF Final Energy:  -386.06174505707725

   => Energetics <=

    Nuclear Repulsion Energy =            418.0146295507025229
    One-Electron Energy =               -1351.9590977859011218
    Two-Electron Energy =                 547.8827231781214095
    Total Energy =                       -386.0617450570772462
  Basis Set: (AUG-CC-PVTZ AUX)
    Blend: AUG-CC-PVTZ-RI
    Molecular point group: c1

    Geometry (in Angstrom), charge = 0, multiplicity = 1:

       Center              X                  Y                   Z               Mass
    ------------   -----------------  -----------------  -----------------  -----------------
         O           -2.728468203497     1.292626024811     0.240645538098    15.994914619570
         C           -2.786968203497    -0.040193975189    -0.272954461902    12.000000000000
         C           -1.385901203497    -0.509820975189    -0.515747461902    12.000000000000
         C            3.580968796503    -0.085201975189    -0.412887461902    12.000000000000
         C           -3.514518203497    -0.963952975189     0.701603538098    12.000000000000
         C           -0.278424203497     0.204132024811    -0.241932461902    12.000000000000
         C            2.184592796503     0.415060024811    -0.206336461902    12.000000000000
         C            1.068263796503    -0.292251975189    -0.470344461902    12.000000000000
         C            4.360589796503    -0.173869975189     0.903070538098    12.000000000000
         H           -3.303726203497    -0.043253775189    -1.191584461902     1.007825032230
         H           -1.295396203497    -1.514580975189    -0.931520461902     1.007825032230
         H            3.547669796503    -1.070442975189    -0.892978461902     1.007825032230
         H            4.115261796503     0.582947024811    -1.101496461902     1.007825032230
         H           -2.993932203497    -0.950528975189     1.662197538098     1.007825032230
         H           -4.548042203497    -0.632252975189     0.854126538098     1.007825032230
         H           -3.543016203497    -1.991338975189     0.326184538098     1.007825032230
         H           -0.387994203497     1.205887024811     0.168216538098     1.007825032230
         H            2.082587796503     1.420135024811     0.208879538098     1.007825032230
         H            1.165160796503    -1.298839975189    -0.882884461902     1.007825032230
         H            4.411853796503     0.803628024811     1.392020538098     1.007825032230
         H            5.384472796503    -0.520587975189     0.733186538098     1.007825032230
         H            3.871349796503    -0.868648975189     1.591093538098     1.007825032230
         H           -3.645906203497     1.581428024811     0.383651538098     1.007825032230

  Basis Set: AUG-CC-PVTZ
    Blend: AUG-CC-PVTZ
  Basis Set: (AUG-CC-PVTZ AUX)
    Blend: AUG-CC-PVTZ-JKFIT
	 Reference Energy          =    -386.0617450570772462 [Eh]
	 Singles Energy            =      -0.0000000000000000 [Eh]
	 Same-Spin Energy          =      -0.4002076793404549 [Eh]
	 Opposite-Spin Energy      =      -1.3780618889878558 [Eh]
	 Correlation Energy        =      -1.7782695683283107 [Eh]
	 Total Energy              =    -387.8400146254055585 [Eh]

	 ================> DF-SCS-MP2 Energies <==================
	-----------------------------------------------------------
	 SCS Same-Spin Scale       =       0.3333333333333333 [-]
	 SCS Opposite-Spin Scale   =       1.2000000000000000 [-]
	 SCS Same-Spin Energy      =      -0.1334025597801516 [Eh]
	 SCS Opposite-Spin Energy  =      -1.6536742667854269 [Eh]
	 SCS Correlation Energy    =      -1.7870768265655785 [Eh]
	 SCS Total Energy          =    -387.8488218836428132 [Eh]
	-----------------------------------------------------------

  Dipole Moment: [D]
     X:    -1.2243      Y:    -0.8044      Z:    -0.1766     Total:     1.4756

*** Psi4 exiting successfully. Buy a developer a beer!
