                               Psi4 1.3.2 release

  ==> Input File <==

--------------------------------------------------------------------------
#psi4
#
memory 32 gb

molecule  {
0 1
  O       -2.7848290    -0.9154220    -0.7447340
  C       -2.7698910    -0.0438090     0.3861860
  C       -1.3446020     0.1937550     0.7721520
  C        3.5873700    -0.2293000     0.2222030
  C       -3.4755630     1.2700040     0.0649850
  C       -0.2628875    -0.3228284     0.0740721
  C        2.1370448    -0.5347411    -0.1776341
  C        1.0922740    -0.0266840     0.5021560
  C        4.3244450     0.5343730    -0.8803810
  H       -3.2865450    -0.5271910     1.2335890
  H       -1.1970340     0.8260370     1.6487790
  H        3.6131550     0.3461180     1.1547940
  H        4.1142490    -1.1721620     0.4188690
  H       -2.9813020     1.7413150    -0.7875330
  H       -4.5277090     1.0956620    -0.1864690
  H       -3.4435650     1.9541860     0.9176610
  H       -0.4470010    -0.9272420    -0.7564190
  H        2.0063450    -1.1440610    -1.0244550
  H        1.2471430     0.6066220     1.3780870
  H        4.3142870    -0.0291260    -1.8177910
  H        5.3679410     0.7151030    -0.6066950
  H        3.8442820     1.4990380    -1.0633910
  H       -3.7175750    -1.0591810    -0.9792530
units angstrom
no_reorient  #important for SAPT in psi4, default
symmetry c1  #important for SAPT in psi4, default
}

set PROPERTIES_ORIGIN ["COM"]
properties('MP2/aug-cc-pvtz', properties = ['dipole'])
--------------------------------------------------------------------------

    Molecular point group: c1
  Charge       = 0
  Multiplicity = 1
  Basis Set: AUG-CC-PVTZ
    Blend: AUG-CC-PVTZ
  Basis Set: (AUG-CC-PVTZ AUX)
    Blend: AUG-CC-PVTZ-JKFIT

    Orbital Energies [Eh]
    ---------------------

    Doubly Occupied:

       1A    -20.558587     2A    -11.285542     3A    -11.227541
       4A    -11.225169     5A    -11.224390     6A    -11.223934
       7A    -11.222588     8A    -11.220112     9A    -11.211707
      10A     -1.360517    11A     -1.094850    12A     -1.055395
      13A     -1.015022    14A     -0.958489    15A     -0.874504
      16A     -0.824272    17A     -0.759848    18A     -0.752333
      19A     -0.695502    20A     -0.639528    21A     -0.622071
      22A     -0.616418    23A     -0.589823    24A     -0.579083
      25A     -0.549489    26A     -0.544963    27A     -0.530171
      28A     -0.516515    29A     -0.508450    30A     -0.490347
      31A     -0.482423    32A     -0.461149    33A     -0.451589
      34A     -0.416347    35A     -0.291096

  @DF-RHF Final Energy:  -386.05495969567562

   => Energetics <=

    Nuclear Repulsion Energy =            417.7225437647434205
    One-Electron Energy =               -1351.3954799760131209
    Two-Electron Energy =                 547.6179765155940231
    Total Energy =                       -386.0549596956756204
  Basis Set: (AUG-CC-PVTZ AUX)
    Blend: AUG-CC-PVTZ-RI
    Molecular point group: c1

    Geometry (in Angstrom), charge = 0, multiplicity = 1:

       Center              X                  Y                   Z               Mass
    ------------   -----------------  -----------------  -----------------  -----------------
         O           -2.783720770991    -0.910687587498    -0.738223562124    15.994914619570
         C           -2.768782770991    -0.039074587498     0.392696437876    12.000000000000
         C           -1.343493770991     0.198489412502     0.778662437876    12.000000000000
         C            3.588478229009    -0.224565587498     0.228713437876    12.000000000000
         C           -3.474454770991     1.274738412502     0.071495437876    12.000000000000
         C           -0.261779270991    -0.318093987498     0.080582537876    12.000000000000
         C            2.138153029009    -0.530006687498    -0.171123662124    12.000000000000
         C            1.093382229009    -0.021949587498     0.508666437876    12.000000000000
         C            4.325553229009     0.539107412502    -0.873870562124    12.000000000000
         H           -3.285436770991    -0.522456587498     1.240099437876     1.007825032230
         H           -1.195925770991     0.830771412502     1.655289437876     1.007825032230
         H            3.614263229009     0.350852412502     1.161304437876     1.007825032230
         H            4.115357229009    -1.167427587498     0.425379437876     1.007825032230
         H           -2.980193770991     1.746049412502    -0.781022562124     1.007825032230
         H           -4.526600770991     1.100396412502    -0.179958562124     1.007825032230
         H           -3.442456770991     1.958920412502     0.924171437876     1.007825032230
         H           -0.445892770991    -0.922507587498    -0.749908562124     1.007825032230
         H            2.007453229009    -1.139326587498    -1.017944562124     1.007825032230
         H            1.248251229009     0.611356412502     1.384597437876     1.007825032230
         H            4.315395229009    -0.024391587498    -1.811280562124     1.007825032230
         H            5.369049229009     0.719837412502    -0.600184562124     1.007825032230
         H            3.845390229009     1.503772412502    -1.056880562124     1.007825032230
         H           -3.716466770991    -1.054446587498    -0.972742562124     1.007825032230

  Basis Set: AUG-CC-PVTZ
    Blend: AUG-CC-PVTZ
  Basis Set: (AUG-CC-PVTZ AUX)
    Blend: AUG-CC-PVTZ-JKFIT
	 Reference Energy          =    -386.0549596956756204 [Eh]
	 Singles Energy            =      -0.0000000000000000 [Eh]
	 Same-Spin Energy          =      -0.4005050409558141 [Eh]
	 Opposite-Spin Energy      =      -1.3792947885105211 [Eh]
	 Correlation Energy        =      -1.7797998294663353 [Eh]
	 Total Energy              =    -387.8347595251419762 [Eh]

	 ================> DF-SCS-MP2 Energies <==================
	-----------------------------------------------------------
	 SCS Same-Spin Scale       =       0.3333333333333333 [-]
	 SCS Opposite-Spin Scale   =       1.2000000000000000 [-]
	 SCS Same-Spin Energy      =      -0.1335016803186047 [Eh]
	 SCS Opposite-Spin Energy  =      -1.6551537462126253 [Eh]
	 SCS Correlation Energy    =      -1.7886554265312300 [Eh]
	 SCS Total Energy          =    -387.8436151222068702 [Eh]
	-----------------------------------------------------------

  Dipole Moment: [D]
     X:    -1.1865      Y:     0.6264      Z:     0.5746     Total:     1.4596

*** Psi4 exiting successfully. Buy a developer a beer!
