                               Psi4 1.4a3.dev225

  ==> Input File <==

--------------------------------------------------------------------------
#psi4
#
memory 32 gb

molecule  {
0 1
  O       -2.7624640     1.3159430     0.2248240
  C       -2.8209640    -0.0168770    -0.2887760
  C       -1.4198970    -0.4865040    -0.5315690
  C        3.5469730    -0.0618850    -0.4287090
  C       -3.5485140    -0.9406360     0.6857820
  C       -0.3124200     0.2274490    -0.2577540
  C        2.1505970     0.4383770    -0.2221580
  C        1.0342680    -0.2689350    -0.4861660
  C        4.3265940    -0.1505530     0.8872490
  H       -3.3720416    -0.0201401    -1.2684152
  H       -1.3293920    -1.4912640    -0.9473420
  H        3.5136740    -1.0471260    -0.9088000
  H        4.0812660     0.6062640    -1.1173180
  H       -3.0279280    -0.9272120     1.6463760
  H       -4.5820380    -0.6089360     0.8383050
  H       -3.5770120    -1.9680220     0.3103630
  H       -0.4219900     1.2292040     0.1523950
  H        2.0485920     1.4434520     0.1930580
  H        1.1311650    -1.2755230    -0.8987060
  H        4.3778580     0.8269450     1.3761990
  H        5.3504770    -0.4972710     0.7173650
  H        3.8373540    -0.8453320     1.5752720
  H       -3.6799020     1.6047450     0.3678300
units angstrom
no_reorient  #important for SAPT in psi4, default
symmetry c1  #important for SAPT in psi4, default
}

set PROPERTIES_ORIGIN ["COM"]
properties('MP2/aug-cc-pvtz', properties = ['dipole'])
--------------------------------------------------------------------------

    Molecular point group: c1
  Charge       = 0
  Multiplicity = 1
  Basis Set: AUG-CC-PVTZ
    Blend: AUG-CC-PVTZ
  Basis Set: (AUG-CC-PVTZ AUX)
    Blend: AUG-CC-PVTZ-JKFIT

    Orbital Energies [Eh]
    ---------------------

    Doubly Occupied:

       1A    -20.559214     2A    -11.289543     3A    -11.226620
       4A    -11.224461     5A    -11.223877     6A    -11.223683
       7A    -11.222616     8A    -11.221196     9A    -11.213281
      10A     -1.360360    11A     -1.097146    12A     -1.060499
      13A     -1.015396    14A     -0.962174    15A     -0.876123
      16A     -0.827681    17A     -0.752001    18A     -0.747920
      19A     -0.693137    20A     -0.637036    21A     -0.626853
      22A     -0.616519    23A     -0.590139    24A     -0.582897
      25A     -0.546530    26A     -0.543425    27A     -0.527333
      28A     -0.518560    29A     -0.500965    30A     -0.492062
      31A     -0.479330    32A     -0.467878    33A     -0.452241
      34A     -0.417710    35A     -0.297350

  @DF-RHF Final Energy:  -386.06176327424498

   => Energetics <=

    Nuclear Repulsion Energy =            417.6473760298812294
    One-Electron Energy =               -1351.2307658943448132
    Two-Electron Energy =                 547.5216265902186024
    Total Energy =                       -386.0617632742449814
  Basis Set: (AUG-CC-PVTZ AUX)
    Blend: AUG-CC-PVTZ-RI
    Molecular point group: c1

    Geometry (in Angstrom), charge = 0, multiplicity = 1:

       Center              X                  Y                   Z               Mass
    ------------   -----------------  -----------------  -----------------  -----------------
         O           -2.728193921758     1.292627649581     0.241133122728    15.994914619570
         C           -2.786693921758    -0.040192350419    -0.272466877272    12.000000000000
         C           -1.385626921758    -0.509819350419    -0.515259877272    12.000000000000
         C            3.581243078242    -0.085200350419    -0.412399877272    12.000000000000
         C           -3.514243921758    -0.963951350419     0.702091122728    12.000000000000
         C           -0.278149921758     0.204133649581    -0.241444877272    12.000000000000
         C            2.184867078242     0.415061649581    -0.205848877272    12.000000000000
         C            1.068538078242    -0.292250350419    -0.469856877272    12.000000000000
         C            4.360864078242    -0.173868350419     0.903558122728    12.000000000000
         H           -3.337771521758    -0.043455450419    -1.252106077272     1.007825032230
         H           -1.295121921758    -1.514579350419    -0.931032877272     1.007825032230
         H            3.547944078242    -1.070441350419    -0.892490877272     1.007825032230
         H            4.115536078242     0.582948649581    -1.101008877272     1.007825032230
         H           -2.993657921758    -0.950527350419     1.662685122728     1.007825032230
         H           -4.547767921758    -0.632251350419     0.854614122728     1.007825032230
         H           -3.542741921758    -1.991337350419     0.326672122728     1.007825032230
         H           -0.387719921758     1.205888649581     0.168704122728     1.007825032230
         H            2.082862078242     1.420136649581     0.209367122728     1.007825032230
         H            1.165435078242    -1.298838350419    -0.882396877272     1.007825032230
         H            4.412128078242     0.803629649581     1.392508122728     1.007825032230
         H            5.384747078242    -0.520586350419     0.733674122728     1.007825032230
         H            3.871624078242    -0.868647350419     1.591581122728     1.007825032230
         H           -3.645631921758     1.581429649581     0.384139122728     1.007825032230

  Basis Set: AUG-CC-PVTZ
    Blend: AUG-CC-PVTZ
  Basis Set: (AUG-CC-PVTZ AUX)
    Blend: AUG-CC-PVTZ-JKFIT
	 Reference Energy          =    -386.0617632742449814 [Eh]
	 Singles Energy            =      -0.0000000000000000 [Eh]
	 Same-Spin Energy          =      -0.4002974620743155 [Eh]
	 Opposite-Spin Energy      =      -1.3785543575496062 [Eh]
	 Correlation Energy        =      -1.7788518196239216 [Eh]
	 Total Energy              =    -387.8406150938689052 [Eh]

	 ================> DF-SCS-MP2 Energies <==================
	-----------------------------------------------------------
	 SCS Same-Spin Scale       =       0.3333333333333333 [-]
	 SCS Opposite-Spin Scale   =       1.2000000000000000 [-]
	 SCS Same-Spin Energy      =      -0.1334324873581051 [Eh]
	 SCS Opposite-Spin Energy  =      -1.6542652290595274 [Eh]
	 SCS Correlation Energy    =      -1.7876977164176326 [Eh]
	 SCS Total Energy          =    -387.8494609906626351 [Eh]
	-----------------------------------------------------------

  Dipole Moment: [D]
     X:    -1.1877      Y:    -0.7904      Z:    -0.1283     Total:     1.4324

*** Psi4 exiting successfully. Buy a developer a beer!
