                               Psi4 1.3.2 release

  ==> Input File <==

--------------------------------------------------------------------------
#psi4
#
memory 32 gb

molecule  {
0 1
  O       -2.7848290    -0.9154220    -0.7447340
  C       -2.7698910    -0.0438090     0.3861860
  C       -1.3446020     0.1937550     0.7721520
  C        3.6027644    -0.2582398     0.1815628
  C       -3.4755630     1.2700040     0.0649850
  C       -0.2802220    -0.2946410     0.1124460
  C        2.1660230    -0.5131760    -0.1475910
  C        1.0922740    -0.0266840     0.5021560
  C        4.3244450     0.5343730    -0.8803810
  H       -3.2865450    -0.5271910     1.2335890
  H       -1.1970340     0.8260370     1.6487790
  H        3.6131550     0.3461180     1.1547940
  H        4.1142490    -1.1721620     0.4188690
  H       -2.9813020     1.7413150    -0.7875330
  H       -4.5277090     1.0956620    -0.1864690
  H       -3.4435650     1.9541860     0.9176610
  H       -0.4470010    -0.9272420    -0.7564190
  H        2.0441397    -1.1465967    -1.0286847
  H        1.2471430     0.6066220     1.3780870
  H        4.3142870    -0.0291260    -1.8177910
  H        5.3679410     0.7151030    -0.6066950
  H        3.8442820     1.4990380    -1.0633910
  H       -3.7175750    -1.0591810    -0.9792530
units angstrom
no_reorient  #important for SAPT in psi4, default
symmetry c1  #important for SAPT in psi4, default
}

set PROPERTIES_ORIGIN ["COM"]
properties('MP2/aug-cc-pvtz', properties = ['dipole'])
--------------------------------------------------------------------------

    Molecular point group: c1
  Charge       = 0
  Multiplicity = 1
  Basis Set: AUG-CC-PVTZ
    Blend: AUG-CC-PVTZ
  Basis Set: (AUG-CC-PVTZ AUX)
    Blend: AUG-CC-PVTZ-JKFIT

    Orbital Energies [Eh]
    ---------------------

    Doubly Occupied:

       1A    -20.558904     2A    -11.286744     3A    -11.226579
       4A    -11.224869     5A    -11.223897     6A    -11.223760
       7A    -11.222294     8A    -11.220837     9A    -11.212313
      10A     -1.360955    11A     -1.098084    12A     -1.062578
      13A     -1.017803    14A     -0.963657    15A     -0.877340
      16A     -0.828535    17A     -0.750931    18A     -0.748333
      19A     -0.695489    20A     -0.637282    21A     -0.629394
      22A     -0.617402    23A     -0.591705    24A     -0.582753
      25A     -0.546861    26A     -0.544814    27A     -0.528468
      28A     -0.526103    29A     -0.502208    30A     -0.492469
      31A     -0.470692    32A     -0.461077    33A     -0.453170
      34A     -0.419677    35A     -0.298642

  @DF-RHF Final Energy:  -386.05891682013032

   => Energetics <=

    Nuclear Repulsion Energy =            418.2718545120630438
    One-Electron Energy =               -1352.4483021876451403
    Two-Electron Energy =                 548.1175308554517187
    Total Energy =                       -386.0589168201303210
  Basis Set: (AUG-CC-PVTZ AUX)
    Blend: AUG-CC-PVTZ-RI
    Molecular point group: c1

    Geometry (in Angstrom), charge = 0, multiplicity = 1:

       Center              X                  Y                   Z               Mass
    ------------   -----------------  -----------------  -----------------  -----------------
         O           -2.786595749641    -0.912647842100    -0.740832976488    15.994914619570
         C           -2.771657749641    -0.041034842100     0.390087023512    12.000000000000
         C           -1.346368749641     0.196529157900     0.776053023512    12.000000000000
         C            3.600997650359    -0.255465642100     0.185463823512    12.000000000000
         C           -3.477329749641     1.272778157900     0.068886023512    12.000000000000
         C           -0.281988749641    -0.291866842100     0.116347023512    12.000000000000
         C            2.164256250359    -0.510401842100    -0.143689976488    12.000000000000
         C            1.090507250359    -0.023909842100     0.506057023512    12.000000000000
         C            4.322678250359     0.537147157900    -0.876479976488    12.000000000000
         H           -3.288311749641    -0.524416842100     1.237490023512     1.007825032230
         H           -1.198800749641     0.828811157900     1.652680023512     1.007825032230
         H            3.611388250359     0.348892157900     1.158695023512     1.007825032230
         H            4.112482250359    -1.169387842100     0.422770023512     1.007825032230
         H           -2.983068749641     1.744089157900    -0.783631976488     1.007825032230
         H           -4.529475749641     1.098436157900    -0.182567976488     1.007825032230
         H           -3.445331749641     1.956960157900     0.921562023512     1.007825032230
         H           -0.448767749641    -0.924467842100    -0.752517976488     1.007825032230
         H            2.042372950359    -1.143822542100    -1.024783676488     1.007825032230
         H            1.245376250359     0.609396157900     1.381988023512     1.007825032230
         H            4.312520250359    -0.026351842100    -1.813889976488     1.007825032230
         H            5.366174250359     0.717877157900    -0.602793976488     1.007825032230
         H            3.842515250359     1.501812157900    -1.059489976488     1.007825032230
         H           -3.719341749641    -1.056406842100    -0.975351976488     1.007825032230

  Basis Set: AUG-CC-PVTZ
    Blend: AUG-CC-PVTZ
  Basis Set: (AUG-CC-PVTZ AUX)
    Blend: AUG-CC-PVTZ-JKFIT
	 Reference Energy          =    -386.0589168201303210 [Eh]
	 Singles Energy            =      -0.0000000000000000 [Eh]
	 Same-Spin Energy          =      -0.4004965563744529 [Eh]
	 Opposite-Spin Energy      =      -1.3786847728854648 [Eh]
	 Correlation Energy        =      -1.7791813292599177 [Eh]
	 Total Energy              =    -387.8380981493902482 [Eh]

	 ================> DF-SCS-MP2 Energies <==================
	-----------------------------------------------------------
	 SCS Same-Spin Scale       =       0.3333333333333333 [-]
	 SCS Opposite-Spin Scale   =       1.2000000000000000 [-]
	 SCS Same-Spin Energy      =      -0.1334988521248176 [Eh]
	 SCS Opposite-Spin Energy  =      -1.6544217274625577 [Eh]
	 SCS Correlation Energy    =      -1.7879205795873754 [Eh]
	 SCS Total Energy          =    -387.8468373997176855 [Eh]
	-----------------------------------------------------------

  Dipole Moment: [D]
     X:    -1.1823      Y:     0.6301      Z:     0.5547     Total:     1.4500

*** Psi4 exiting successfully. Buy a developer a beer!
