                               Psi4 1.3.2 release

  ==> Input File <==

--------------------------------------------------------------------------
#psi4
#
memory 32 gb

molecule  {
0 1
  O       -2.7848290    -0.9154220    -0.7447340
  C       -2.7698910    -0.0438090     0.3861860
  C       -1.3567054     0.2704089     0.7617238
  C        3.5873700    -0.2293000     0.2222030
  C       -3.4072735     1.3081816     0.0810422
  C       -0.2802220    -0.2946410     0.1124460
  C        2.1660230    -0.5131760    -0.1475910
  C        1.0922740    -0.0266840     0.5021560
  C        4.3244450     0.5343730    -0.8803810
  H       -3.2865450    -0.5271910     1.2335890
  H       -1.1970340     0.8260370     1.6487790
  H        3.6131550     0.3461180     1.1547940
  H        4.1142490    -1.1721620     0.4188690
  H       -2.9813020     1.7413150    -0.7875330
  H       -4.5277090     1.0956620    -0.1864690
  H       -3.4435650     1.9541860     0.9176610
  H       -0.4470010    -0.9272420    -0.7564190
  H        2.0063450    -1.1440610    -1.0244550
  H        1.2471430     0.6066220     1.3780870
  H        4.3142870    -0.0291260    -1.8177910
  H        5.3679410     0.7151030    -0.6066950
  H        3.8442820     1.4990380    -1.0633910
  H       -3.7175750    -1.0591810    -0.9792530
units angstrom
no_reorient  #important for SAPT in psi4, default
symmetry c1  #important for SAPT in psi4, default
}

set PROPERTIES_ORIGIN ["COM"]
properties('MP2/aug-cc-pvtz', properties = ['dipole'])
--------------------------------------------------------------------------

    Molecular point group: c1
  Charge       = 0
  Multiplicity = 1
  Basis Set: AUG-CC-PVTZ
    Blend: AUG-CC-PVTZ
  Basis Set: (AUG-CC-PVTZ AUX)
    Blend: AUG-CC-PVTZ-JKFIT

    Orbital Energies [Eh]
    ---------------------

    Doubly Occupied:

       1A    -20.561468     2A    -11.287122     3A    -11.227589
       4A    -11.225646     5A    -11.223845     6A    -11.223160
       7A    -11.222839     8A    -11.220853     9A    -11.212791
      10A     -1.361833    11A     -1.096272    12A     -1.062101
      13A     -1.016486    14A     -0.958422    15A     -0.875339
      16A     -0.826579    17A     -0.756570    18A     -0.750744
      19A     -0.696791    20A     -0.637696    21A     -0.624614
      22A     -0.621830    23A     -0.590367    24A     -0.581696
      25A     -0.555460    26A     -0.542772    27A     -0.527094
      28A     -0.518215    29A     -0.503674    30A     -0.488251
      31A     -0.478166    32A     -0.462040    33A     -0.456321
      34A     -0.414675    35A     -0.292288

  @DF-RHF Final Energy:  -386.05002679934609

   => Energetics <=

    Nuclear Repulsion Energy =            418.2078014401408268
    One-Electron Energy =               -1352.3124384437812751
    Two-Electron Energy =                 548.0546102042942493
    Total Energy =                       -386.0500267993461421
  Basis Set: (AUG-CC-PVTZ AUX)
    Blend: AUG-CC-PVTZ-RI
    Molecular point group: c1

    Geometry (in Angstrom), charge = 0, multiplicity = 1:

       Center              X                  Y                   Z               Mass
    ------------   -----------------  -----------------  -----------------  -----------------
         O           -2.790175400488    -0.926349269254    -0.745269720240    15.994914619570
         C           -2.775237400488    -0.054736269254     0.385650279760    12.000000000000
         C           -1.362051800488     0.259481630746     0.761188079760    12.000000000000
         C            3.582023599512    -0.240227269254     0.221667279760    12.000000000000
         C           -3.412619900488     1.297254330746     0.080506479760    12.000000000000
         C           -0.285568400488    -0.305568269254     0.111910279760    12.000000000000
         C            2.160676599512    -0.524103269254    -0.148126720240    12.000000000000
         C            1.086927599512    -0.037611269254     0.501620279760    12.000000000000
         C            4.319098599512     0.523445730746    -0.880916720240    12.000000000000
         H           -3.291891400488    -0.538118269254     1.233053279760     1.007825032230
         H           -1.202380400488     0.815109730746     1.648243279760     1.007825032230
         H            3.607808599512     0.335190730746     1.154258279760     1.007825032230
         H            4.108902599512    -1.183089269254     0.418333279760     1.007825032230
         H           -2.986648400488     1.730387730746    -0.788068720240     1.007825032230
         H           -4.533055400488     1.084734730746    -0.187004720240     1.007825032230
         H           -3.448911400488     1.943258730746     0.917125279760     1.007825032230
         H           -0.452347400488    -0.938169269254    -0.756954720240     1.007825032230
         H            2.000998599512    -1.154988269254    -1.024990720240     1.007825032230
         H            1.241796599512     0.595694730746     1.377551279760     1.007825032230
         H            4.308940599512    -0.040053269254    -1.818326720240     1.007825032230
         H            5.362594599512     0.704175730746    -0.607230720240     1.007825032230
         H            3.838935599512     1.488110730746    -1.063926720240     1.007825032230
         H           -3.722921400488    -1.070108269254    -0.979788720240     1.007825032230

  Basis Set: AUG-CC-PVTZ
    Blend: AUG-CC-PVTZ
  Basis Set: (AUG-CC-PVTZ AUX)
    Blend: AUG-CC-PVTZ-JKFIT
	 Reference Energy          =    -386.0500267993460852 [Eh]
	 Singles Energy            =      -0.0000000000000000 [Eh]
	 Same-Spin Energy          =      -0.4011578360876528 [Eh]
	 Opposite-Spin Energy      =      -1.3800266922814197 [Eh]
	 Correlation Energy        =      -1.7811845283690726 [Eh]
	 Total Energy              =    -387.8312113277151525 [Eh]

	 ================> DF-SCS-MP2 Energies <==================
	-----------------------------------------------------------
	 SCS Same-Spin Scale       =       0.3333333333333333 [-]
	 SCS Opposite-Spin Scale   =       1.2000000000000000 [-]
	 SCS Same-Spin Energy      =      -0.1337192786958842 [Eh]
	 SCS Opposite-Spin Energy  =      -1.6560320307377037 [Eh]
	 SCS Correlation Energy    =      -1.7897513094335880 [Eh]
	 SCS Total Energy          =    -387.8397781087796830 [Eh]
	-----------------------------------------------------------

  Dipole Moment: [D]
     X:    -1.1170      Y:     0.5872      Z:     0.6483     Total:     1.4188

*** Psi4 exiting successfully. Buy a developer a beer!
