                               Psi4 1.3.2 release

  ==> Input File <==

--------------------------------------------------------------------------
#psi4
#
memory 32 gb

molecule  {
0 1
  O       -2.7910411    -0.9067939    -0.7512330
  C       -2.7698910    -0.0438090     0.3861860
  C       -1.3446020     0.1937550     0.7721520
  C        3.5873700    -0.2293000     0.2222030
  C       -3.4780167     1.2656058     0.0526617
  C       -0.2802220    -0.2946410     0.1124460
  C        2.1660230    -0.5131760    -0.1475910
  C        1.0922740    -0.0266840     0.5021560
  C        4.3244450     0.5343730    -0.8803810
  H       -3.2865450    -0.5271910     1.2335890
  H       -1.1970340     0.8260370     1.6487790
  H        3.6131550     0.3461180     1.1547940
  H        4.1142490    -1.1721620     0.4188690
  H       -2.9813020     1.7413150    -0.7875330
  H       -4.5277090     1.0956620    -0.1864690
  H       -3.4435650     1.9541860     0.9176610
  H       -0.4470010    -0.9272420    -0.7564190
  H        2.0063450    -1.1440610    -1.0244550
  H        1.2471430     0.6066220     1.3780870
  H        4.3142870    -0.0291260    -1.8177910
  H        5.3679410     0.7151030    -0.6066950
  H        3.8442820     1.4990380    -1.0633910
  H       -3.7175750    -1.0591810    -0.9792530
units angstrom
no_reorient  #important for SAPT in psi4, default
symmetry c1  #important for SAPT in psi4, default
}

set PROPERTIES_ORIGIN ["COM"]
properties('MP2/aug-cc-pvtz', properties = ['dipole'])
--------------------------------------------------------------------------

    Molecular point group: c1
  Charge       = 0
  Multiplicity = 1
  Basis Set: AUG-CC-PVTZ
    Blend: AUG-CC-PVTZ
  Basis Set: (AUG-CC-PVTZ AUX)
    Blend: AUG-CC-PVTZ-JKFIT

    Orbital Energies [Eh]
    ---------------------

    Doubly Occupied:

       1A    -20.557430     2A    -11.286533     3A    -11.226109
       4A    -11.223914     5A    -11.223382     6A    -11.223170
       7A    -11.222055     8A    -11.220143     9A    -11.212961
      10A     -1.361655    11A     -1.098012    12A     -1.061423
      13A     -1.016022    14A     -0.962516    15A     -0.876908
      16A     -0.828870    17A     -0.752604    18A     -0.748609
      19A     -0.696189    20A     -0.637429    21A     -0.627913
      22A     -0.616003    23A     -0.590545    24A     -0.583145
      25A     -0.548440    26A     -0.543055    27A     -0.525986
      28A     -0.519122    29A     -0.500975    30A     -0.492095
      31A     -0.479257    32A     -0.468237    33A     -0.452613
      34A     -0.418429    35A     -0.297707

  @DF-RHF Final Energy:  -386.06282767028932

   => Energetics <=

    Nuclear Repulsion Energy =            418.2873335399325470
    One-Electron Energy =               -1352.5014050215506813
    Two-Electron Energy =                 548.1512438113287544
    Total Energy =                       -386.0628276702893800
  Basis Set: (AUG-CC-PVTZ AUX)
    Blend: AUG-CC-PVTZ-RI
    Molecular point group: c1

    Geometry (in Angstrom), charge = 0, multiplicity = 1:

       Center              X                  Y                   Z               Mass
    ------------   -----------------  -----------------  -----------------  -----------------
         O           -2.790019449931    -0.907469742578    -0.749236069632    15.994914619570
         C           -2.768869349931    -0.044484842578     0.388182930368    12.000000000000
         C           -1.343580349931     0.193079157422     0.774148930368    12.000000000000
         C            3.588391650069    -0.229975842578     0.224199930368    12.000000000000
         C           -3.476995049931     1.264929957422     0.054658630368    12.000000000000
         C           -0.279200349931    -0.295316842578     0.114442930368    12.000000000000
         C            2.167044650069    -0.513851842578    -0.145594069632    12.000000000000
         C            1.093295650069    -0.027359842578     0.504152930368    12.000000000000
         C            4.325466650069     0.533697157422    -0.878384069632    12.000000000000
         H           -3.285523349931    -0.527866842578     1.235585930368     1.007825032230
         H           -1.196012349931     0.825361157422     1.650775930368     1.007825032230
         H            3.614176650069     0.345442157422     1.156790930368     1.007825032230
         H            4.115270650069    -1.172837842578     0.420865930368     1.007825032230
         H           -2.980280349931     1.740639157422    -0.785536069632     1.007825032230
         H           -4.526687349931     1.094986157422    -0.184472069632     1.007825032230
         H           -3.442543349931     1.953510157422     0.919657930368     1.007825032230
         H           -0.445979349931    -0.927917842578    -0.754422069632     1.007825032230
         H            2.007366650069    -1.144736842578    -1.022458069632     1.007825032230
         H            1.248164650069     0.605946157422     1.380083930368     1.007825032230
         H            4.315308650069    -0.029801842578    -1.815794069632     1.007825032230
         H            5.368962650069     0.714427157422    -0.604698069632     1.007825032230
         H            3.845303650069     1.498362157422    -1.061394069632     1.007825032230
         H           -3.716553349931    -1.059856842578    -0.977256069632     1.007825032230

  Basis Set: AUG-CC-PVTZ
    Blend: AUG-CC-PVTZ
  Basis Set: (AUG-CC-PVTZ AUX)
    Blend: AUG-CC-PVTZ-JKFIT
	 Reference Energy          =    -386.0628276702893231 [Eh]
	 Singles Energy            =      -0.0000000000000000 [Eh]
	 Same-Spin Energy          =      -0.4002370307031166 [Eh]
	 Opposite-Spin Energy      =      -1.3780574255143359 [Eh]
	 Correlation Energy        =      -1.7782944562174525 [Eh]
	 Total Energy              =    -387.8411221265067752 [Eh]

	 ================> DF-SCS-MP2 Energies <==================
	-----------------------------------------------------------
	 SCS Same-Spin Scale       =       0.3333333333333333 [-]
	 SCS Opposite-Spin Scale   =       1.2000000000000000 [-]
	 SCS Same-Spin Energy      =      -0.1334123435677055 [Eh]
	 SCS Opposite-Spin Energy  =      -1.6536689106172029 [Eh]
	 SCS Correlation Energy    =      -1.7870812541849084 [Eh]
	 SCS Total Energy          =    -387.8499089244742208 [Eh]
	-----------------------------------------------------------

  Dipole Moment: [D]
     X:    -1.1398      Y:     0.6184      Z:     0.5890     Total:     1.4243

*** Psi4 exiting successfully. Buy a developer a beer!
