                               Psi4 1.4a3.dev225

  ==> Input File <==

--------------------------------------------------------------------------
#psi4
#
memory 32 gb

molecule  {
0 1
  O       -2.7624640     1.3159430     0.2248240
  C       -2.8209640    -0.0168770    -0.2887760
  C       -1.4198970    -0.4865040    -0.5315690
  C        3.5469730    -0.0618850    -0.4287090
  C       -3.5485140    -0.9406360     0.6857820
  C       -0.2959619     0.2380590    -0.2536849
  C        2.1505970     0.4383770    -0.2221580
  C        1.0342680    -0.2689350    -0.4861660
  C        4.3265940    -0.1505530     0.8872490
  H       -3.3622360    -0.0200820    -1.2509840
  H       -1.3293920    -1.4912640    -0.9473420
  H        3.5136740    -1.0471260    -0.9088000
  H        4.0812660     0.6062640    -1.1173180
  H       -3.0279280    -0.9272120     1.6463760
  H       -4.5820380    -0.6089360     0.8383050
  H       -3.5770120    -1.9680220     0.3103630
  H       -0.4219900     1.2292040     0.1523950
  H        2.0485920     1.4434520     0.1930580
  H        1.1311650    -1.2755230    -0.8987060
  H        4.3778580     0.8269450     1.3761990
  H        5.3504770    -0.4972710     0.7173650
  H        3.8373540    -0.8453320     1.5752720
  H       -3.6799020     1.6047450     0.3678300
units angstrom
no_reorient  #important for SAPT in psi4, default
symmetry c1  #important for SAPT in psi4, default
}

set PROPERTIES_ORIGIN ["COM"]
properties('MP2/aug-cc-pvtz', properties = ['dipole'])
--------------------------------------------------------------------------

    Molecular point group: c1
  Charge       = 0
  Multiplicity = 1
  Basis Set: AUG-CC-PVTZ
    Blend: AUG-CC-PVTZ
  Basis Set: (AUG-CC-PVTZ AUX)
    Blend: AUG-CC-PVTZ-JKFIT

    Orbital Energies [Eh]
    ---------------------

    Doubly Occupied:

       1A    -20.558875     2A    -11.287127     3A    -11.226383
       4A    -11.226227     5A    -11.224513     6A    -11.223662
       7A    -11.223146     8A    -11.220928     9A    -11.213253
      10A     -1.360139    11A     -1.097228    12A     -1.059191
      13A     -1.016357    14A     -0.960295    15A     -0.877232
      16A     -0.827687    17A     -0.752502    18A     -0.749330
      19A     -0.695176    20A     -0.637144    21A     -0.626548
      22A     -0.616641    23A     -0.589724    24A     -0.582769
      25A     -0.546495    26A     -0.543113    27A     -0.527230
      28A     -0.518286    29A     -0.502599    30A     -0.492336
      31A     -0.479311    32A     -0.469657    33A     -0.452548
      34A     -0.417841    35A     -0.293671

  @DF-RHF Final Energy:  -386.06067866003565

   => Energetics <=

    Nuclear Repulsion Energy =            417.6330392741919013
    One-Electron Energy =               -1351.1971083476676085
    Two-Electron Energy =                 547.5033904134400018
    Total Energy =                       -386.0606786600357054
  Basis Set: (AUG-CC-PVTZ AUX)
    Blend: AUG-CC-PVTZ-RI
    Molecular point group: c1

    Geometry (in Angstrom), charge = 0, multiplicity = 1:

       Center              X                  Y                   Z               Mass
    ------------   -----------------  -----------------  -----------------  -----------------
         O           -2.729838427597     1.291617546136     0.240606600533    15.994914619570
         C           -2.788338427597    -0.041202453864    -0.272993399467    12.000000000000
         C           -1.387271427597    -0.510829453864    -0.515786399467    12.000000000000
         C            3.579598572403    -0.086210453864    -0.412926399467    12.000000000000
         C           -3.515888427597    -0.964961453864     0.701564600533    12.000000000000
         C           -0.263336327597     0.213733546136    -0.237902299467    12.000000000000
         C            2.183222572403     0.414051546136    -0.206375399467    12.000000000000
         C            1.066893572403    -0.293260453864    -0.470383399467    12.000000000000
         C            4.359219572403    -0.174878453864     0.903031600533    12.000000000000
         H           -3.329610427597    -0.044407453864    -1.235201399467     1.007825032230
         H           -1.296766427597    -1.515589453864    -0.931559399467     1.007825032230
         H            3.546299572403    -1.071451453864    -0.893017399467     1.007825032230
         H            4.113891572403     0.581938546136    -1.101535399467     1.007825032230
         H           -2.995302427597    -0.951537453864     1.662158600533     1.007825032230
         H           -4.549412427597    -0.633261453864     0.854087600533     1.007825032230
         H           -3.544386427597    -1.992347453864     0.326145600533     1.007825032230
         H           -0.389364427597     1.204878546136     0.168177600533     1.007825032230
         H            2.081217572403     1.419126546136     0.208840600533     1.007825032230
         H            1.163790572403    -1.299848453864    -0.882923399467     1.007825032230
         H            4.410483572403     0.802619546136     1.391981600533     1.007825032230
         H            5.383102572403    -0.521596453864     0.733147600533     1.007825032230
         H            3.869979572403    -0.869657453864     1.591054600533     1.007825032230
         H           -3.647276427597     1.580419546136     0.383612600533     1.007825032230

  Basis Set: AUG-CC-PVTZ
    Blend: AUG-CC-PVTZ
  Basis Set: (AUG-CC-PVTZ AUX)
    Blend: AUG-CC-PVTZ-JKFIT
	 Reference Energy          =    -386.0606786600356486 [Eh]
	 Singles Energy            =      -0.0000000000000000 [Eh]
	 Same-Spin Energy          =      -0.4006377657217367 [Eh]
	 Opposite-Spin Energy      =      -1.3790546574624720 [Eh]
	 Correlation Energy        =      -1.7796924231842088 [Eh]
	 Total Energy              =    -387.8403710832198499 [Eh]

	 ================> DF-SCS-MP2 Energies <==================
	-----------------------------------------------------------
	 SCS Same-Spin Scale       =       0.3333333333333333 [-]
	 SCS Opposite-Spin Scale   =       1.2000000000000000 [-]
	 SCS Same-Spin Energy      =      -0.1335459219072456 [Eh]
	 SCS Opposite-Spin Energy  =      -1.6548655889549664 [Eh]
	 SCS Correlation Energy    =      -1.7884115108622118 [Eh]
	 SCS Total Energy          =    -387.8490901708978527 [Eh]
	-----------------------------------------------------------

  Dipole Moment: [D]
     X:    -1.1946      Y:    -0.7937      Z:    -0.1436     Total:     1.4414

*** Psi4 exiting successfully. Buy a developer a beer!
