                               Psi4 1.3.2 release

  ==> Input File <==

--------------------------------------------------------------------------
#psi4
#
memory 32 gb

molecule  {
0 1
  O       -2.7848290    -0.9154220    -0.7447340
  C       -2.7698910    -0.0438090     0.3861860
  C       -1.3446020     0.1937550     0.7721520
  C        3.5873700    -0.2293000     0.2222030
  C       -3.4755630     1.2700040     0.0649850
  C       -0.3095137    -0.3159087     0.0825996
  C        2.1660230    -0.5131760    -0.1475910
  C        1.0922740    -0.0266840     0.5021560
  C        4.3244450     0.5343730    -0.8803810
  H       -3.2865450    -0.5271910     1.2335890
  H       -1.2348439     0.8289345     1.6522269
  H        3.6131550     0.3461180     1.1547940
  H        4.1142490    -1.1721620     0.4188690
  H       -2.9813020     1.7413150    -0.7875330
  H       -4.5277090     1.0956620    -0.1864690
  H       -3.4435650     1.9541860     0.9176610
  H       -0.4470010    -0.9272420    -0.7564190
  H        2.0063450    -1.1440610    -1.0244550
  H        1.2471430     0.6066220     1.3780870
  H        4.3142870    -0.0291260    -1.8177910
  H        5.3679410     0.7151030    -0.6066950
  H        3.8442820     1.4990380    -1.0633910
  H       -3.7175750    -1.0591810    -0.9792530
units angstrom
no_reorient  #important for SAPT in psi4, default
symmetry c1  #important for SAPT in psi4, default
}

set PROPERTIES_ORIGIN ["COM"]
properties('MP2/aug-cc-pvtz', properties = ['dipole'])
--------------------------------------------------------------------------

    Molecular point group: c1
  Charge       = 0
  Multiplicity = 1
  Basis Set: AUG-CC-PVTZ
    Blend: AUG-CC-PVTZ
  Basis Set: (AUG-CC-PVTZ AUX)
    Blend: AUG-CC-PVTZ-JKFIT

    Orbital Energies [Eh]
    ---------------------

    Doubly Occupied:

       1A    -20.558318     2A    -11.284577     3A    -11.225827
       4A    -11.224171     5A    -11.223698     6A    -11.222508
       7A    -11.222447     8A    -11.220360     9A    -11.212340
      10A     -1.360502    11A     -1.094613    12A     -1.061445
      13A     -1.013561    14A     -0.962185    15A     -0.874449
      16A     -0.828003    17A     -0.754317    18A     -0.748963
      19A     -0.694692    20A     -0.638966    21A     -0.624938
      22A     -0.616814    23A     -0.590462    24A     -0.580279
      25A     -0.549213    26A     -0.544066    27A     -0.527098
      28A     -0.520161    29A     -0.506705    30A     -0.492213
      31A     -0.478477    32A     -0.462320    33A     -0.452008
      34A     -0.413959    35A     -0.299830

  @DF-RHF Final Energy:  -386.06042291250316

   => Energetics <=

    Nuclear Repulsion Energy =            418.0843854479974766
    One-Electron Energy =               -1352.1206512191770344
    Two-Electron Energy =                 547.9758428586765149
    Total Energy =                       -386.0604229125030997
  Basis Set: (AUG-CC-PVTZ AUX)
    Blend: AUG-CC-PVTZ-RI
    Molecular point group: c1

    Geometry (in Angstrom), charge = 0, multiplicity = 1:

       Center              X                  Y                   Z               Mass
    ------------   -----------------  -----------------  -----------------  -----------------
         O           -2.781739225266    -0.913421335053    -0.741921465126    15.994914619570
         C           -2.766801225266    -0.041808335053     0.388998534874    12.000000000000
         C           -1.341512225266     0.195755664947     0.774964534874    12.000000000000
         C            3.590459774734    -0.227299335053     0.225015534874    12.000000000000
         C           -3.472473225266     1.272004664947     0.067797534874    12.000000000000
         C           -0.306423925266    -0.313908035053     0.085412134874    12.000000000000
         C            2.169112774734    -0.511175335053    -0.144778465126    12.000000000000
         C            1.095363774734    -0.024683335053     0.504968534874    12.000000000000
         C            4.327534774734     0.536373664947    -0.877568465126    12.000000000000
         H           -3.283455225266    -0.525190335053     1.236401534874     1.007825032230
         H           -1.231754125266     0.830935164947     1.655039434874     1.007825032230
         H            3.616244774734     0.348118664947     1.157606534874     1.007825032230
         H            4.117338774734    -1.170161335053     0.421681534874     1.007825032230
         H           -2.978212225266     1.743315664947    -0.784720465126     1.007825032230
         H           -4.524619225266     1.097662664947    -0.183656465126     1.007825032230
         H           -3.440475225266     1.956186664947     0.920473534874     1.007825032230
         H           -0.443911225266    -0.925241335053    -0.753606465126     1.007825032230
         H            2.009434774734    -1.142060335053    -1.021642465126     1.007825032230
         H            1.250232774734     0.608622664947     1.380899534874     1.007825032230
         H            4.317376774734    -0.027125335053    -1.814978465126     1.007825032230
         H            5.371030774734     0.717103664947    -0.603882465126     1.007825032230
         H            3.847371774734     1.501038664947    -1.060578465126     1.007825032230
         H           -3.714485225266    -1.057180335053    -0.976440465126     1.007825032230

  Basis Set: AUG-CC-PVTZ
    Blend: AUG-CC-PVTZ
  Basis Set: (AUG-CC-PVTZ AUX)
    Blend: AUG-CC-PVTZ-JKFIT
	 Reference Energy          =    -386.0604229125031566 [Eh]
	 Singles Energy            =      -0.0000000000000000 [Eh]
	 Same-Spin Energy          =      -0.3998668058670616 [Eh]
	 Opposite-Spin Energy      =      -1.3779841532136357 [Eh]
	 Correlation Energy        =      -1.7778509590806972 [Eh]
	 Total Energy              =    -387.8382738715838514 [Eh]

	 ================> DF-SCS-MP2 Energies <==================
	-----------------------------------------------------------
	 SCS Same-Spin Scale       =       0.3333333333333333 [-]
	 SCS Opposite-Spin Scale   =       1.2000000000000000 [-]
	 SCS Same-Spin Energy      =      -0.1332889352890205 [Eh]
	 SCS Opposite-Spin Energy  =      -1.6535809838563627 [Eh]
	 SCS Correlation Energy    =      -1.7868699191453832 [Eh]
	 SCS Total Energy          =    -387.8472928316485309 [Eh]
	-----------------------------------------------------------

  Dipole Moment: [D]
     X:    -1.1901      Y:     0.6418      Z:     0.5878     Total:     1.4743

*** Psi4 exiting successfully. Buy a developer a beer!
