                               Psi4 1.3.2 release

  ==> Input File <==

--------------------------------------------------------------------------
#psi4
#
memory 32 gb

molecule  {
0 1
  O       -2.7848290    -0.9154220    -0.7447340
  C       -2.7698910    -0.0438090     0.3861860
  C       -1.3446020     0.1937550     0.7721520
  C        3.5873700    -0.2293000     0.2222030
  C       -3.4755630     1.2700040     0.0649850
  C       -0.2802220    -0.2946410     0.1124460
  C        2.1660230    -0.5131760    -0.1475910
  C        1.0922740    -0.0266840     0.5021560
  C        4.3190189     0.5145356    -0.8974246
  H       -3.2865450    -0.5271910     1.2335890
  H       -1.1970340     0.8260370     1.6487790
  H        3.6031927     0.3322542     1.1634273
  H        4.1142490    -1.1721620     0.4188690
  H       -2.9813020     1.7413150    -0.7875330
  H       -4.5277090     1.0956620    -0.1864690
  H       -3.4435650     1.9541860     0.9176610
  H       -0.4470010    -0.9272420    -0.7564190
  H        2.0063450    -1.1440610    -1.0244550
  H        1.2471430     0.6066220     1.3780870
  H        4.3142870    -0.0291260    -1.8177910
  H        5.3679410     0.7151030    -0.6066950
  H        3.8442820     1.4990380    -1.0633910
  H       -3.7175750    -1.0591810    -0.9792530
units angstrom
no_reorient  #important for SAPT in psi4, default
symmetry c1  #important for SAPT in psi4, default
}

set PROPERTIES_ORIGIN ["COM"]
properties('MP2/aug-cc-pvtz', properties = ['dipole'])
--------------------------------------------------------------------------

    Molecular point group: c1
  Charge       = 0
  Multiplicity = 1
  Basis Set: AUG-CC-PVTZ
    Blend: AUG-CC-PVTZ
  Basis Set: (AUG-CC-PVTZ AUX)
    Blend: AUG-CC-PVTZ-JKFIT

    Orbital Energies [Eh]
    ---------------------

    Doubly Occupied:

       1A    -20.558655     2A    -11.286366     3A    -11.225727
       4A    -11.223521     5A    -11.223366     6A    -11.222793
       7A    -11.221626     8A    -11.220549     9A    -11.213307
      10A     -1.360690    11A     -1.097829    12A     -1.061389
      13A     -1.016068    14A     -0.962318    15A     -0.876740
      16A     -0.828930    17A     -0.752632    18A     -0.747922
      19A     -0.695128    20A     -0.637465    21A     -0.626933
      22A     -0.617355    23A     -0.590355    24A     -0.582425
      25A     -0.546842    26A     -0.543725    27A     -0.528718
      28A     -0.518518    29A     -0.499564    30A     -0.491353
      31A     -0.481860    32A     -0.466685    33A     -0.452742
      34A     -0.418008    35A     -0.297211

  @DF-RHF Final Energy:  -386.06166219896988

   => Energetics <=

    Nuclear Repulsion Energy =            418.3167199484669254
    One-Electron Energy =               -1352.5661344220038700
    Two-Electron Energy =                 548.1877522745670603
    Total Energy =                       -386.0616621989698842
  Basis Set: (AUG-CC-PVTZ AUX)
    Blend: AUG-CC-PVTZ-RI
    Molecular point group: c1

    Geometry (in Angstrom), charge = 0, multiplicity = 1:

       Center              X                  Y                   Z               Mass
    ------------   -----------------  -----------------  -----------------  -----------------
         O           -2.784232814277    -0.913423485193    -0.743181210971    15.994914619570
         C           -2.769294814277    -0.041810485193     0.387738789029    12.000000000000
         C           -1.344005814277     0.195753514807     0.773704789029    12.000000000000
         C            3.587966185723    -0.227301485193     0.223755789029    12.000000000000
         C           -3.474966814277     1.272002514807     0.066537789029    12.000000000000
         C           -0.279625814277    -0.292642485193     0.113998789029    12.000000000000
         C            2.166619185723    -0.511177485193    -0.146038210971    12.000000000000
         C            1.092870185723    -0.024685485193     0.503708789029    12.000000000000
         C            4.319615085723     0.516534114807    -0.895871810971    12.000000000000
         H           -3.285948814277    -0.525192485193     1.235141789029     1.007825032230
         H           -1.196437814277     0.828035514807     1.650331789029     1.007825032230
         H            3.603788885723     0.334252714807     1.164980089029     1.007825032230
         H            4.114845185723    -1.170163485193     0.420421789029     1.007825032230
         H           -2.980705814277     1.743313514807    -0.785980210971     1.007825032230
         H           -4.527112814277     1.097660514807    -0.184916210971     1.007825032230
         H           -3.442968814277     1.956184514807     0.919213789029     1.007825032230
         H           -0.446404814277    -0.925243485193    -0.754866210971     1.007825032230
         H            2.006941185723    -1.142062485193    -1.022902210971     1.007825032230
         H            1.247739185723     0.608620514807     1.379639789029     1.007825032230
         H            4.314883185723    -0.027127485193    -1.816238210971     1.007825032230
         H            5.368537185723     0.717101514807    -0.605142210971     1.007825032230
         H            3.844878185723     1.501036514807    -1.061838210971     1.007825032230
         H           -3.716978814277    -1.057182485193    -0.977700210971     1.007825032230

  Basis Set: AUG-CC-PVTZ
    Blend: AUG-CC-PVTZ
  Basis Set: (AUG-CC-PVTZ AUX)
    Blend: AUG-CC-PVTZ-JKFIT
	 Reference Energy          =    -386.0616621989698842 [Eh]
	 Singles Energy            =      -0.0000000000000000 [Eh]
	 Same-Spin Energy          =      -0.4003885509722407 [Eh]
	 Opposite-Spin Energy      =      -1.3783606721783390 [Eh]
	 Correlation Energy        =      -1.7787492231505797 [Eh]
	 Total Energy              =    -387.8404114221204395 [Eh]

	 ================> DF-SCS-MP2 Energies <==================
	-----------------------------------------------------------
	 SCS Same-Spin Scale       =       0.3333333333333333 [-]
	 SCS Opposite-Spin Scale   =       1.2000000000000000 [-]
	 SCS Same-Spin Energy      =      -0.1334628503240802 [Eh]
	 SCS Opposite-Spin Energy  =      -1.6540328066140069 [Eh]
	 SCS Correlation Energy    =      -1.7874956569380871 [Eh]
	 SCS Total Energy          =    -387.8491578559079471 [Eh]
	-----------------------------------------------------------

  Dipole Moment: [D]
     X:    -1.1497      Y:     0.6301      Z:     0.5673     Total:     1.4285

*** Psi4 exiting successfully. Buy a developer a beer!
