                               Psi4 1.3.2 release

  ==> Input File <==

--------------------------------------------------------------------------
#psi4
#
memory 32 gb

molecule  {
0 1
  O       -2.7350172    -0.9165268    -0.7434422
  C       -2.7698910    -0.0438090     0.3861860
  C       -1.3297494     0.1627990     0.7328278
  C        3.5873700    -0.2293000     0.2222030
  C       -3.4755630     1.2700040     0.0649850
  C       -0.2802220    -0.2946410     0.1124460
  C        2.1660230    -0.5131760    -0.1475910
  C        1.0922740    -0.0266840     0.5021560
  C        4.3244450     0.5343730    -0.8803810
  H       -3.2865450    -0.5271910     1.2335890
  H       -1.1970340     0.8260370     1.6487790
  H        3.6131550     0.3461180     1.1547940
  H        4.1142490    -1.1721620     0.4188690
  H       -2.9813020     1.7413150    -0.7875330
  H       -4.5277090     1.0956620    -0.1864690
  H       -3.4435650     1.9541860     0.9176610
  H       -0.4470010    -0.9272420    -0.7564190
  H        2.0063450    -1.1440610    -1.0244550
  H        1.2471430     0.6066220     1.3780870
  H        4.3142870    -0.0291260    -1.8177910
  H        5.3679410     0.7151030    -0.6066950
  H        3.8442820     1.4990380    -1.0633910
  H       -3.7175750    -1.0591810    -0.9792530
units angstrom
no_reorient  #important for SAPT in psi4, default
symmetry c1  #important for SAPT in psi4, default
}

set PROPERTIES_ORIGIN ["COM"]
properties('MP2/aug-cc-pvtz', properties = ['dipole'])
--------------------------------------------------------------------------

    Molecular point group: c1
  Charge       = 0
  Multiplicity = 1
  Basis Set: AUG-CC-PVTZ
    Blend: AUG-CC-PVTZ
  Basis Set: (AUG-CC-PVTZ AUX)
    Blend: AUG-CC-PVTZ-JKFIT

    Orbital Energies [Eh]
    ---------------------

    Doubly Occupied:

       1A    -20.563825     2A    -11.286509     3A    -11.225554
       4A    -11.222964     5A    -11.222694     6A    -11.222294
       7A    -11.219473     8A    -11.214662     9A    -11.212634
      10A     -1.354126    11A     -1.099490    12A     -1.061372
      13A     -1.016269    14A     -0.965931    15A     -0.875569
      16A     -0.830150    17A     -0.753150    18A     -0.734789
      19A     -0.692640    20A     -0.635999    21A     -0.629977
      22A     -0.616323    23A     -0.589629    24A     -0.579750
      25A     -0.546272    26A     -0.542904    27A     -0.526580
      28A     -0.517613    29A     -0.496060    30A     -0.492680
      31A     -0.478632    32A     -0.463507    33A     -0.453212
      34A     -0.422276    35A     -0.302642

  @DF-RHF Final Energy:  -386.05344238422015

   => Energetics <=

    Nuclear Repulsion Energy =            419.1286598348914936
    One-Electron Energy =               -1354.2279077650041472
    Two-Electron Energy =                 549.0458055458924491
    Total Energy =                       -386.0534423842201477
  Basis Set: (AUG-CC-PVTZ AUX)
    Blend: AUG-CC-PVTZ-RI
    Molecular point group: c1

    Geometry (in Angstrom), charge = 0, multiplicity = 1:

       Center              X                  Y                   Z               Mass
    ------------   -----------------  -----------------  -----------------  -----------------
         O           -2.742748396997    -0.913440916106    -0.739864059807    15.994914619570
         C           -2.777622196997    -0.040723116106     0.389764140193    12.000000000000
         C           -1.337480596997     0.165884883894     0.736405940193    12.000000000000
         C            3.579638803003    -0.226214116106     0.225781140193    12.000000000000
         C           -3.483294196997     1.273089883894     0.068563140193    12.000000000000
         C           -0.287953196997    -0.291555116106     0.116024140193    12.000000000000
         C            2.158291803003    -0.510090116106    -0.144012859807    12.000000000000
         C            1.084542803003    -0.023598116106     0.505734140193    12.000000000000
         C            4.316713803003     0.537458883894    -0.876802859807    12.000000000000
         H           -3.294276196997    -0.524105116106     1.237167140193     1.007825032230
         H           -1.204765196997     0.829122883894     1.652357140193     1.007825032230
         H            3.605423803003     0.349203883894     1.158372140193     1.007825032230
         H            4.106517803003    -1.169076116106     0.422447140193     1.007825032230
         H           -2.989033196997     1.744400883894    -0.783954859807     1.007825032230
         H           -4.535440196997     1.098747883894    -0.182890859807     1.007825032230
         H           -3.451296196997     1.957271883894     0.921239140193     1.007825032230
         H           -0.454732196997    -0.924156116106    -0.752840859807     1.007825032230
         H            1.998613803003    -1.140975116106    -1.020876859807     1.007825032230
         H            1.239411803003     0.609707883894     1.381665140193     1.007825032230
         H            4.306555803003    -0.026040116106    -1.814212859807     1.007825032230
         H            5.360209803003     0.718188883894    -0.603116859807     1.007825032230
         H            3.836550803003     1.502123883894    -1.059812859807     1.007825032230
         H           -3.725306196997    -1.056095116106    -0.975674859807     1.007825032230

  Basis Set: AUG-CC-PVTZ
    Blend: AUG-CC-PVTZ
  Basis Set: (AUG-CC-PVTZ AUX)
    Blend: AUG-CC-PVTZ-JKFIT
	 Reference Energy          =    -386.0534423842201477 [Eh]
	 Singles Energy            =      -0.0000000000000000 [Eh]
	 Same-Spin Energy          =      -0.4008941149458805 [Eh]
	 Opposite-Spin Energy      =      -1.3796873099474087 [Eh]
	 Correlation Energy        =      -1.7805814248932892 [Eh]
	 Total Energy              =    -387.8340238091134324 [Eh]

	 ================> DF-SCS-MP2 Energies <==================
	-----------------------------------------------------------
	 SCS Same-Spin Scale       =       0.3333333333333333 [-]
	 SCS Opposite-Spin Scale   =       1.2000000000000000 [-]
	 SCS Same-Spin Energy      =      -0.1336313716486268 [Eh]
	 SCS Opposite-Spin Energy  =      -1.6556247719368904 [Eh]
	 SCS Correlation Energy    =      -1.7892561435855172 [Eh]
	 SCS Total Energy          =    -387.8426985278056804 [Eh]
	-----------------------------------------------------------

  Dipole Moment: [D]
     X:    -1.2675      Y:     0.6297      Z:     0.5268     Total:     1.5102

*** Psi4 exiting successfully. Buy a developer a beer!
