                               Psi4 1.3.2 release

  ==> Input File <==

--------------------------------------------------------------------------
#psi4
#
memory 32 gb

molecule  {
0 1
  O       -2.7848290    -0.9154220    -0.7447340
  C       -2.7698910    -0.0438090     0.3861860
  C       -1.3446020     0.1937550     0.7721520
  C        3.5873700    -0.2293000     0.2222030
  C       -3.4755630     1.2700040     0.0649850
  C       -0.2802220    -0.2946410     0.1124460
  C        2.1739838    -0.4889101    -0.1931312
  C        1.0922740    -0.0266840     0.5021560
  C        4.2796495     0.5337328    -0.9094761
  H       -3.2865450    -0.5271910     1.2335890
  H       -1.1970340     0.8260370     1.6487790
  H        3.6131550     0.3461180     1.1547940
  H        4.1142490    -1.1721620     0.4188690
  H       -2.9813020     1.7413150    -0.7875330
  H       -4.5277090     1.0956620    -0.1864690
  H       -3.4435650     1.9541860     0.9176610
  H       -0.4470010    -0.9272420    -0.7564190
  H        2.0063450    -1.1440610    -1.0244550
  H        1.2471430     0.6066220     1.3780870
  H        4.3142870    -0.0291260    -1.8177910
  H        5.3679410     0.7151030    -0.6066950
  H        3.8442820     1.4990380    -1.0633910
  H       -3.7175750    -1.0591810    -0.9792530
units angstrom
no_reorient  #important for SAPT in psi4, default
symmetry c1  #important for SAPT in psi4, default
}

set PROPERTIES_ORIGIN ["COM"]
properties('MP2/aug-cc-pvtz', properties = ['dipole'])
--------------------------------------------------------------------------

    Molecular point group: c1
  Charge       = 0
  Multiplicity = 1
  Basis Set: AUG-CC-PVTZ
    Blend: AUG-CC-PVTZ
  Basis Set: (AUG-CC-PVTZ AUX)
    Blend: AUG-CC-PVTZ-JKFIT

    Orbital Energies [Eh]
    ---------------------

    Doubly Occupied:

       1A    -20.558544     2A    -11.286179     3A    -11.226882
       4A    -11.225317     5A    -11.223714     6A    -11.222960
       7A    -11.221337     8A    -11.220403     9A    -11.212545
      10A     -1.360568    11A     -1.096401    12A     -1.061750
      13A     -1.015610    14A     -0.959783    15A     -0.875895
      16A     -0.827443    17A     -0.757086    18A     -0.747467
      19A     -0.694878    20A     -0.637609    21A     -0.628590
      22A     -0.617810    23A     -0.589603    24A     -0.582068
      25A     -0.546647    26A     -0.542507    27A     -0.528755
      28A     -0.520453    29A     -0.497044    30A     -0.492938
      31A     -0.485731    32A     -0.463911    33A     -0.452253
      34A     -0.415805    35A     -0.294072

  @DF-RHF Final Energy:  -386.05677471114234

   => Energetics <=

    Nuclear Repulsion Energy =            418.3916149728825644
    One-Electron Energy =               -1352.7156595085953086
    Two-Electron Energy =                 548.2672698245704623
    Total Energy =                       -386.0567747111423387
  Basis Set: (AUG-CC-PVTZ AUX)
    Blend: AUG-CC-PVTZ-RI
    Molecular point group: c1

    Geometry (in Angstrom), charge = 0, multiplicity = 1:

       Center              X                  Y                   Z               Mass
    ------------   -----------------  -----------------  -----------------  -----------------
         O           -2.781323615586    -0.917670198300    -0.737631833671    15.994914619570
         C           -2.766385615586    -0.046057198300     0.393288166329    12.000000000000
         C           -1.341096615586     0.191506801700     0.779254166329    12.000000000000
         C            3.590875384414    -0.231548198300     0.229305166329    12.000000000000
         C           -3.472057615586     1.267755801700     0.072087166329    12.000000000000
         C           -0.276716615586    -0.296889198300     0.119548166329    12.000000000000
         C            2.177489184414    -0.491158298300    -0.186029033671    12.000000000000
         C            1.095779384414    -0.028932198300     0.509258166329    12.000000000000
         C            4.283154884414     0.531484601700    -0.902373933671    12.000000000000
         H           -3.283039615586    -0.529439198300     1.240691166329     1.007825032230
         H           -1.193528615586     0.823788801700     1.655881166329     1.007825032230
         H            3.616660384414     0.343869801700     1.161896166329     1.007825032230
         H            4.117754384414    -1.174410198300     0.425971166329     1.007825032230
         H           -2.977796615586     1.739066801700    -0.780430833671     1.007825032230
         H           -4.524203615586     1.093413801700    -0.179366833671     1.007825032230
         H           -3.440059615586     1.951937801700     0.924763166329     1.007825032230
         H           -0.443495615586    -0.929490198300    -0.749316833671     1.007825032230
         H            2.009850384414    -1.146309198300    -1.017352833671     1.007825032230
         H            1.250648384414     0.604373801700     1.385189166329     1.007825032230
         H            4.317792384414    -0.031374198300    -1.810688833671     1.007825032230
         H            5.371446384414     0.712854801700    -0.599592833671     1.007825032230
         H            3.847787384414     1.496789801700    -1.056288833671     1.007825032230
         H           -3.714069615586    -1.061429198300    -0.972150833671     1.007825032230

  Basis Set: AUG-CC-PVTZ
    Blend: AUG-CC-PVTZ
  Basis Set: (AUG-CC-PVTZ AUX)
    Blend: AUG-CC-PVTZ-JKFIT
	 Reference Energy          =    -386.0567747111423387 [Eh]
	 Singles Energy            =      -0.0000000000000000 [Eh]
	 Same-Spin Energy          =      -0.4007609409546744 [Eh]
	 Opposite-Spin Energy      =      -1.3792019197232492 [Eh]
	 Correlation Energy        =      -1.7799628606779236 [Eh]
	 Total Energy              =    -387.8367375718202652 [Eh]

	 ================> DF-SCS-MP2 Energies <==================
	-----------------------------------------------------------
	 SCS Same-Spin Scale       =       0.3333333333333333 [-]
	 SCS Opposite-Spin Scale   =       1.2000000000000000 [-]
	 SCS Same-Spin Energy      =      -0.1335869803182248 [Eh]
	 SCS Opposite-Spin Energy  =      -1.6550423036678990 [Eh]
	 SCS Correlation Energy    =      -1.7886292839861238 [Eh]
	 SCS Total Energy          =    -387.8454039951284358 [Eh]
	-----------------------------------------------------------

  Dipole Moment: [D]
     X:    -1.1670      Y:     0.5866      Z:     0.5912     Total:     1.4338

*** Psi4 exiting successfully. Buy a developer a beer!
