                               Psi4 1.3.2 release

  ==> Input File <==

--------------------------------------------------------------------------
#psi4
#
memory 32 gb

molecule  {
0 1
  O       -2.7848290    -0.9154220    -0.7447340
  C       -2.7698910    -0.0438090     0.3861860
  C       -1.3446020     0.1937550     0.7721520
  C        3.5873700    -0.2293000     0.2222030
  C       -3.4755630     1.2700040     0.0649850
  C       -0.2802220    -0.2946410     0.1124460
  C        2.1660230    -0.5131760    -0.1475910
  C        1.0922740    -0.0266840     0.5021560
  C        4.3244450     0.5343730    -0.8803810
  H       -3.2865450    -0.5271910     1.2335890
  H       -1.1970340     0.8260370     1.6487790
  H        3.6084503     0.2411270     0.9846330
  H        4.1142490    -1.1721620     0.4188690
  H       -2.9813020     1.7413150    -0.7875330
  H       -4.5277090     1.0956620    -0.1864690
  H       -3.4435650     1.9541860     0.9176610
  H       -0.4470010    -0.9272420    -0.7564190
  H        2.0063450    -1.1440610    -1.0244550
  H        1.2471430     0.6066220     1.3780870
  H        4.3142870    -0.0291260    -1.8177910
  H        5.3679410     0.7151030    -0.6066950
  H        3.8442820     1.4990380    -1.0633910
  H       -3.7175750    -1.0591810    -0.9792530
units angstrom
no_reorient  #important for SAPT in psi4, default
symmetry c1  #important for SAPT in psi4, default
}

set PROPERTIES_ORIGIN ["COM"]
properties('MP2/aug-cc-pvtz', properties = ['dipole'])
--------------------------------------------------------------------------

    Molecular point group: c1
  Charge       = 0
  Multiplicity = 1
  Basis Set: AUG-CC-PVTZ
    Blend: AUG-CC-PVTZ
  Basis Set: (AUG-CC-PVTZ AUX)
    Blend: AUG-CC-PVTZ-JKFIT

    Orbital Energies [Eh]
    ---------------------

    Doubly Occupied:

       1A    -20.558539     2A    -11.286249     3A    -11.224936
       4A    -11.223357     5A    -11.222609     6A    -11.221504
       7A    -11.220457     8A    -11.211552     9A    -11.198109
      10A     -1.360571    11A     -1.101145    12A     -1.066402
      13A     -1.019070    14A     -0.962705    15A     -0.879937
      16A     -0.839257    17A     -0.763584    18A     -0.747766
      19A     -0.695311    20A     -0.645504    21A     -0.627441
      22A     -0.618983    23A     -0.594504    24A     -0.584174
      25A     -0.546291    26A     -0.543013    27A     -0.527628
      28A     -0.518984    29A     -0.503490    30A     -0.495829
      31A     -0.489606    32A     -0.467164    33A     -0.452649
      34A     -0.417977    35A     -0.297049

  @DF-RHF Final Energy:  -386.02951262575147

   => Energetics <=

    Nuclear Repulsion Energy =            419.2470524227336455
    One-Electron Energy =               -1354.2864445821928712
    Two-Electron Energy =                 549.0098795337078172
    Total Energy =                       -386.0295126257514085
  Basis Set: (AUG-CC-PVTZ AUX)
    Blend: AUG-CC-PVTZ-RI
    Molecular point group: c1

    Geometry (in Angstrom), charge = 0, multiplicity = 1:

       Center              X                  Y                   Z               Mass
    ------------   -----------------  -----------------  -----------------  -----------------
         O           -2.784791176273    -0.914582909061    -0.743374144892    15.994914619570
         C           -2.769853176273    -0.042969909061     0.387545855108    12.000000000000
         C           -1.344564176273     0.194594090939     0.773511855108    12.000000000000
         C            3.587407823727    -0.228460909061     0.223562855108    12.000000000000
         C           -3.475525176273     1.270843090939     0.066344855108    12.000000000000
         C           -0.280184176273    -0.293801909061     0.113805855108    12.000000000000
         C            2.166060823727    -0.512336909061    -0.146231144892    12.000000000000
         C            1.092311823727    -0.025844909061     0.503515855108    12.000000000000
         C            4.324482823727     0.535212090939    -0.879021144892    12.000000000000
         H           -3.286507176273    -0.526351909061     1.234948855108     1.007825032230
         H           -1.196996176273     0.826876090939     1.650138855108     1.007825032230
         H            3.608488123727     0.241966090939     0.985992855108     1.007825032230
         H            4.114286823727    -1.171322909061     0.420228855108     1.007825032230
         H           -2.981264176273     1.742154090939    -0.786173144892     1.007825032230
         H           -4.527671176273     1.096501090939    -0.185109144892     1.007825032230
         H           -3.443527176273     1.955025090939     0.919020855108     1.007825032230
         H           -0.446963176273    -0.926402909061    -0.755059144892     1.007825032230
         H            2.006382823727    -1.143221909061    -1.023095144892     1.007825032230
         H            1.247180823727     0.607461090939     1.379446855108     1.007825032230
         H            4.314324823727    -0.028286909061    -1.816431144892     1.007825032230
         H            5.367978823727     0.715942090939    -0.605335144892     1.007825032230
         H            3.844319823727     1.499877090939    -1.062031144892     1.007825032230
         H           -3.717537176273    -1.058341909061    -0.977893144892     1.007825032230

  Basis Set: AUG-CC-PVTZ
    Blend: AUG-CC-PVTZ
  Basis Set: (AUG-CC-PVTZ AUX)
    Blend: AUG-CC-PVTZ-JKFIT
	 Reference Energy          =    -386.0295126257514653 [Eh]
	 Singles Energy            =      -0.0000000000000000 [Eh]
	 Same-Spin Energy          =      -0.4003272399879342 [Eh]
	 Opposite-Spin Energy      =      -1.3775100778677423 [Eh]
	 Correlation Energy        =      -1.7778373178556766 [Eh]
	 Total Energy              =    -387.8073499436071643 [Eh]

	 ================> DF-SCS-MP2 Energies <==================
	-----------------------------------------------------------
	 SCS Same-Spin Scale       =       0.3333333333333333 [-]
	 SCS Opposite-Spin Scale   =       1.2000000000000000 [-]
	 SCS Same-Spin Energy      =      -0.1334424133293114 [Eh]
	 SCS Opposite-Spin Energy  =      -1.6530120934412906 [Eh]
	 SCS Correlation Energy    =      -1.7864545067706019 [Eh]
	 SCS Total Energy          =    -387.8159671325220756 [Eh]
	-----------------------------------------------------------

  Dipole Moment: [D]
     X:    -1.1285      Y:     0.6721      Z:     0.6682     Total:     1.4737

*** Psi4 exiting successfully. Buy a developer a beer!
