                               Psi4 1.3.2 release

  ==> Input File <==

--------------------------------------------------------------------------
#psi4
#
memory 32 gb

molecule  {
0 1
  O       -2.7848290    -0.9154220    -0.7447340
  C       -2.7698910    -0.0438090     0.3861860
  C       -1.3446020     0.1937550     0.7721520
  C        3.5832478    -0.2218496     0.2320973
  C       -3.4755630     1.2700040     0.0649850
  C       -0.2802220    -0.2946410     0.1124460
  C        2.1660230    -0.5131760    -0.1475910
  C        1.0993981    -0.0210437     0.5095997
  C        4.3244450     0.5343730    -0.8803810
  H       -3.2865450    -0.5271910     1.2335890
  H       -1.1970340     0.8260370     1.6487790
  H        3.6131550     0.3461180     1.1547940
  H        4.1142490    -1.1721620     0.4188690
  H       -2.9813020     1.7413150    -0.7875330
  H       -4.5277090     1.0956620    -0.1864690
  H       -3.4435650     1.9541860     0.9176610
  H       -0.4470010    -0.9272420    -0.7564190
  H        2.0063450    -1.1440610    -1.0244550
  H        1.2471430     0.6066220     1.3780870
  H        4.3142870    -0.0291260    -1.8177910
  H        5.3679410     0.7151030    -0.6066950
  H        3.8442820     1.4990380    -1.0633910
  H       -3.7175750    -1.0591810    -0.9792530
units angstrom
no_reorient  #important for SAPT in psi4, default
symmetry c1  #important for SAPT in psi4, default
}

set PROPERTIES_ORIGIN ["COM"]
properties('MP2/aug-cc-pvtz', properties = ['dipole'])
--------------------------------------------------------------------------

    Molecular point group: c1
  Charge       = 0
  Multiplicity = 1
  Basis Set: AUG-CC-PVTZ
    Blend: AUG-CC-PVTZ
  Basis Set: (AUG-CC-PVTZ AUX)
    Blend: AUG-CC-PVTZ-JKFIT

    Orbital Energies [Eh]
    ---------------------

    Doubly Occupied:

       1A    -20.558606     2A    -11.286236     3A    -11.225936
       4A    -11.223669     5A    -11.222795     6A    -11.222608
       7A    -11.221632     8A    -11.220472     9A    -11.212941
      10A     -1.360630    11A     -1.097096    12A     -1.060947
      13A     -1.015030    14A     -0.962087    15A     -0.875879
      16A     -0.828545    17A     -0.753793    18A     -0.747786
      19A     -0.695090    20A     -0.637603    21A     -0.626215
      22A     -0.617335    23A     -0.590897    24A     -0.581783
      25A     -0.546426    26A     -0.543412    27A     -0.528495
      28A     -0.516846    29A     -0.500938    30A     -0.492601
      31A     -0.482787    32A     -0.466547    33A     -0.452562
      34A     -0.416759    35A     -0.297747

  @DF-RHF Final Energy:  -386.06256218087208

   => Energetics <=

    Nuclear Repulsion Energy =            418.1755977353550975
    One-Electron Energy =               -1352.2948555402836064
    Two-Electron Energy =                 548.0566956240564878
    Total Energy =                       -386.0625621808720780
  Basis Set: (AUG-CC-PVTZ AUX)
    Blend: AUG-CC-PVTZ-RI
    Molecular point group: c1

    Geometry (in Angstrom), charge = 0, multiplicity = 1:

       Center              X                  Y                   Z               Mass
    ------------   -----------------  -----------------  -----------------  -----------------
         O           -2.785114434569    -0.916667696129    -0.746383939312    15.994914619570
         C           -2.770176434569    -0.045054696129     0.384536060688    12.000000000000
         C           -1.344887434569     0.192509303871     0.770502060688    12.000000000000
         C            3.582962365431    -0.223095296129     0.230447360688    12.000000000000
         C           -3.475848434569     1.268758303871     0.063335060688    12.000000000000
         C           -0.280507434569    -0.295886696129     0.110796060688    12.000000000000
         C            2.165737565431    -0.514421696129    -0.149240939312    12.000000000000
         C            1.099112665431    -0.022289396129     0.507949760688    12.000000000000
         C            4.324159565431     0.533127303871    -0.882030939312    12.000000000000
         H           -3.286830434569    -0.528436696129     1.231939060688     1.007825032230
         H           -1.197319434569     0.824791303871     1.647129060688     1.007825032230
         H            3.612869565431     0.344872303871     1.153144060688     1.007825032230
         H            4.113963565431    -1.173407696129     0.417219060688     1.007825032230
         H           -2.981587434569     1.740069303871    -0.789182939312     1.007825032230
         H           -4.527994434569     1.094416303871    -0.188118939312     1.007825032230
         H           -3.443850434569     1.952940303871     0.916011060688     1.007825032230
         H           -0.447286434569    -0.928487696129    -0.758068939312     1.007825032230
         H            2.006059565431    -1.145306696129    -1.026104939312     1.007825032230
         H            1.246857565431     0.605376303871     1.376437060688     1.007825032230
         H            4.314001565431    -0.030371696129    -1.819440939312     1.007825032230
         H            5.367655565431     0.713857303871    -0.608344939312     1.007825032230
         H            3.843996565431     1.497792303871    -1.065040939312     1.007825032230
         H           -3.717860434569    -1.060426696129    -0.980902939312     1.007825032230

  Basis Set: AUG-CC-PVTZ
    Blend: AUG-CC-PVTZ
  Basis Set: (AUG-CC-PVTZ AUX)
    Blend: AUG-CC-PVTZ-JKFIT
	 Reference Energy          =    -386.0625621808720780 [Eh]
	 Singles Energy            =      -0.0000000000000000 [Eh]
	 Same-Spin Energy          =      -0.4001861124739145 [Eh]
	 Opposite-Spin Energy      =      -1.3781308687202019 [Eh]
	 Correlation Energy        =      -1.7783169811941164 [Eh]
	 Total Energy              =    -387.8408791620661873 [Eh]

	 ================> DF-SCS-MP2 Energies <==================
	-----------------------------------------------------------
	 SCS Same-Spin Scale       =       0.3333333333333333 [-]
	 SCS Opposite-Spin Scale   =       1.2000000000000000 [-]
	 SCS Same-Spin Energy      =      -0.1333953708246381 [Eh]
	 SCS Opposite-Spin Energy  =      -1.6537570424642423 [Eh]
	 SCS Correlation Energy    =      -1.7871524132888803 [Eh]
	 SCS Total Energy          =    -387.8497145941609574 [Eh]
	-----------------------------------------------------------

  Dipole Moment: [D]
     X:    -1.1496      Y:     0.6446      Z:     0.5841     Total:     1.4416

*** Psi4 exiting successfully. Buy a developer a beer!
