                               Psi4 1.3.2 release

  ==> Input File <==

--------------------------------------------------------------------------
#psi4
#
memory 32 gb

molecule  {
0 1
  O       -2.7848290    -0.9154220    -0.7447340
  C       -2.7698910    -0.0438090     0.3861860
  C       -1.3446020     0.1937550     0.7721520
  C        3.5913839    -0.2367720     0.2122805
  C       -3.4755630     1.2700040     0.0649850
  C       -0.2802220    -0.2946410     0.1124460
  C        2.1660230    -0.5131760    -0.1475910
  C        1.0852317    -0.0323613     0.4946628
  C        4.3244450     0.5343730    -0.8803810
  H       -3.2865450    -0.5271910     1.2335890
  H       -1.1970340     0.8260370     1.6487790
  H        3.6131550     0.3461180     1.1547940
  H        4.1142490    -1.1721620     0.4188690
  H       -2.9813020     1.7413150    -0.7875330
  H       -4.5277090     1.0956620    -0.1864690
  H       -3.4435650     1.9541860     0.9176610
  H       -0.4470010    -0.9272420    -0.7564190
  H        2.0063450    -1.1440610    -1.0244550
  H        1.2471430     0.6066220     1.3780870
  H        4.3142870    -0.0291260    -1.8177910
  H        5.3679410     0.7151030    -0.6066950
  H        3.8442820     1.4990380    -1.0633910
  H       -3.7175750    -1.0591810    -0.9792530
units angstrom
no_reorient  #important for SAPT in psi4, default
symmetry c1  #important for SAPT in psi4, default
}

set PROPERTIES_ORIGIN ["COM"]
properties('MP2/aug-cc-pvtz', properties = ['dipole'])
--------------------------------------------------------------------------

    Molecular point group: c1
  Charge       = 0
  Multiplicity = 1
  Basis Set: AUG-CC-PVTZ
    Blend: AUG-CC-PVTZ
  Basis Set: (AUG-CC-PVTZ AUX)
    Blend: AUG-CC-PVTZ-JKFIT

    Orbital Energies [Eh]
    ---------------------

    Doubly Occupied:

       1A    -20.558861     2A    -11.286704     3A    -11.225980
       4A    -11.223916     5A    -11.223711     6A    -11.223414
       7A    -11.221685     8A    -11.220797     9A    -11.212831
      10A     -1.360915    11A     -1.098599    12A     -1.061718
      13A     -1.017226    14A     -0.962858    15A     -0.877490
      16A     -0.828765    17A     -0.751909    18A     -0.747673
      19A     -0.695279    20A     -0.637132    21A     -0.628666
      22A     -0.617339    23A     -0.590417    24A     -0.583505
      25A     -0.546614    26A     -0.543596    27A     -0.526235
      28A     -0.521191    29A     -0.500747    30A     -0.491922
      31A     -0.475827    32A     -0.468651    33A     -0.453172
      34A     -0.419773    35A     -0.297201

  @DF-RHF Final Energy:  -386.06186574739388

   => Energetics <=

    Nuclear Repulsion Energy =            418.3673512985141656
    One-Electron Energy =               -1352.6537899077977727
    Two-Electron Energy =                 548.2245728618896692
    Total Energy =                       -386.0618657473938811
  Basis Set: (AUG-CC-PVTZ AUX)
    Blend: AUG-CC-PVTZ-RI
    Molecular point group: c1

    Geometry (in Angstrom), charge = 0, multiplicity = 1:

       Center              X                  Y                   Z               Mass
    ------------   -----------------  -----------------  -----------------  -----------------
         O           -2.784540596046    -0.914170718724    -0.743076805026    15.994914619570
         C           -2.769602596046    -0.042557718724     0.387843194974    12.000000000000
         C           -1.344313596046     0.195006281276     0.773809194974    12.000000000000
         C            3.591672303954    -0.235520718724     0.213937694974    12.000000000000
         C           -3.475274596046     1.271255281276     0.066642194974    12.000000000000
         C           -0.279933596046    -0.293389718724     0.114103194974    12.000000000000
         C            2.166311403954    -0.511924718724    -0.145933805026    12.000000000000
         C            1.085520103954    -0.031110018724     0.496319994974    12.000000000000
         C            4.324733403954     0.535624281276    -0.878723805026    12.000000000000
         H           -3.286256596046    -0.525939718724     1.235246194974     1.007825032230
         H           -1.196745596046     0.827288281276     1.650436194974     1.007825032230
         H            3.613443403954     0.347369281276     1.156451194974     1.007825032230
         H            4.114537403954    -1.170910718724     0.420526194974     1.007825032230
         H           -2.981013596046     1.742566281276    -0.785875805026     1.007825032230
         H           -4.527420596046     1.096913281276    -0.184811805026     1.007825032230
         H           -3.443276596046     1.955437281276     0.919318194974     1.007825032230
         H           -0.446712596046    -0.925990718724    -0.754761805026     1.007825032230
         H            2.006633403954    -1.142809718724    -1.022797805026     1.007825032230
         H            1.247431403954     0.607873281276     1.379744194974     1.007825032230
         H            4.314575403954    -0.027874718724    -1.816133805026     1.007825032230
         H            5.368229403954     0.716354281276    -0.605037805026     1.007825032230
         H            3.844570403954     1.500289281276    -1.061733805026     1.007825032230
         H           -3.717286596046    -1.057929718724    -0.977595805026     1.007825032230

  Basis Set: AUG-CC-PVTZ
    Blend: AUG-CC-PVTZ
  Basis Set: (AUG-CC-PVTZ AUX)
    Blend: AUG-CC-PVTZ-JKFIT
	 Reference Energy          =    -386.0618657473938811 [Eh]
	 Singles Energy            =      -0.0000000000000000 [Eh]
	 Same-Spin Energy          =      -0.4005310774475493 [Eh]
	 Opposite-Spin Energy      =      -1.3785307640340658 [Eh]
	 Correlation Energy        =      -1.7790618414816151 [Eh]
	 Total Energy              =    -387.8409275888755019 [Eh]

	 ================> DF-SCS-MP2 Energies <==================
	-----------------------------------------------------------
	 SCS Same-Spin Scale       =       0.3333333333333333 [-]
	 SCS Opposite-Spin Scale   =       1.2000000000000000 [-]
	 SCS Same-Spin Energy      =      -0.1335103591491831 [Eh]
	 SCS Opposite-Spin Energy  =      -1.6542369168408790 [Eh]
	 SCS Correlation Energy    =      -1.7877472759900621 [Eh]
	 SCS Total Energy          =    -387.8496130233839381 [Eh]
	-----------------------------------------------------------

  Dipole Moment: [D]
     X:    -1.1711      Y:     0.6392      Z:     0.5698     Total:     1.4507

*** Psi4 exiting successfully. Buy a developer a beer!
