                               Psi4 1.3.2 release

  ==> Input File <==

--------------------------------------------------------------------------
#psi4
#
memory 32 gb

molecule  {
0 1
  O       -2.7848290    -0.9154220    -0.7447340
  C       -2.7698910    -0.0438090     0.3861860
  C       -1.3446020     0.1937550     0.7721520
  C        3.5873700    -0.2293000     0.2222030
  C       -3.4755630     1.2700040     0.0649850
  C       -0.2802220    -0.2946410     0.1124460
  C        2.1660230    -0.5131760    -0.1475910
  C        1.0922740    -0.0266840     0.5021560
  C        4.3244450     0.5343730    -0.8803810
  H       -3.3333460    -0.5709780     1.3103508
  H       -1.1970340     0.8260370     1.6487790
  H        3.6131550     0.3461180     1.1547940
  H        4.1142490    -1.1721620     0.4188690
  H       -2.9813020     1.7413150    -0.7875330
  H       -4.5277090     1.0956620    -0.1864690
  H       -3.4435650     1.9541860     0.9176610
  H       -0.4470010    -0.9272420    -0.7564190
  H        2.0063450    -1.1440610    -1.0244550
  H        1.2471430     0.6066220     1.3780870
  H        4.3142870    -0.0291260    -1.8177910
  H        5.3679410     0.7151030    -0.6066950
  H        3.8442820     1.4990380    -1.0633910
  H       -3.7175750    -1.0591810    -0.9792530
units angstrom
no_reorient  #important for SAPT in psi4, default
symmetry c1  #important for SAPT in psi4, default
}

set PROPERTIES_ORIGIN ["COM"]
properties('MP2/aug-cc-pvtz', properties = ['dipole'])
--------------------------------------------------------------------------

    Molecular point group: c1
  Charge       = 0
  Multiplicity = 1
  Basis Set: AUG-CC-PVTZ
    Blend: AUG-CC-PVTZ
  Basis Set: (AUG-CC-PVTZ AUX)
    Blend: AUG-CC-PVTZ-JKFIT

    Orbital Energies [Eh]
    ---------------------

    Doubly Occupied:

       1A    -20.560892     2A    -11.298669     3A    -11.226486
       4A    -11.224475     5A    -11.223716     6A    -11.223495
       7A    -11.222639     8A    -11.221890     9A    -11.213173
      10A     -1.362072    11A     -1.098223    12A     -1.060881
      13A     -1.015224    14A     -0.962983    15A     -0.875638
      16A     -0.825503    17A     -0.751032    18A     -0.748352
      19A     -0.686984    20A     -0.638131    21A     -0.626404
      22A     -0.616375    23A     -0.590972    24A     -0.583387
      25A     -0.546926    26A     -0.543912    27A     -0.527447
      28A     -0.519279    29A     -0.501326    30A     -0.490732
      31A     -0.479342    32A     -0.468244    33A     -0.449394
      34A     -0.417064    35A     -0.297582

  @DF-RHF Final Energy:  -386.05603968138058

   => Energetics <=

    Nuclear Repulsion Energy =            417.7803584189838375
    One-Electron Energy =               -1351.4751058949482285
    Two-Electron Energy =                 547.6387077945837518
    Total Energy =                       -386.0560396813806392
  Basis Set: (AUG-CC-PVTZ AUX)
    Blend: AUG-CC-PVTZ-RI
    Molecular point group: c1

    Geometry (in Angstrom), charge = 0, multiplicity = 1:

       Center              X                  Y                   Z               Mass
    ------------   -----------------  -----------------  -----------------  -----------------
         O           -2.784454743262    -0.915072050530    -0.745347548282    15.994914619570
         C           -2.769516743262    -0.043459050530     0.385572451718    12.000000000000
         C           -1.344227743262     0.194104949470     0.771538451718    12.000000000000
         C            3.587744256738    -0.228950050530     0.221589451718    12.000000000000
         C           -3.475188743262     1.270353949470     0.064371451718    12.000000000000
         C           -0.279847743262    -0.294291050530     0.111832451718    12.000000000000
         C            2.166397256738    -0.512826050530    -0.148204548282    12.000000000000
         C            1.092648256738    -0.026334050530     0.501542451718    12.000000000000
         C            4.324819256738     0.534722949470    -0.880994548282    12.000000000000
         H           -3.332971743262    -0.570628050530     1.309737251718     1.007825032230
         H           -1.196659743262     0.826386949470     1.648165451718     1.007825032230
         H            3.613529256738     0.346467949470     1.154180451718     1.007825032230
         H            4.114623256738    -1.171812050530     0.418255451718     1.007825032230
         H           -2.980927743262     1.741664949470    -0.788146548282     1.007825032230
         H           -4.527334743262     1.096011949470    -0.187082548282     1.007825032230
         H           -3.443190743262     1.954535949470     0.917047451718     1.007825032230
         H           -0.446626743262    -0.926892050530    -0.757032548282     1.007825032230
         H            2.006719256738    -1.143711050530    -1.025068548282     1.007825032230
         H            1.247517256738     0.606971949470     1.377473451718     1.007825032230
         H            4.314661256738    -0.028776050530    -1.818404548282     1.007825032230
         H            5.368315256738     0.715452949470    -0.607308548282     1.007825032230
         H            3.844656256738     1.499387949470    -1.064004548282     1.007825032230
         H           -3.717200743262    -1.058831050530    -0.979866548282     1.007825032230

  Basis Set: AUG-CC-PVTZ
    Blend: AUG-CC-PVTZ
  Basis Set: (AUG-CC-PVTZ AUX)
    Blend: AUG-CC-PVTZ-JKFIT
	 Reference Energy          =    -386.0560396813805824 [Eh]
	 Singles Energy            =      -0.0000000000000000 [Eh]
	 Same-Spin Energy          =      -0.4004994588846919 [Eh]
	 Opposite-Spin Energy      =      -1.3791469643084244 [Eh]
	 Correlation Energy        =      -1.7796464231931162 [Eh]
	 Total Energy              =    -387.8356861045737105 [Eh]

	 ================> DF-SCS-MP2 Energies <==================
	-----------------------------------------------------------
	 SCS Same-Spin Scale       =       0.3333333333333333 [-]
	 SCS Opposite-Spin Scale   =       1.2000000000000000 [-]
	 SCS Same-Spin Energy      =      -0.1334998196282306 [Eh]
	 SCS Opposite-Spin Energy  =      -1.6549763571701093 [Eh]
	 SCS Correlation Energy    =      -1.7884761767983399 [Eh]
	 SCS Total Energy          =    -387.8445158581789087 [Eh]
	-----------------------------------------------------------

  Dipole Moment: [D]
     X:    -1.0944      Y:     0.6670      Z:     0.4888     Total:     1.3717

*** Psi4 exiting successfully. Buy a developer a beer!
