                               Psi4 1.3.2 release

  ==> Input File <==

--------------------------------------------------------------------------
#psi4
#
memory 32 gb

molecule  {
0 1
  O       -2.7848290    -0.9154220    -0.7447340
  C       -2.7775677    -0.0293487     0.4065167
  C       -1.3446020     0.1937550     0.7721520
  C        3.5873700    -0.2293000     0.2222030
  C       -3.4755630     1.2700040     0.0649850
  C       -0.2660660    -0.2841134     0.1279088
  C        2.1660230    -0.5131760    -0.1475910
  C        1.0922740    -0.0266840     0.5021560
  C        4.3244450     0.5343730    -0.8803810
  H       -3.2865450    -0.5271910     1.2335890
  H       -1.1970340     0.8260370     1.6487790
  H        3.6131550     0.3461180     1.1547940
  H        4.1142490    -1.1721620     0.4188690
  H       -2.9813020     1.7413150    -0.7875330
  H       -4.5277090     1.0956620    -0.1864690
  H       -3.4435650     1.9541860     0.9176610
  H       -0.4470010    -0.9272420    -0.7564190
  H        2.0063450    -1.1440610    -1.0244550
  H        1.2471430     0.6066220     1.3780870
  H        4.3142870    -0.0291260    -1.8177910
  H        5.3679410     0.7151030    -0.6066950
  H        3.8442820     1.4990380    -1.0633910
  H       -3.7175750    -1.0591810    -0.9792530
units angstrom
no_reorient  #important for SAPT in psi4, default
symmetry c1  #important for SAPT in psi4, default
}

set PROPERTIES_ORIGIN ["COM"]
properties('MP2/aug-cc-pvtz', properties = ['dipole'])
--------------------------------------------------------------------------

    Molecular point group: c1
  Charge       = 0
  Multiplicity = 1
  Basis Set: AUG-CC-PVTZ
    Blend: AUG-CC-PVTZ
  Basis Set: (AUG-CC-PVTZ AUX)
    Blend: AUG-CC-PVTZ-JKFIT

    Orbital Energies [Eh]
    ---------------------

    Doubly Occupied:

       1A    -20.555812     2A    -11.286844     3A    -11.227016
       4A    -11.224137     5A    -11.223756     6A    -11.222583
       7A    -11.222060     8A    -11.221309     9A    -11.213282
      10A     -1.351007    11A     -1.099820    12A     -1.062312
      13A     -1.019496    14A     -0.963373    15A     -0.878381
      16A     -0.829383    17A     -0.754659    18A     -0.743757
      19A     -0.693380    20A     -0.634684    21A     -0.629787
      22A     -0.615551    23A     -0.590299    24A     -0.582855
      25A     -0.546284    26A     -0.544475    27A     -0.524874
      28A     -0.518954    29A     -0.497014    30A     -0.490941
      31A     -0.479770    32A     -0.470291    33A     -0.454585
      34A     -0.421907    35A     -0.297024

  @DF-RHF Final Energy:  -386.06027239005169

   => Energetics <=

    Nuclear Repulsion Energy =            418.1311748080808570
    One-Electron Energy =               -1352.1995713613930548
    Two-Electron Energy =                 548.0081241632605042
    Total Energy =                       -386.0602723900516366
  Basis Set: (AUG-CC-PVTZ AUX)
    Blend: AUG-CC-PVTZ-RI
    Molecular point group: c1

    Geometry (in Angstrom), charge = 0, multiplicity = 1:

       Center              X                  Y                   Z               Mass
    ------------   -----------------  -----------------  -----------------  -----------------
         O           -2.785445341171    -0.917799824162    -0.748140149925    15.994914619570
         C           -2.778184041171    -0.031726524162     0.403110550075    12.000000000000
         C           -1.345218341171     0.191377175838     0.768745850075    12.000000000000
         C            3.586753658829    -0.231677824162     0.218796850075    12.000000000000
         C           -3.476179341171     1.267626175838     0.061578850075    12.000000000000
         C           -0.266682341171    -0.286491224162     0.124502650075    12.000000000000
         C            2.165406658829    -0.515553824162    -0.150997149925    12.000000000000
         C            1.091657658829    -0.029061824162     0.498749850075    12.000000000000
         C            4.323828658829     0.531995175838    -0.883787149925    12.000000000000
         H           -3.287161341171    -0.529568824162     1.230182850075     1.007825032230
         H           -1.197650341171     0.823659175838     1.645372850075     1.007825032230
         H            3.612538658829     0.343740175838     1.151387850075     1.007825032230
         H            4.113632658829    -1.174539824162     0.415462850075     1.007825032230
         H           -2.981918341171     1.738937175838    -0.790939149925     1.007825032230
         H           -4.528325341171     1.093284175838    -0.189875149925     1.007825032230
         H           -3.444181341171     1.951808175838     0.914254850075     1.007825032230
         H           -0.447617341171    -0.929619824162    -0.759825149925     1.007825032230
         H            2.005728658829    -1.146438824162    -1.027861149925     1.007825032230
         H            1.246526658829     0.604244175838     1.374680850075     1.007825032230
         H            4.313670658829    -0.031503824162    -1.821197149925     1.007825032230
         H            5.367324658829     0.712725175838    -0.610101149925     1.007825032230
         H            3.843665658829     1.496660175838    -1.066797149925     1.007825032230
         H           -3.718191341171    -1.061558824162    -0.982659149925     1.007825032230

  Basis Set: AUG-CC-PVTZ
    Blend: AUG-CC-PVTZ
  Basis Set: (AUG-CC-PVTZ AUX)
    Blend: AUG-CC-PVTZ-JKFIT
	 Reference Energy          =    -386.0602723900516935 [Eh]
	 Singles Energy            =      -0.0000000000000000 [Eh]
	 Same-Spin Energy          =      -0.4007301464334773 [Eh]
	 Opposite-Spin Energy      =      -1.3791257107230992 [Eh]
	 Correlation Energy        =      -1.7798558571565766 [Eh]
	 Total Energy              =    -387.8401282472082698 [Eh]

	 ================> DF-SCS-MP2 Energies <==================
	-----------------------------------------------------------
	 SCS Same-Spin Scale       =       0.3333333333333333 [-]
	 SCS Opposite-Spin Scale   =       1.2000000000000000 [-]
	 SCS Same-Spin Energy      =      -0.1335767154778258 [Eh]
	 SCS Opposite-Spin Energy  =      -1.6549508528677190 [Eh]
	 SCS Correlation Energy    =      -1.7885275683455448 [Eh]
	 SCS Total Energy          =    -387.8487999583972510 [Eh]
	-----------------------------------------------------------

  Dipole Moment: [D]
     X:    -1.1324      Y:     0.6996      Z:     0.6305     Total:     1.4728

*** Psi4 exiting successfully. Buy a developer a beer!
