                               Psi4 1.4a3.dev225

  ==> Input File <==

--------------------------------------------------------------------------
#psi4
#
memory 32 gb

molecule  {
0 1
  O       -2.7624640     1.3159430     0.2248240
  C       -2.8209640    -0.0168770    -0.2887760
  C       -1.4198970    -0.4865040    -0.5315690
  C        3.5469730    -0.0618850    -0.4287090
  C       -3.5485140    -0.9406360     0.6857820
  C       -0.3124200     0.2274490    -0.2577540
  C        2.1505970     0.4383770    -0.2221580
  C        1.0342680    -0.2689350    -0.4861660
  C        4.3265940    -0.1505530     0.8872490
  H       -3.3622360    -0.0200820    -1.2509840
  H       -1.3293920    -1.4912640    -0.9473420
  H        3.5136740    -1.0471260    -0.9088000
  H        4.0812660     0.6062640    -1.1173180
  H       -3.0279280    -0.9272120     1.6463760
  H       -4.5820380    -0.6089360     0.8383050
  H       -3.5770120    -1.9680220     0.3103630
  H       -0.4219900     1.2292040     0.1523950
  H        2.0485920     1.4434520     0.1930580
  H        1.1356011    -1.3216057    -0.9175926
  H        4.3778580     0.8269450     1.3761990
  H        5.3504770    -0.4972710     0.7173650
  H        3.8373540    -0.8453320     1.5752720
  H       -3.6799020     1.6047450     0.3678300
units angstrom
no_reorient  #important for SAPT in psi4, default
symmetry c1  #important for SAPT in psi4, default
}

set PROPERTIES_ORIGIN ["COM"]
properties('MP2/aug-cc-pvtz', properties = ['dipole'])
--------------------------------------------------------------------------

    Molecular point group: c1
  Charge       = 0
  Multiplicity = 1
  Basis Set: AUG-CC-PVTZ
    Blend: AUG-CC-PVTZ
  Basis Set: (AUG-CC-PVTZ AUX)
    Blend: AUG-CC-PVTZ-JKFIT

    Orbital Energies [Eh]
    ---------------------

    Doubly Occupied:

       1A    -20.558973     2A    -11.287174     3A    -11.230165
       4A    -11.226533     5A    -11.224548     6A    -11.223671
       7A    -11.222908     8A    -11.221075     9A    -11.213202
      10A     -1.360301    11A     -1.096423    12A     -1.060754
      13A     -1.015339    14A     -0.961868    15A     -0.876341
      16A     -0.828216    17A     -0.750822    18A     -0.744747
      19A     -0.694008    20A     -0.636378    21A     -0.627148
      22A     -0.616461    23A     -0.588717    24A     -0.581954
      25A     -0.546530    26A     -0.543074    27A     -0.525413
      28A     -0.518596    29A     -0.500320    30A     -0.491332
      31A     -0.479111    32A     -0.467222    33A     -0.452992
      34A     -0.418256    35A     -0.297606

  @DF-RHF Final Energy:  -386.05993206224184

   => Energetics <=

    Nuclear Repulsion Energy =            417.5244442383616388
    One-Electron Energy =               -1350.9923978725419147
    Two-Electron Energy =                 547.4080215719384341
    Total Energy =                       -386.0599320622418418
  Basis Set: (AUG-CC-PVTZ AUX)
    Blend: AUG-CC-PVTZ-RI
    Molecular point group: c1

    Geometry (in Angstrom), charge = 0, multiplicity = 1:

       Center              X                  Y                   Z               Mass
    ------------   -----------------  -----------------  -----------------  -----------------
         O           -2.728307741215     1.292995477508     0.241144754263    15.994914619570
         C           -2.786807741215    -0.039824522492    -0.272455245737    12.000000000000
         C           -1.385740741215    -0.509451522492    -0.515248245737    12.000000000000
         C            3.581129258785    -0.084832522492    -0.412388245737    12.000000000000
         C           -3.514357741215    -0.963583522492     0.702102754263    12.000000000000
         C           -0.278263741215     0.204501477508    -0.241433245737    12.000000000000
         C            2.184753258785     0.415429477508    -0.205837245737    12.000000000000
         C            1.068424258785    -0.291882522492    -0.469845245737    12.000000000000
         C            4.360750258785    -0.173500522492     0.903569754263    12.000000000000
         H           -3.328079741215    -0.043029522492    -1.234663245737     1.007825032230
         H           -1.295235741215    -1.514211522492    -0.931021245737     1.007825032230
         H            3.547830258785    -1.070073522492    -0.892479245737     1.007825032230
         H            4.115422258785     0.583316477508    -1.100997245737     1.007825032230
         H           -2.993771741215    -0.950159522492     1.662696754263     1.007825032230
         H           -4.547881741215    -0.631883522492     0.854625754263     1.007825032230
         H           -3.542855741215    -1.990969522492     0.326683754263     1.007825032230
         H           -0.387833741215     1.206256477508     0.168715754263     1.007825032230
         H            2.082748258785     1.420504477508     0.209378754263     1.007825032230
         H            1.169757358785    -1.344553222492    -0.901271845737     1.007825032230
         H            4.412014258785     0.803997477508     1.392519754263     1.007825032230
         H            5.384633258785    -0.520218522492     0.733685754263     1.007825032230
         H            3.871510258785    -0.868279522492     1.591592754263     1.007825032230
         H           -3.645745741215     1.581797477508     0.384150754263     1.007825032230

  Basis Set: AUG-CC-PVTZ
    Blend: AUG-CC-PVTZ
  Basis Set: (AUG-CC-PVTZ AUX)
    Blend: AUG-CC-PVTZ-JKFIT
	 Reference Energy          =    -386.0599320622418418 [Eh]
	 Singles Energy            =      -0.0000000000000000 [Eh]
	 Same-Spin Energy          =      -0.4004048563095295 [Eh]
	 Opposite-Spin Energy      =      -1.3788278620505046 [Eh]
	 Correlation Energy        =      -1.7792327183600340 [Eh]
	 Total Energy              =    -387.8391647806018909 [Eh]

	 ================> DF-SCS-MP2 Energies <==================
	-----------------------------------------------------------
	 SCS Same-Spin Scale       =       0.3333333333333333 [-]
	 SCS Opposite-Spin Scale   =       1.2000000000000000 [-]
	 SCS Same-Spin Energy      =      -0.1334682854365098 [Eh]
	 SCS Opposite-Spin Energy  =      -1.6545934344606055 [Eh]
	 SCS Correlation Energy    =      -1.7880617198971154 [Eh]
	 SCS Total Energy          =    -387.8479937821389854 [Eh]
	-----------------------------------------------------------

  Dipole Moment: [D]
     X:    -1.2138      Y:    -0.7718      Z:    -0.1331     Total:     1.4446

*** Psi4 exiting successfully. Buy a developer a beer!
