                               Psi4 1.4a3.dev225

  ==> Input File <==

--------------------------------------------------------------------------
#psi4
#
memory 32 gb

molecule  {
0 1
  O       -2.7624640     1.3159430     0.2248240
  C       -2.8209640    -0.0168770    -0.2887760
  C       -1.4198970    -0.4865040    -0.5315690
  C        3.5469730    -0.0618850    -0.4287090
  C       -3.5485140    -0.9406360     0.6857820
  C       -0.3124200     0.2274490    -0.2577540
  C        2.1972176     0.4216748    -0.2290541
  C        1.0342680    -0.2689350    -0.4861660
  C        4.3265940    -0.1505530     0.8872490
  H       -3.3622360    -0.0200820    -1.2509840
  H       -1.3293920    -1.4912640    -0.9473420
  H        3.5136740    -1.0471260    -0.9088000
  H        4.0812660     0.6062640    -1.1173180
  H       -3.0279280    -0.9272120     1.6463760
  H       -4.5820380    -0.6089360     0.8383050
  H       -3.5770120    -1.9680220     0.3103630
  H       -0.4219900     1.2292040     0.1523950
  H        2.0485920     1.4434520     0.1930580
  H        1.1311650    -1.2755230    -0.8987060
  H        4.3778580     0.8269450     1.3761990
  H        5.3504770    -0.4972710     0.7173650
  H        3.8373540    -0.8453320     1.5752720
  H       -3.6799020     1.6047450     0.3678300
units angstrom
no_reorient  #important for SAPT in psi4, default
symmetry c1  #important for SAPT in psi4, default
}

set PROPERTIES_ORIGIN ["COM"]
properties('MP2/aug-cc-pvtz', properties = ['dipole'])
--------------------------------------------------------------------------

    Molecular point group: c1
  Charge       = 0
  Multiplicity = 1
  Basis Set: AUG-CC-PVTZ
    Blend: AUG-CC-PVTZ
  Basis Set: (AUG-CC-PVTZ AUX)
    Blend: AUG-CC-PVTZ-JKFIT

    Orbital Energies [Eh]
    ---------------------

    Doubly Occupied:

       1A    -20.558974     2A    -11.287358     3A    -11.230310
       4A    -11.227374     5A    -11.224999     6A    -11.223372
       7A    -11.221976     8A    -11.221138     9A    -11.214191
      10A     -1.360317    11A     -1.097499    12A     -1.064937
      13A     -1.015877    14A     -0.959344    15A     -0.880212
      16A     -0.829727    17A     -0.750472    18A     -0.747093
      19A     -0.694511    20A     -0.636982    21A     -0.629568
      22A     -0.617058    23A     -0.592379    24A     -0.582828
      25A     -0.546339    26A     -0.541789    27A     -0.525906
      28A     -0.521133    29A     -0.503021    30A     -0.493465
      31A     -0.475604    32A     -0.473588    33A     -0.452878
      34A     -0.414591    35A     -0.292886

  @DF-RHF Final Energy:  -386.05711720073413

   => Energetics <=

    Nuclear Repulsion Energy =            417.7056170940855964
    One-Electron Energy =               -1351.3060818664077942
    Two-Electron Energy =                 547.5433475715880149
    Total Energy =                       -386.0571172007341829
  Basis Set: (AUG-CC-PVTZ AUX)
    Blend: AUG-CC-PVTZ-RI
    Molecular point group: c1

    Geometry (in Angstrom), charge = 0, multiplicity = 1:

       Center              X                  Y                   Z               Mass
    ------------   -----------------  -----------------  -----------------  -----------------
         O           -2.732708666964     1.294216553235     0.241650040192    15.994914619570
         C           -2.791208666964    -0.038603446765    -0.271949959808    12.000000000000
         C           -1.390141666964    -0.508230446765    -0.514742959808    12.000000000000
         C            3.576728333036    -0.083611446765    -0.411882959808    12.000000000000
         C           -3.518758666964    -0.962362446765     0.702608040192    12.000000000000
         C           -0.282664666964     0.205722553235    -0.240927959808    12.000000000000
         C            2.226972933036     0.399948353235    -0.212228059808    12.000000000000
         C            1.064023333036    -0.290661446765    -0.469339959808    12.000000000000
         C            4.356349333036    -0.172279446765     0.904075040192    12.000000000000
         H           -3.332480666964    -0.041808446765    -1.234157959808     1.007825032230
         H           -1.299636666964    -1.512990446765    -0.930515959808     1.007825032230
         H            3.543429333036    -1.068852446765    -0.891973959808     1.007825032230
         H            4.111021333036     0.584537553235    -1.100491959808     1.007825032230
         H           -2.998172666964    -0.948938446765     1.663202040192     1.007825032230
         H           -4.552282666964    -0.630662446765     0.855131040192     1.007825032230
         H           -3.547256666964    -1.989748446765     0.327189040192     1.007825032230
         H           -0.392234666964     1.207477553235     0.169221040192     1.007825032230
         H            2.078347333036     1.421725553235     0.209884040192     1.007825032230
         H            1.160920333036    -1.297249446765    -0.881879959808     1.007825032230
         H            4.407613333036     0.805218553235     1.393025040192     1.007825032230
         H            5.380232333036    -0.518997446765     0.734191040192     1.007825032230
         H            3.867109333036    -0.867058446765     1.592098040192     1.007825032230
         H           -3.650146666964     1.583018553235     0.384656040192     1.007825032230

  Basis Set: AUG-CC-PVTZ
    Blend: AUG-CC-PVTZ
  Basis Set: (AUG-CC-PVTZ AUX)
    Blend: AUG-CC-PVTZ-JKFIT
	 Reference Energy          =    -386.0571172007341261 [Eh]
	 Singles Energy            =      -0.0000000000000000 [Eh]
	 Same-Spin Energy          =      -0.4012432716795792 [Eh]
	 Opposite-Spin Energy      =      -1.3797878254570328 [Eh]
	 Correlation Energy        =      -1.7810310971366121 [Eh]
	 Total Energy              =    -387.8381482978707595 [Eh]

	 ================> DF-SCS-MP2 Energies <==================
	-----------------------------------------------------------
	 SCS Same-Spin Scale       =       0.3333333333333333 [-]
	 SCS Opposite-Spin Scale   =       1.2000000000000000 [-]
	 SCS Same-Spin Energy      =      -0.1337477572265264 [Eh]
	 SCS Opposite-Spin Energy  =      -1.6557453905484394 [Eh]
	 SCS Correlation Energy    =      -1.7894931477749658 [Eh]
	 SCS Total Energy          =    -387.8466103485091026 [Eh]
	-----------------------------------------------------------

  Dipole Moment: [D]
     X:    -1.1650      Y:    -0.8050      Z:    -0.1448     Total:     1.4234

*** Psi4 exiting successfully. Buy a developer a beer!
