                               Psi4 1.3.2 release

  ==> Input File <==

--------------------------------------------------------------------------
#psi4
#
memory 32 gb

molecule  {
0 1
  O       -2.7848290    -0.9154220    -0.7447340
  C       -2.7698910    -0.0438090     0.3861860
  C       -1.3446020     0.1937550     0.7721520
  C        3.5873700    -0.2293000     0.2222030
  C       -3.4755630     1.2700040     0.0649850
  C       -0.2802220    -0.2946410     0.1124460
  C        2.1507139    -0.4874375    -0.1048209
  C        1.0922740    -0.0266840     0.5021560
  C        4.3244450     0.5343730    -0.8803810
  H       -3.2865450    -0.5271910     1.2335890
  H       -1.1970340     0.8260370     1.6487790
  H        3.5749172     0.3451457     1.1556663
  H        4.1142490    -1.1721620     0.4188690
  H       -2.9813020     1.7413150    -0.7875330
  H       -4.5277090     1.0956620    -0.1864690
  H       -3.4435650     1.9541860     0.9176610
  H       -0.4470010    -0.9272420    -0.7564190
  H        2.0063450    -1.1440610    -1.0244550
  H        1.2471430     0.6066220     1.3780870
  H        4.3142870    -0.0291260    -1.8177910
  H        5.3679410     0.7151030    -0.6066950
  H        3.8442820     1.4990380    -1.0633910
  H       -3.7175750    -1.0591810    -0.9792530
units angstrom
no_reorient  #important for SAPT in psi4, default
symmetry c1  #important for SAPT in psi4, default
}

set PROPERTIES_ORIGIN ["COM"]
properties('MP2/aug-cc-pvtz', properties = ['dipole'])
--------------------------------------------------------------------------

    Molecular point group: c1
  Charge       = 0
  Multiplicity = 1
  Basis Set: AUG-CC-PVTZ
    Blend: AUG-CC-PVTZ
  Basis Set: (AUG-CC-PVTZ AUX)
    Blend: AUG-CC-PVTZ-JKFIT

    Orbital Energies [Eh]
    ---------------------

    Doubly Occupied:

       1A    -20.558903     2A    -11.286780     3A    -11.224037
       4A    -11.223870     5A    -11.223087     6A    -11.222394
       7A    -11.220895     8A    -11.217282     9A    -11.213876
      10A     -1.360960    11A     -1.102197    12A     -1.062071
      13A     -1.017410    14A     -0.966642    15A     -0.876963
      16A     -0.831766    17A     -0.749545    18A     -0.743454
      19A     -0.695610    20A     -0.636718    21A     -0.629413
      22A     -0.617534    23A     -0.591738    24A     -0.583942
      25A     -0.546372    26A     -0.541627    27A     -0.525818
      28A     -0.522256    29A     -0.502072    30A     -0.492715
      31A     -0.477927    32A     -0.459467    33A     -0.453284
      34A     -0.422654    35A     -0.303519

  @DF-RHF Final Energy:  -386.05986199895256

   => Energetics <=

    Nuclear Repulsion Energy =            418.8017163937691407
    One-Electron Energy =               -1353.5135604432000491
    Two-Electron Energy =                 548.6519820504784093
    Total Energy =                       -386.0598619989525560
  Basis Set: (AUG-CC-PVTZ AUX)
    Blend: AUG-CC-PVTZ-RI
    Molecular point group: c1

    Geometry (in Angstrom), charge = 0, multiplicity = 1:

       Center              X                  Y                   Z               Mass
    ------------   -----------------  -----------------  -----------------  -----------------
         O           -2.783066378524    -0.917863480050    -0.748811009008    15.994914619570
         C           -2.768128378524    -0.046250480050     0.382108990992    12.000000000000
         C           -1.342839378524     0.191313519950     0.768074990992    12.000000000000
         C            3.589132621476    -0.231741480050     0.218125990992    12.000000000000
         C           -3.473800378524     1.267562519950     0.060907990992    12.000000000000
         C           -0.278459378524    -0.297082480050     0.108368990992    12.000000000000
         C            2.152476521476    -0.489878980050    -0.108897909008    12.000000000000
         C            1.094036621476    -0.029125480050     0.498078990992    12.000000000000
         C            4.326207621476     0.531931519950    -0.884458009008    12.000000000000
         H           -3.284782378524    -0.529632480050     1.229511990992     1.007825032230
         H           -1.195271378524     0.823595519950     1.644701990992     1.007825032230
         H            3.576679821476     0.342704219950     1.151589290992     1.007825032230
         H            4.116011621476    -1.174603480050     0.414791990992     1.007825032230
         H           -2.979539378524     1.738873519950    -0.791610009008     1.007825032230
         H           -4.525946378524     1.093220519950    -0.190546009008     1.007825032230
         H           -3.441802378524     1.951744519950     0.913583990992     1.007825032230
         H           -0.445238378524    -0.929683480050    -0.760496009008     1.007825032230
         H            2.008107621476    -1.146502480050    -1.028532009008     1.007825032230
         H            1.248905621476     0.604180519950     1.374009990992     1.007825032230
         H            4.316049621476    -0.031567480050    -1.821868009008     1.007825032230
         H            5.369703621476     0.712661519950    -0.610772009008     1.007825032230
         H            3.846044621476     1.496596519950    -1.067468009008     1.007825032230
         H           -3.715812378524    -1.061622480050    -0.983330009008     1.007825032230

  Basis Set: AUG-CC-PVTZ
    Blend: AUG-CC-PVTZ
  Basis Set: (AUG-CC-PVTZ AUX)
    Blend: AUG-CC-PVTZ-JKFIT
	 Reference Energy          =    -386.0598619989525560 [Eh]
	 Singles Energy            =      -0.0000000000000000 [Eh]
	 Same-Spin Energy          =      -0.4000676379650794 [Eh]
	 Opposite-Spin Energy      =      -1.3776179889257740 [Eh]
	 Correlation Energy        =      -1.7776856268908534 [Eh]
	 Total Energy              =    -387.8375476258433991 [Eh]

	 ================> DF-SCS-MP2 Energies <==================
	-----------------------------------------------------------
	 SCS Same-Spin Scale       =       0.3333333333333333 [-]
	 SCS Opposite-Spin Scale   =       1.2000000000000000 [-]
	 SCS Same-Spin Energy      =      -0.1333558793216931 [Eh]
	 SCS Opposite-Spin Energy  =      -1.6531415867109287 [Eh]
	 SCS Correlation Energy    =      -1.7864974660326218 [Eh]
	 SCS Total Energy          =    -387.8463594649851984 [Eh]
	-----------------------------------------------------------

  Dipole Moment: [D]
     X:    -1.1652      Y:     0.6681      Z:     0.5846     Total:     1.4649

*** Psi4 exiting successfully. Buy a developer a beer!
