                               Psi4 1.3.2 release

  ==> Input File <==

--------------------------------------------------------------------------
#psi4
#
memory 32 gb

molecule  {
0 1
  O       -2.7848290    -0.9154220    -0.7447340
  C       -2.7698910    -0.0438090     0.3861860
  C       -1.3446020     0.1937550     0.7721520
  C        3.5873700    -0.2293000     0.2222030
  C       -3.4755630     1.2700040     0.0649850
  C       -0.2802220    -0.2946410     0.1124460
  C        2.1660230    -0.5131760    -0.1475910
  C        1.1003152    -0.0409193     0.4828005
  C        4.3244450     0.5343730    -0.8803810
  H       -3.2865450    -0.5271910     1.2335890
  H       -1.1970340     0.8260370     1.6487790
  H        3.6131550     0.3461180     1.1547940
  H        4.1142490    -1.1721620     0.4188690
  H       -2.9813020     1.7413150    -0.7875330
  H       -4.5277090     1.0956620    -0.1864690
  H       -3.4435650     1.9541860     0.9176610
  H       -0.4282194    -0.9290113    -0.7585286
  H        2.0063450    -1.1440610    -1.0244550
  H        1.2471430     0.6066220     1.3780870
  H        4.3142870    -0.0291260    -1.8177910
  H        5.3679410     0.7151030    -0.6066950
  H        3.8442820     1.4990380    -1.0633910
  H       -3.7175750    -1.0591810    -0.9792530
units angstrom
no_reorient  #important for SAPT in psi4, default
symmetry c1  #important for SAPT in psi4, default
}

set PROPERTIES_ORIGIN ["COM"]
properties('MP2/aug-cc-pvtz', properties = ['dipole'])
--------------------------------------------------------------------------

    Molecular point group: c1
  Charge       = 0
  Multiplicity = 1
  Basis Set: AUG-CC-PVTZ
    Blend: AUG-CC-PVTZ
  Basis Set: (AUG-CC-PVTZ AUX)
    Blend: AUG-CC-PVTZ-JKFIT

    Orbital Energies [Eh]
    ---------------------

    Doubly Occupied:

       1A    -20.558688     2A    -11.286871     3A    -11.224368
       4A    -11.223651     5A    -11.223162     6A    -11.222520
       7A    -11.221378     8A    -11.220848     9A    -11.212946
      10A     -1.360727    11A     -1.099616    12A     -1.061940
      13A     -1.016499    14A     -0.964607    15A     -0.876905
      16A     -0.829597    17A     -0.752164    18A     -0.746246
      19A     -0.695137    20A     -0.637431    21A     -0.628249
      22A     -0.617281    23A     -0.591429    24A     -0.582733
      25A     -0.546577    26A     -0.543471    27A     -0.526116
      28A     -0.519986    29A     -0.500443    30A     -0.491265
      31A     -0.479103    32A     -0.465458    33A     -0.453012
      34A     -0.420044    35A     -0.300813

  @DF-RHF Final Energy:  -386.06235734382966

   => Energetics <=

    Nuclear Repulsion Energy =            418.4468621535847319
    One-Electron Energy =               -1352.8158763111891858
    Two-Electron Energy =                 548.3066568137747936
    Total Energy =                       -386.0623573438296035
  Basis Set: (AUG-CC-PVTZ AUX)
    Blend: AUG-CC-PVTZ-RI
    Molecular point group: c1

    Geometry (in Angstrom), charge = 0, multiplicity = 1:

       Center              X                  Y                   Z               Mass
    ------------   -----------------  -----------------  -----------------  -----------------
         O           -2.785744072596    -0.914053235613    -0.742875355318    15.994914619570
         C           -2.770806072596    -0.042440235613     0.388044644682    12.000000000000
         C           -1.345517072596     0.195123764387     0.774010644682    12.000000000000
         C            3.586454927404    -0.227931235613     0.224061644682    12.000000000000
         C           -3.476478072596     1.271372764387     0.066843644682    12.000000000000
         C           -0.281137072596    -0.293272235613     0.114304644682    12.000000000000
         C            2.165107927404    -0.511807235613    -0.145732355318    12.000000000000
         C            1.099400127404    -0.039550535613     0.484659144682    12.000000000000
         C            4.323529927404     0.535741764387    -0.878522355318    12.000000000000
         H           -3.287460072596    -0.525822235613     1.235447644682     1.007825032230
         H           -1.197949072596     0.827405764387     1.650637644682     1.007825032230
         H            3.612239927404     0.347486764387     1.156652644682     1.007825032230
         H            4.113333927404    -1.170793235613     0.420727644682     1.007825032230
         H           -2.982217072596     1.742683764387    -0.785674355318     1.007825032230
         H           -4.528624072596     1.097030764387    -0.184610355318     1.007825032230
         H           -3.444480072596     1.955554764387     0.919519644682     1.007825032230
         H           -0.429134472596    -0.927642535613    -0.756669955318     1.007825032230
         H            2.005429927404    -1.142692235613    -1.022596355318     1.007825032230
         H            1.246227927404     0.607990764387     1.379945644682     1.007825032230
         H            4.313371927404    -0.027757235613    -1.815932355318     1.007825032230
         H            5.367025927404     0.716471764387    -0.604836355318     1.007825032230
         H            3.843366927404     1.500406764387    -1.061532355318     1.007825032230
         H           -3.718490072596    -1.057812235613    -0.977394355318     1.007825032230

  Basis Set: AUG-CC-PVTZ
    Blend: AUG-CC-PVTZ
  Basis Set: (AUG-CC-PVTZ AUX)
    Blend: AUG-CC-PVTZ-JKFIT
	 Reference Energy          =    -386.0623573438296603 [Eh]
	 Singles Energy            =      -0.0000000000000000 [Eh]
	 Same-Spin Energy          =      -0.4001572404718187 [Eh]
	 Opposite-Spin Energy      =      -1.3778880511223124 [Eh]
	 Correlation Energy        =      -1.7780452915941312 [Eh]
	 Total Energy              =    -387.8404026354237999 [Eh]

	 ================> DF-SCS-MP2 Energies <==================
	-----------------------------------------------------------
	 SCS Same-Spin Scale       =       0.3333333333333333 [-]
	 SCS Opposite-Spin Scale   =       1.2000000000000000 [-]
	 SCS Same-Spin Energy      =      -0.1333857468239396 [Eh]
	 SCS Opposite-Spin Energy  =      -1.6534656613467749 [Eh]
	 SCS Correlation Energy    =      -1.7868514081707145 [Eh]
	 SCS Total Energy          =    -387.8492087520003793 [Eh]
	-----------------------------------------------------------

  Dipole Moment: [D]
     X:    -1.1638      Y:     0.6385      Z:     0.5680     Total:     1.4439

*** Psi4 exiting successfully. Buy a developer a beer!
