                               Psi4 1.3.2 release

  ==> Input File <==

--------------------------------------------------------------------------
#psi4
#
memory 32 gb

molecule  {
0 1
  O       -2.7848290    -0.9154220    -0.7447340
  C       -2.7698910    -0.0438090     0.3861860
  C       -1.3364052     0.1164499     0.7815223
  C        3.5873700    -0.2293000     0.2222030
  C       -3.5419183     1.2282253     0.0498082
  C       -0.2802220    -0.2946410     0.1124460
  C        2.1660230    -0.5131760    -0.1475910
  C        1.0922740    -0.0266840     0.5021560
  C        4.3244450     0.5343730    -0.8803810
  H       -3.2865450    -0.5271910     1.2335890
  H       -1.1970340     0.8260370     1.6487790
  H        3.6131550     0.3461180     1.1547940
  H        4.1142490    -1.1721620     0.4188690
  H       -2.9813020     1.7413150    -0.7875330
  H       -4.5277090     1.0956620    -0.1864690
  H       -3.4435650     1.9541860     0.9176610
  H       -0.4470010    -0.9272420    -0.7564190
  H        2.0063450    -1.1440610    -1.0244550
  H        1.2471430     0.6066220     1.3780870
  H        4.3142870    -0.0291260    -1.8177910
  H        5.3679410     0.7151030    -0.6066950
  H        3.8442820     1.4990380    -1.0633910
  H       -3.7175750    -1.0591810    -0.9792530
units angstrom
no_reorient  #important for SAPT in psi4, default
symmetry c1  #important for SAPT in psi4, default
}

set PROPERTIES_ORIGIN ["COM"]
properties('MP2/aug-cc-pvtz', properties = ['dipole'])
--------------------------------------------------------------------------

    Molecular point group: c1
  Charge       = 0
  Multiplicity = 1
  Basis Set: AUG-CC-PVTZ
    Blend: AUG-CC-PVTZ
  Basis Set: (AUG-CC-PVTZ AUX)
    Blend: AUG-CC-PVTZ-JKFIT

    Orbital Energies [Eh]
    ---------------------

    Doubly Occupied:

       1A    -20.556089     2A    -11.286747     3A    -11.227284
       4A    -11.224151     5A    -11.223896     6A    -11.223189
       7A    -11.222750     8A    -11.219668     9A    -11.213471
      10A     -1.360003    11A     -1.100145    12A     -1.061808
      13A     -1.016332    14A     -0.966828    15A     -0.879353
      16A     -0.831790    17A     -0.753539    18A     -0.741001
      19A     -0.694008    20A     -0.638101    21A     -0.632402
      22A     -0.617247    23A     -0.594209    24A     -0.582524
      25A     -0.553310    26A     -0.535955    27A     -0.524180
      28A     -0.518056    29A     -0.496347    30A     -0.489999
      31A     -0.479955    32A     -0.468702    33A     -0.449675
      34A     -0.420242    35A     -0.302575

  @DF-RHF Final Energy:  -386.05191081190816

   => Energetics <=

    Nuclear Repulsion Energy =            418.3149151653724971
    One-Electron Energy =               -1352.5225916865201725
    Two-Electron Energy =                 548.1557657092396312
    Total Energy =                       -386.0519108119081011
  Basis Set: (AUG-CC-PVTZ AUX)
    Blend: AUG-CC-PVTZ-RI
    Molecular point group: c1

    Geometry (in Angstrom), charge = 0, multiplicity = 1:

       Center              X                  Y                   Z               Mass
    ------------   -----------------  -----------------  -----------------  -----------------
         O           -2.779294459839    -0.904090076462    -0.744181527209    15.994914619570
         C           -2.764356459839    -0.032477076462     0.386738472791    12.000000000000
         C           -1.330870659839     0.127781823538     0.782074772791    12.000000000000
         C            3.592904540161    -0.217968076462     0.222755472791    12.000000000000
         C           -3.536383759839     1.239557223538     0.050360672791    12.000000000000
         C           -0.274687459839    -0.283309076462     0.112998472791    12.000000000000
         C            2.171557540161    -0.501844076462    -0.147038527209    12.000000000000
         C            1.097808540161    -0.015352076462     0.502708472791    12.000000000000
         C            4.329979540161     0.545704923538    -0.879828527209    12.000000000000
         H           -3.281010459839    -0.515859076462     1.234141472791     1.007825032230
         H           -1.191499459839     0.837368923538     1.649331472791     1.007825032230
         H            3.618689540161     0.357449923538     1.155346472791     1.007825032230
         H            4.119783540161    -1.160830076462     0.419421472791     1.007825032230
         H           -2.975767459839     1.752646923538    -0.786980527209     1.007825032230
         H           -4.522174459839     1.106993923538    -0.185916527209     1.007825032230
         H           -3.438030459839     1.965517923538     0.918213472791     1.007825032230
         H           -0.441466459839    -0.915910076462    -0.755866527209     1.007825032230
         H            2.011879540161    -1.132729076462    -1.023902527209     1.007825032230
         H            1.252677540161     0.617953923538     1.378639472791     1.007825032230
         H            4.319821540161    -0.017794076462    -1.817238527209     1.007825032230
         H            5.373475540161     0.726434923538    -0.606142527209     1.007825032230
         H            3.849816540161     1.510369923538    -1.062838527209     1.007825032230
         H           -3.712040459839    -1.047849076462    -0.978700527209     1.007825032230

  Basis Set: AUG-CC-PVTZ
    Blend: AUG-CC-PVTZ
  Basis Set: (AUG-CC-PVTZ AUX)
    Blend: AUG-CC-PVTZ-JKFIT
	 Reference Energy          =    -386.0519108119081579 [Eh]
	 Singles Energy            =      -0.0000000000000000 [Eh]
	 Same-Spin Energy          =      -0.4002281833451400 [Eh]
	 Opposite-Spin Energy      =      -1.3781642598741237 [Eh]
	 Correlation Energy        =      -1.7783924432192637 [Eh]
	 Total Energy              =    -387.8303032551274327 [Eh]

	 ================> DF-SCS-MP2 Energies <==================
	-----------------------------------------------------------
	 SCS Same-Spin Scale       =       0.3333333333333333 [-]
	 SCS Opposite-Spin Scale   =       1.2000000000000000 [-]
	 SCS Same-Spin Energy      =      -0.1334093944483800 [Eh]
	 SCS Opposite-Spin Energy  =      -1.6537971118489485 [Eh]
	 SCS Correlation Energy    =      -1.7872065062973286 [Eh]
	 SCS Total Energy          =    -387.8391173182054672 [Eh]
	-----------------------------------------------------------

  Dipole Moment: [D]
     X:    -1.1171      Y:     0.6691      Z:     0.4944     Total:     1.3929

*** Psi4 exiting successfully. Buy a developer a beer!
