                               Psi4 1.4a3.dev225

  ==> Input File <==

--------------------------------------------------------------------------
#psi4
#
memory 32 gb

molecule  {
0 1
  O       -2.7624640     1.3159430     0.2248240
  C       -2.8209640    -0.0168770    -0.2887760
  C       -1.4198970    -0.4865040    -0.5315690
  C        3.5469730    -0.0618850    -0.4287090
  C       -3.5485140    -0.9406360     0.6857820
  C       -0.3288781     0.2168390    -0.2618231
  C        2.1505970     0.4383770    -0.2221580
  C        1.0342680    -0.2689350    -0.4861660
  C        4.3265940    -0.1505530     0.8872490
  H       -3.3622360    -0.0200820    -1.2509840
  H       -1.3293920    -1.4912640    -0.9473420
  H        3.5136740    -1.0471260    -0.9088000
  H        4.0812660     0.6062640    -1.1173180
  H       -3.0279280    -0.9272120     1.6463760
  H       -4.5820380    -0.6089360     0.8383050
  H       -3.5770120    -1.9680220     0.3103630
  H       -0.4219900     1.2292040     0.1523950
  H        2.0485920     1.4434520     0.1930580
  H        1.1311650    -1.2755230    -0.8987060
  H        4.3778580     0.8269450     1.3761990
  H        5.3504770    -0.4972710     0.7173650
  H        3.8373540    -0.8453320     1.5752720
  H       -3.6799020     1.6047450     0.3678300
units angstrom
no_reorient  #important for SAPT in psi4, default
symmetry c1  #important for SAPT in psi4, default
}

set PROPERTIES_ORIGIN ["COM"]
properties('MP2/aug-cc-pvtz', properties = ['dipole'])
--------------------------------------------------------------------------

    Molecular point group: c1
  Charge       = 0
  Multiplicity = 1
  Basis Set: AUG-CC-PVTZ
    Blend: AUG-CC-PVTZ
  Basis Set: (AUG-CC-PVTZ AUX)
    Blend: AUG-CC-PVTZ-JKFIT

    Orbital Energies [Eh]
    ---------------------

    Doubly Occupied:

       1A    -20.558760     2A    -11.286949     3A    -11.226716
       4A    -11.224395     5A    -11.223755     6A    -11.222342
       7A    -11.221002     8A    -11.220198     9A    -11.213217
      10A     -1.360141    11A     -1.097227    12A     -1.062147
      13A     -1.014980    14A     -0.963845    15A     -0.875579
      16A     -0.829211    17A     -0.752372    18A     -0.746353
      19A     -0.694562    20A     -0.636839    21A     -0.627599
      22A     -0.616664    23A     -0.590410    24A     -0.582915
      25A     -0.546397    26A     -0.543564    27A     -0.527413
      28A     -0.518703    29A     -0.499384    30A     -0.492609
      31A     -0.479292    32A     -0.465375    33A     -0.453152
      34A     -0.418130    35A     -0.300982

  @DF-RHF Final Energy:  -386.06280377688148

   => Energetics <=

    Nuclear Repulsion Energy =            417.8734248374094022
    One-Electron Energy =               -1351.6860975989052349
    Two-Electron Energy =                 547.7498689846144089
    Total Energy =                       -386.0628037768814238
  Basis Set: (AUG-CC-PVTZ AUX)
    Blend: AUG-CC-PVTZ-RI
    Molecular point group: c1

    Geometry (in Angstrom), charge = 0, multiplicity = 1:

       Center              X                  Y                   Z               Mass
    ------------   -----------------  -----------------  -----------------  -----------------
         O           -2.726706148341     1.293636824358     0.241381025134    15.994914619570
         C           -2.785206148341    -0.039183175642    -0.272218974866    12.000000000000
         C           -1.384139148341    -0.508810175642    -0.515011974866    12.000000000000
         C            3.582730851659    -0.084191175642    -0.412151974866    12.000000000000
         C           -3.512756148341    -0.962942175642     0.702339025134    12.000000000000
         C           -0.293120248341     0.194532824358    -0.245266074866    12.000000000000
         C            2.186354851659     0.416070824358    -0.205600974866    12.000000000000
         C            1.070025851659    -0.291241175642    -0.469608974866    12.000000000000
         C            4.362351851659    -0.172859175642     0.903806025134    12.000000000000
         H           -3.326478148341    -0.042388175642    -1.234426974866     1.007825032230
         H           -1.293634148341    -1.513570175642    -0.930784974866     1.007825032230
         H            3.549431851659    -1.069432175642    -0.892242974866     1.007825032230
         H            4.117023851659     0.583957824358    -1.100760974866     1.007825032230
         H           -2.992170148341    -0.949518175642     1.662933025134     1.007825032230
         H           -4.546280148341    -0.631242175642     0.854862025134     1.007825032230
         H           -3.541254148341    -1.990328175642     0.326920025134     1.007825032230
         H           -0.386232148341     1.206897824358     0.168952025134     1.007825032230
         H            2.084349851659     1.421145824358     0.209615025134     1.007825032230
         H            1.166922851659    -1.297829175642    -0.882148974866     1.007825032230
         H            4.413615851659     0.804638824358     1.392756025134     1.007825032230
         H            5.386234851659    -0.519577175642     0.733922025134     1.007825032230
         H            3.873111851659    -0.867638175642     1.591829025134     1.007825032230
         H           -3.644144148341     1.582438824358     0.384387025134     1.007825032230

  Basis Set: AUG-CC-PVTZ
    Blend: AUG-CC-PVTZ
  Basis Set: (AUG-CC-PVTZ AUX)
    Blend: AUG-CC-PVTZ-JKFIT
	 Reference Energy          =    -386.0628037768814806 [Eh]
	 Singles Energy            =      -0.0000000000000000 [Eh]
	 Same-Spin Energy          =      -0.3999415827692558 [Eh]
	 Opposite-Spin Energy      =      -1.3778201411202540 [Eh]
	 Correlation Energy        =      -1.7777617238895098 [Eh]
	 Total Energy              =    -387.8405655007709925 [Eh]

	 ================> DF-SCS-MP2 Energies <==================
	-----------------------------------------------------------
	 SCS Same-Spin Scale       =       0.3333333333333333 [-]
	 SCS Opposite-Spin Scale   =       1.2000000000000000 [-]
	 SCS Same-Spin Energy      =      -0.1333138609230853 [Eh]
	 SCS Opposite-Spin Energy  =      -1.6533841693443048 [Eh]
	 SCS Correlation Energy    =      -1.7866980302673900 [Eh]
	 SCS Total Energy          =    -387.8495018071488971 [Eh]
	-----------------------------------------------------------

  Dipole Moment: [D]
     X:    -1.2031      Y:    -0.7956      Z:    -0.1435     Total:     1.4494

*** Psi4 exiting successfully. Buy a developer a beer!
