                               Psi4 1.3.2 release

  ==> Input File <==

--------------------------------------------------------------------------
#psi4
#
memory 32 gb

molecule  {
0 1
  O       -2.7724018    -0.9324783    -0.7314781
  C       -2.7698910    -0.0438090     0.3861860
  C       -1.3446020     0.1937550     0.7721520
  C        3.5873700    -0.2293000     0.2222030
  C       -3.4704946     1.2784999     0.0897041
  C       -0.2802220    -0.2946410     0.1124460
  C        2.1660230    -0.5131760    -0.1475910
  C        1.0922740    -0.0266840     0.5021560
  C        4.3244450     0.5343730    -0.8803810
  H       -3.2865450    -0.5271910     1.2335890
  H       -1.1970340     0.8260370     1.6487790
  H        3.6131550     0.3461180     1.1547940
  H        4.1142490    -1.1721620     0.4188690
  H       -2.9813020     1.7413150    -0.7875330
  H       -4.5277090     1.0956620    -0.1864690
  H       -3.4435650     1.9541860     0.9176610
  H       -0.4470010    -0.9272420    -0.7564190
  H        2.0063450    -1.1440610    -1.0244550
  H        1.2471430     0.6066220     1.3780870
  H        4.3142870    -0.0291260    -1.8177910
  H        5.3679410     0.7151030    -0.6066950
  H        3.8442820     1.4990380    -1.0633910
  H       -3.7175750    -1.0591810    -0.9792530
units angstrom
no_reorient  #important for SAPT in psi4, default
symmetry c1  #important for SAPT in psi4, default
}

set PROPERTIES_ORIGIN ["COM"]
properties('MP2/aug-cc-pvtz', properties = ['dipole'])
--------------------------------------------------------------------------

    Molecular point group: c1
  Charge       = 0
  Multiplicity = 1
  Basis Set: AUG-CC-PVTZ
    Blend: AUG-CC-PVTZ
  Basis Set: (AUG-CC-PVTZ AUX)
    Blend: AUG-CC-PVTZ-JKFIT

    Orbital Energies [Eh]
    ---------------------

    Doubly Occupied:

       1A    -20.561421     2A    -11.286435     3A    -11.225564
       4A    -11.223226     5A    -11.222969     6A    -11.222621
       7A    -11.221814     8A    -11.221221     9A    -11.212703
      10A     -1.359104    11A     -1.097449    12A     -1.061148
      13A     -1.016395    14A     -0.962419    15A     -0.876244
      16A     -0.828226    17A     -0.752201    18A     -0.746925
      19A     -0.693304    20A     -0.637437    21A     -0.626643
      22A     -0.620265    23A     -0.590044    24A     -0.582319
      25A     -0.545648    26A     -0.541528    27A     -0.529834
      28A     -0.518585    29A     -0.500446    30A     -0.492796
      31A     -0.478869    32A     -0.467359    33A     -0.452809
      34A     -0.417917    35A     -0.297017

  @DF-RHF Final Energy:  -386.06039479229992

   => Energetics <=

    Nuclear Repulsion Energy =            418.2448687439244850
    One-Electron Energy =               -1352.4287177182438882
    Two-Electron Energy =                 548.1234541820194863
    Total Energy =                       -386.0603947922999168
  Basis Set: (AUG-CC-PVTZ AUX)
    Blend: AUG-CC-PVTZ-RI
    Molecular point group: c1

    Geometry (in Angstrom), charge = 0, multiplicity = 1:

       Center              X                  Y                   Z               Mass
    ------------   -----------------  -----------------  -----------------  -----------------
         O           -2.774460129786    -0.931123361314    -0.735511778765    15.994914619570
         C           -2.771949329786    -0.042454061314     0.382152321235    12.000000000000
         C           -1.346660329786     0.195109938686     0.768118321235    12.000000000000
         C            3.585311670214    -0.227945061314     0.218169321235    12.000000000000
         C           -3.472552929786     1.279854838686     0.085670421235    12.000000000000
         C           -0.282280329786    -0.293286061314     0.108412321235    12.000000000000
         C            2.163964670214    -0.511821061314    -0.151624678765    12.000000000000
         C            1.090215670214    -0.025329061314     0.498122321235    12.000000000000
         C            4.322386670214     0.535727938686    -0.884414678765    12.000000000000
         H           -3.288603329786    -0.525836061314     1.229555321235     1.007825032230
         H           -1.199092329786     0.827391938686     1.644745321235     1.007825032230
         H            3.611096670214     0.347472938686     1.150760321235     1.007825032230
         H            4.112190670214    -1.170807061314     0.414835321235     1.007825032230
         H           -2.983360329786     1.742669938686    -0.791566678765     1.007825032230
         H           -4.529767329786     1.097016938686    -0.190502678765     1.007825032230
         H           -3.445623329786     1.955540938686     0.913627321235     1.007825032230
         H           -0.449059329786    -0.925887061314    -0.760452678765     1.007825032230
         H            2.004286670214    -1.142706061314    -1.028488678765     1.007825032230
         H            1.245084670214     0.607976938686     1.374053321235     1.007825032230
         H            4.312228670214    -0.027771061314    -1.821824678765     1.007825032230
         H            5.365882670214     0.716457938686    -0.610728678765     1.007825032230
         H            3.842223670214     1.500392938686    -1.067424678765     1.007825032230
         H           -3.719633329786    -1.057826061314    -0.983286678765     1.007825032230

  Basis Set: AUG-CC-PVTZ
    Blend: AUG-CC-PVTZ
  Basis Set: (AUG-CC-PVTZ AUX)
    Blend: AUG-CC-PVTZ-JKFIT
	 Reference Energy          =    -386.0603947922999168 [Eh]
	 Singles Energy            =      -0.0000000000000000 [Eh]
	 Same-Spin Energy          =      -0.4006098516001659 [Eh]
	 Opposite-Spin Energy      =      -1.3789050468987574 [Eh]
	 Correlation Energy        =      -1.7795148984989233 [Eh]
	 Total Energy              =    -387.8399096907988337 [Eh]

	 ================> DF-SCS-MP2 Energies <==================
	-----------------------------------------------------------
	 SCS Same-Spin Scale       =       0.3333333333333333 [-]
	 SCS Opposite-Spin Scale   =       1.2000000000000000 [-]
	 SCS Same-Spin Energy      =      -0.1335366172000553 [Eh]
	 SCS Opposite-Spin Energy  =      -1.6546860562785088 [Eh]
	 SCS Correlation Energy    =      -1.7882226734785642 [Eh]
	 SCS Total Energy          =    -387.8486174657784886 [Eh]
	-----------------------------------------------------------

  Dipole Moment: [D]
     X:    -1.1986      Y:     0.6850      Z:     0.5529     Total:     1.4871

*** Psi4 exiting successfully. Buy a developer a beer!
