                               Psi4 1.3.2 release

  ==> Input File <==

--------------------------------------------------------------------------
#psi4
#
memory 32 gb

molecule  {
0 1
  O       -2.7848290    -0.9154220    -0.7447340
  C       -2.7698910    -0.0438090     0.3861860
  C       -1.3446020     0.1937550     0.7721520
  C        3.5610245    -0.1849417     0.2811204
  C       -3.4755630     1.2700040     0.0649850
  C       -0.2802220    -0.2946410     0.1124460
  C        2.1660230    -0.5131760    -0.1475910
  C        1.1362258     0.0065870     0.5460564
  C        4.3244450     0.5343730    -0.8803810
  H       -3.2865450    -0.5271910     1.2335890
  H       -1.1970340     0.8260370     1.6487790
  H        3.6131550     0.3461180     1.1547940
  H        4.1142490    -1.1721620     0.4188690
  H       -2.9813020     1.7413150    -0.7875330
  H       -4.5277090     1.0956620    -0.1864690
  H       -3.4435650     1.9541860     0.9176610
  H       -0.4470010    -0.9272420    -0.7564190
  H        2.0063450    -1.1440610    -1.0244550
  H        1.2471430     0.6066220     1.3780870
  H        4.3142870    -0.0291260    -1.8177910
  H        5.3679410     0.7151030    -0.6066950
  H        3.8442820     1.4990380    -1.0633910
  H       -3.7175750    -1.0591810    -0.9792530
units angstrom
no_reorient  #important for SAPT in psi4, default
symmetry c1  #important for SAPT in psi4, default
}

set PROPERTIES_ORIGIN ["COM"]
properties('MP2/aug-cc-pvtz', properties = ['dipole'])
--------------------------------------------------------------------------

    Molecular point group: c1
  Charge       = 0
  Multiplicity = 1
  Basis Set: AUG-CC-PVTZ
    Blend: AUG-CC-PVTZ
  Basis Set: (AUG-CC-PVTZ AUX)
    Blend: AUG-CC-PVTZ-JKFIT

    Orbital Energies [Eh]
    ---------------------

    Doubly Occupied:

       1A    -20.558003     2A    -11.285120     3A    -11.226982
       4A    -11.225014     5A    -11.221317     6A    -11.221194
       7A    -11.219709     8A    -11.219676     9A    -11.213669
      10A     -1.359957    11A     -1.094416    12A     -1.059471
      13A     -1.009719    14A     -0.960256    15A     -0.872554
      16A     -0.828863    17A     -0.764640    18A     -0.745070
      19A     -0.693984    20A     -0.640251    21A     -0.620403
      22A     -0.616681    23A     -0.595961    24A     -0.575043
      25A     -0.547198    26A     -0.543925    27A     -0.533643
      28A     -0.510579    29A     -0.504648    30A     -0.496346
      31A     -0.488774    32A     -0.456334    33A     -0.451068
      34A     -0.409187    35A     -0.299125

  @DF-RHF Final Energy:  -386.05069822842745

   => Energetics <=

    Nuclear Repulsion Energy =            417.7209081675043194
    One-Electron Energy =               -1351.4056503785877794
    Two-Electron Energy =                 547.6340439826559532
    Total Energy =                       -386.0506982284274500
  Basis Set: (AUG-CC-PVTZ AUX)
    Blend: AUG-CC-PVTZ-RI
    Molecular point group: c1

    Geometry (in Angstrom), charge = 0, multiplicity = 1:

       Center              X                  Y                   Z               Mass
    ------------   -----------------  -----------------  -----------------  -----------------
         O           -2.786504177588    -0.922809137668    -0.754518128687    15.994914619570
         C           -2.771566177588    -0.051196137668     0.376401871313    12.000000000000
         C           -1.346277177588     0.186367862332     0.762367871313    12.000000000000
         C            3.559349322412    -0.192328837668     0.271336271313    12.000000000000
         C           -3.477238177588     1.262616862332     0.055200871313    12.000000000000
         C           -0.281897177588    -0.302028137668     0.102661871313    12.000000000000
         C            2.164347822412    -0.520563137668    -0.157375128687    12.000000000000
         C            1.134550622412    -0.000800137668     0.536272271313    12.000000000000
         C            4.322769822412     0.526985862332    -0.890165128687    12.000000000000
         H           -3.288220177588    -0.534578137668     1.223804871313     1.007825032230
         H           -1.198709177588     0.818649862332     1.638994871313     1.007825032230
         H            3.611479822412     0.338730862332     1.145009871313     1.007825032230
         H            4.112573822412    -1.179549137668     0.409084871313     1.007825032230
         H           -2.982977177588     1.733927862332    -0.797317128687     1.007825032230
         H           -4.529384177588     1.088274862332    -0.196253128687     1.007825032230
         H           -3.445240177588     1.946798862332     0.907876871313     1.007825032230
         H           -0.448676177588    -0.934629137668    -0.766203128687     1.007825032230
         H            2.004669822412    -1.151448137668    -1.034239128687     1.007825032230
         H            1.245467822412     0.599234862332     1.368302871313     1.007825032230
         H            4.312611822412    -0.036513137668    -1.827575128687     1.007825032230
         H            5.366265822412     0.707715862332    -0.616479128687     1.007825032230
         H            3.842606822412     1.491650862332    -1.073175128687     1.007825032230
         H           -3.719250177588    -1.066568137668    -0.989037128687     1.007825032230

  Basis Set: AUG-CC-PVTZ
    Blend: AUG-CC-PVTZ
  Basis Set: (AUG-CC-PVTZ AUX)
    Blend: AUG-CC-PVTZ-JKFIT
	 Reference Energy          =    -386.0506982284274500 [Eh]
	 Singles Energy            =      -0.0000000000000000 [Eh]
	 Same-Spin Energy          =      -0.3996624910732877 [Eh]
	 Opposite-Spin Energy      =      -1.3779660013728514 [Eh]
	 Correlation Energy        =      -1.7776284924461392 [Eh]
	 Total Energy              =    -387.8283267208735765 [Eh]

	 ================> DF-SCS-MP2 Energies <==================
	-----------------------------------------------------------
	 SCS Same-Spin Scale       =       0.3333333333333333 [-]
	 SCS Opposite-Spin Scale   =       1.2000000000000000 [-]
	 SCS Same-Spin Energy      =      -0.1332208303577626 [Eh]
	 SCS Opposite-Spin Energy  =      -1.6535592016474217 [Eh]
	 SCS Correlation Energy    =      -1.7867800320051841 [Eh]
	 SCS Total Energy          =    -387.8374782604326469 [Eh]
	-----------------------------------------------------------

  Dipole Moment: [D]
     X:    -1.1008      Y:     0.6532      Z:     0.6017     Total:     1.4144

*** Psi4 exiting successfully. Buy a developer a beer!
