                               Psi4 1.3.2 release

  ==> Input File <==

--------------------------------------------------------------------------
#psi4
#
memory 32 gb

molecule  {
0 1
  O       -2.7848290    -0.9154220    -0.7447340
  C       -2.7698910    -0.0438090     0.3861860
  C       -1.3301160     0.2044756     0.7871702
  C        3.5873700    -0.2293000     0.2222030
  C       -3.4755630     1.2700040     0.0649850
  C       -0.2802220    -0.2946410     0.1124460
  C        2.1660230    -0.5131760    -0.1475910
  C        1.0838137    -0.0126247     0.5214614
  C        4.3244450     0.5343730    -0.8803810
  H       -3.2865450    -0.5271910     1.2335890
  H       -1.1970340     0.8260370     1.6487790
  H        3.6131550     0.3461180     1.1547940
  H        4.1142490    -1.1721620     0.4188690
  H       -2.9813020     1.7413150    -0.7875330
  H       -4.5277090     1.0956620    -0.1864690
  H       -3.4435650     1.9541860     0.9176610
  H       -0.4470010    -0.9272420    -0.7564190
  H        2.0063450    -1.1440610    -1.0244550
  H        1.2471430     0.6066220     1.3780870
  H        4.3142870    -0.0291260    -1.8177910
  H        5.3679410     0.7151030    -0.6066950
  H        3.8442820     1.4990380    -1.0633910
  H       -3.7175750    -1.0591810    -0.9792530
units angstrom
no_reorient  #important for SAPT in psi4, default
symmetry c1  #important for SAPT in psi4, default
}

set PROPERTIES_ORIGIN ["COM"]
properties('MP2/aug-cc-pvtz', properties = ['dipole'])
--------------------------------------------------------------------------

    Molecular point group: c1
  Charge       = 0
  Multiplicity = 1
  Basis Set: AUG-CC-PVTZ
    Blend: AUG-CC-PVTZ
  Basis Set: (AUG-CC-PVTZ AUX)
    Blend: AUG-CC-PVTZ-JKFIT

    Orbital Energies [Eh]
    ---------------------

    Doubly Occupied:

       1A    -20.558802     2A    -11.286651     3A    -11.228386
       4A    -11.224098     5A    -11.223118     6A    -11.222898
       7A    -11.220972     8A    -11.220002     9A    -11.212675
      10A     -1.360196    11A     -1.096198    12A     -1.059482
      13A     -1.015104    14A     -0.959972    15A     -0.875025
      16A     -0.826560    17A     -0.754609    18A     -0.751625
      19A     -0.694247    20A     -0.637047    21A     -0.626162
      22A     -0.616739    23A     -0.590791    24A     -0.582510
      25A     -0.548155    26A     -0.543837    27A     -0.527981
      28A     -0.518248    29A     -0.504430    30A     -0.492237
      31A     -0.479248    32A     -0.465533    33A     -0.451980
      34A     -0.417039    35A     -0.294214

  @DF-RHF Final Energy:  -386.06051167408327

   => Energetics <=

    Nuclear Repulsion Energy =            417.8797637062801300
    One-Electron Energy =               -1351.7070146771775399
    Two-Electron Energy =                 547.7667392968141939
    Total Energy =                       -386.0605116740832727
  Basis Set: (AUG-CC-PVTZ AUX)
    Blend: AUG-CC-PVTZ-RI
    Molecular point group: c1

    Geometry (in Angstrom), charge = 0, multiplicity = 1:

       Center              X                  Y                   Z               Mass
    ------------   -----------------  -----------------  -----------------  -----------------
         O           -2.785402176957    -0.917780031048    -0.748000275417    15.994914619570
         C           -2.770464176957    -0.046167031048     0.382919724583    12.000000000000
         C           -1.330689176957     0.202117568952     0.783903924583    12.000000000000
         C            3.586796823043    -0.231658031048     0.218936724583    12.000000000000
         C           -3.476136176957     1.267645968952     0.061718724583    12.000000000000
         C           -0.280795176957    -0.296999031048     0.109179724583    12.000000000000
         C            2.165449823043    -0.515534031048    -0.150857275417    12.000000000000
         C            1.083240523043    -0.014982731048     0.518195124583    12.000000000000
         C            4.323871823043     0.532014968952    -0.883647275417    12.000000000000
         H           -3.287118176957    -0.529549031048     1.230322724583     1.007825032230
         H           -1.197607176957     0.823678968952     1.645512724583     1.007825032230
         H            3.612581823043     0.343759968952     1.151527724583     1.007825032230
         H            4.113675823043    -1.174520031048     0.415602724583     1.007825032230
         H           -2.981875176957     1.738956968952    -0.790799275417     1.007825032230
         H           -4.528282176957     1.093303968952    -0.189735275417     1.007825032230
         H           -3.444138176957     1.951827968952     0.914394724583     1.007825032230
         H           -0.447574176957    -0.929600031048    -0.759685275417     1.007825032230
         H            2.005771823043    -1.146419031048    -1.027721275417     1.007825032230
         H            1.246569823043     0.604263968952     1.374820724583     1.007825032230
         H            4.313713823043    -0.031484031048    -1.821057275417     1.007825032230
         H            5.367367823043     0.712744968952    -0.609961275417     1.007825032230
         H            3.843708823043     1.496679968952    -1.066657275417     1.007825032230
         H           -3.718148176957    -1.061539031048    -0.982519275417     1.007825032230

  Basis Set: AUG-CC-PVTZ
    Blend: AUG-CC-PVTZ
  Basis Set: (AUG-CC-PVTZ AUX)
    Blend: AUG-CC-PVTZ-JKFIT
	 Reference Energy          =    -386.0605116740832727 [Eh]
	 Singles Energy            =      -0.0000000000000000 [Eh]
	 Same-Spin Energy          =      -0.4003919694340248 [Eh]
	 Opposite-Spin Energy      =      -1.3786602837662931 [Eh]
	 Correlation Energy        =      -1.7790522532003179 [Eh]
	 Total Energy              =    -387.8395639272835638 [Eh]

	 ================> DF-SCS-MP2 Energies <==================
	-----------------------------------------------------------
	 SCS Same-Spin Scale       =       0.3333333333333333 [-]
	 SCS Opposite-Spin Scale   =       1.2000000000000000 [-]
	 SCS Same-Spin Energy      =      -0.1334639898113416 [Eh]
	 SCS Opposite-Spin Energy  =      -1.6543923405195518 [Eh]
	 SCS Correlation Energy    =      -1.7878563303308934 [Eh]
	 SCS Total Energy          =    -387.8483680044141693 [Eh]
	-----------------------------------------------------------

  Dipole Moment: [D]
     X:    -1.1471      Y:     0.6452      Z:     0.5935     Total:     1.4437

*** Psi4 exiting successfully. Buy a developer a beer!
