                               Psi4 1.4a3.dev225

  ==> Input File <==

--------------------------------------------------------------------------
#psi4
#
memory 32 gb

molecule  {
0 1
  O       -2.7624640     1.3159430     0.2248240
  C       -2.8209640    -0.0168770    -0.2887760
  C       -1.4198970    -0.4865040    -0.5315690
  C        3.5469730    -0.0618850    -0.4287090
  C       -3.5485140    -0.9406360     0.6857820
  C       -0.2712747     0.2539740    -0.2475811
  C        2.1505970     0.4383770    -0.2221580
  C        1.0342680    -0.2689350    -0.4861660
  C        4.3265940    -0.1505530     0.8872490
  H       -3.3622360    -0.0200820    -1.2509840
  H       -1.3293920    -1.4912640    -0.9473420
  H        3.5136740    -1.0471260    -0.9088000
  H        4.0812660     0.6062640    -1.1173180
  H       -3.0279280    -0.9272120     1.6463760
  H       -4.5820380    -0.6089360     0.8383050
  H       -3.5770120    -1.9680220     0.3103630
  H       -0.4219900     1.2292040     0.1523950
  H        2.0485920     1.4434520     0.1930580
  H        1.1311650    -1.2755230    -0.8987060
  H        4.3778580     0.8269450     1.3761990
  H        5.3504770    -0.4972710     0.7173650
  H        3.8373540    -0.8453320     1.5752720
  H       -3.6799020     1.6047450     0.3678300
units angstrom
no_reorient  #important for SAPT in psi4, default
symmetry c1  #important for SAPT in psi4, default
}

set PROPERTIES_ORIGIN ["COM"]
properties('MP2/aug-cc-pvtz', properties = ['dipole'])
--------------------------------------------------------------------------

    Molecular point group: c1
  Charge       = 0
  Multiplicity = 1
  Basis Set: AUG-CC-PVTZ
    Blend: AUG-CC-PVTZ
  Basis Set: (AUG-CC-PVTZ AUX)
    Blend: AUG-CC-PVTZ-JKFIT

    Orbital Energies [Eh]
    ---------------------

    Doubly Occupied:

       1A    -20.558938     2A    -11.287242     3A    -11.229616
       4A    -11.226753     5A    -11.226153     6A    -11.223575
       7A    -11.222548     8A    -11.220854     9A    -11.213300
      10A     -1.360119    11A     -1.097873    12A     -1.057130
      13A     -1.017506    14A     -0.957558    15A     -0.878414
      16A     -0.826598    17A     -0.752965    18A     -0.751187
      19A     -0.695556    20A     -0.637843    21A     -0.625738
      22A     -0.616607    23A     -0.589438    24A     -0.582824
      25A     -0.546456    26A     -0.542709    27A     -0.527033
      28A     -0.517874    29A     -0.505503    30A     -0.492207
      31A     -0.479363    32A     -0.471089    33A     -0.452165
      34A     -0.418059    35A     -0.288144

  @DF-RHF Final Energy:  -386.05602579978563

   => Energetics <=

    Nuclear Repulsion Energy =            417.4717057998850578
    One-Electron Energy =               -1350.8615865278115962
    Two-Electron Energy =                 547.3338549281409087
    Total Energy =                       -386.0560257997856297
  Basis Set: (AUG-CC-PVTZ AUX)
    Blend: AUG-CC-PVTZ-RI
    Molecular point group: c1

    Geometry (in Angstrom), charge = 0, multiplicity = 1:

       Center              X                  Y                   Z               Mass
    ------------   -----------------  -----------------  -----------------  -----------------
         O           -2.732187641797     1.290103087469     0.240025767809    15.994914619570
         C           -2.790687641797    -0.042716912531    -0.273574232191    12.000000000000
         C           -1.389620641797    -0.512343912531    -0.516367232191    12.000000000000
         C            3.577249358203    -0.087724912531    -0.413507232191    12.000000000000
         C           -3.518237641797    -0.966475912531     0.700983767809    12.000000000000
         C           -0.240998341797     0.228134087469    -0.232379332191    12.000000000000
         C            2.180873358203     0.412537087469    -0.206956232191    12.000000000000
         C            1.064544358203    -0.294774912531    -0.470964232191    12.000000000000
         C            4.356870358203    -0.176392912531     0.902450767809    12.000000000000
         H           -3.331959641797    -0.045921912531    -1.235782232191     1.007825032230
         H           -1.299115641797    -1.517103912531    -0.932140232191     1.007825032230
         H            3.543950358203    -1.072965912531    -0.893598232191     1.007825032230
         H            4.111542358203     0.580424087469    -1.102116232191     1.007825032230
         H           -2.997651641797    -0.953051912531     1.661577767809     1.007825032230
         H           -4.551761641797    -0.634775912531     0.853506767809     1.007825032230
         H           -3.546735641797    -1.993861912531     0.325564767809     1.007825032230
         H           -0.391713641797     1.203364087469     0.167596767809     1.007825032230
         H            2.078868358203     1.417612087469     0.208259767809     1.007825032230
         H            1.161441358203    -1.301362912531    -0.883504232191     1.007825032230
         H            4.408134358203     0.801105087469     1.391400767809     1.007825032230
         H            5.380753358203    -0.523110912531     0.732566767809     1.007825032230
         H            3.867630358203    -0.871171912531     1.590473767809     1.007825032230
         H           -3.649625641797     1.578905087469     0.383031767809     1.007825032230

  Basis Set: AUG-CC-PVTZ
    Blend: AUG-CC-PVTZ
  Basis Set: (AUG-CC-PVTZ AUX)
    Blend: AUG-CC-PVTZ-JKFIT
	 Reference Energy          =    -386.0560257997856297 [Eh]
	 Singles Energy            =      -0.0000000000000000 [Eh]
	 Same-Spin Energy          =      -0.4012639186740422 [Eh]
	 Opposite-Spin Energy      =      -1.3801697261523462 [Eh]
	 Correlation Energy        =      -1.7814336448263886 [Eh]
	 Total Energy              =    -387.8374594446120227 [Eh]

	 ================> DF-SCS-MP2 Energies <==================
	-----------------------------------------------------------
	 SCS Same-Spin Scale       =       0.3333333333333333 [-]
	 SCS Opposite-Spin Scale   =       1.2000000000000000 [-]
	 SCS Same-Spin Energy      =      -0.1337546395580141 [Eh]
	 SCS Opposite-Spin Energy  =      -1.6562036713828154 [Eh]
	 SCS Correlation Energy    =      -1.7899583109408295 [Eh]
	 SCS Total Energy          =    -387.8459841107264765 [Eh]
	-----------------------------------------------------------

  Dipole Moment: [D]
     X:    -1.1853      Y:    -0.7927      Z:    -0.1440     Total:     1.4332

*** Psi4 exiting successfully. Buy a developer a beer!
