                               Psi4 1.3.2 release

  ==> Input File <==

--------------------------------------------------------------------------
#psi4
#
memory 32 gb

molecule  {
0 1
  O       -2.7848290    -0.9154220    -0.7447340
  C       -2.7698910    -0.0438090     0.3861860
  C       -1.3446020     0.1937550     0.7721520
  C        3.5873700    -0.2293000     0.2222030
  C       -3.4581009     1.2743138     0.0453533
  C       -0.2802220    -0.2946410     0.1124460
  C        2.1660230    -0.5131760    -0.1475910
  C        1.0922740    -0.0266840     0.5021560
  C        4.3244450     0.5343730    -0.8803810
  H       -3.2739828    -0.5417732     1.2327109
  H       -1.1970340     0.8260370     1.6487790
  H        3.6131550     0.3461180     1.1547940
  H        4.1142490    -1.1721620     0.4188690
  H       -2.9813020     1.7413150    -0.7875330
  H       -4.5277090     1.0956620    -0.1864690
  H       -3.4435650     1.9541860     0.9176610
  H       -0.4470010    -0.9272420    -0.7564190
  H        2.0063450    -1.1440610    -1.0244550
  H        1.2471430     0.6066220     1.3780870
  H        4.3142870    -0.0291260    -1.8177910
  H        5.3679410     0.7151030    -0.6066950
  H        3.8442820     1.4990380    -1.0633910
  H       -3.7175750    -1.0591810    -0.9792530
units angstrom
no_reorient  #important for SAPT in psi4, default
symmetry c1  #important for SAPT in psi4, default
}

set PROPERTIES_ORIGIN ["COM"]
properties('MP2/aug-cc-pvtz', properties = ['dipole'])
--------------------------------------------------------------------------

    Molecular point group: c1
  Charge       = 0
  Multiplicity = 1
  Basis Set: AUG-CC-PVTZ
    Blend: AUG-CC-PVTZ
  Basis Set: (AUG-CC-PVTZ AUX)
    Blend: AUG-CC-PVTZ-JKFIT

    Orbital Energies [Eh]
    ---------------------

    Doubly Occupied:

       1A    -20.558012     2A    -11.286454     3A    -11.225784
       4A    -11.223465     5A    -11.223143     6A    -11.222847
       7A    -11.221516     8A    -11.221152     9A    -11.212824
      10A     -1.360565    11A     -1.097742    12A     -1.061323
      13A     -1.015908    14A     -0.962213    15A     -0.876876
      16A     -0.828898    17A     -0.752415    18A     -0.747908
      19A     -0.695301    20A     -0.636727    21A     -0.627231
      22A     -0.616718    23A     -0.589382    24A     -0.582726
      25A     -0.553356    26A     -0.542203    27A     -0.524834
      28A     -0.518956    29A     -0.500526    30A     -0.491395
      31A     -0.478928    32A     -0.467059    33A     -0.453614
      34A     -0.418472    35A     -0.297373

  @DF-RHF Final Energy:  -386.06173800409823

   => Energetics <=

    Nuclear Repulsion Energy =            418.3923632641016184
    One-Electron Energy =               -1352.7205110313777823
    Two-Electron Energy =                 548.2664097631779896
    Total Energy =                       -386.0617380040981743
  Basis Set: (AUG-CC-PVTZ AUX)
    Blend: AUG-CC-PVTZ-RI
    Molecular point group: c1

    Geometry (in Angstrom), charge = 0, multiplicity = 1:

       Center              X                  Y                   Z               Mass
    ------------   -----------------  -----------------  -----------------  -----------------
         O           -2.786590852549    -0.915715571982    -0.742858914477    15.994914619570
         C           -2.771652852549    -0.044102571982     0.388061085523    12.000000000000
         C           -1.346363852549     0.193461428018     0.774027085523    12.000000000000
         C            3.585608147451    -0.229593571982     0.224078085523    12.000000000000
         C           -3.459862752549     1.274020228018     0.047228385523    12.000000000000
         C           -0.281983852549    -0.294934571982     0.114321085523    12.000000000000
         C            2.164261147451    -0.513469571982    -0.145715914477    12.000000000000
         C            1.090512147451    -0.026977571982     0.504031085523    12.000000000000
         C            4.322683147451     0.534079428018    -0.878505914477    12.000000000000
         H           -3.275744652549    -0.542066771982     1.234585985523     1.007825032230
         H           -1.198795852549     0.825743428018     1.650654085523     1.007825032230
         H            3.611393147451     0.345824428018     1.156669085523     1.007825032230
         H            4.112487147451    -1.172455571982     0.420744085523     1.007825032230
         H           -2.983063852549     1.741021428018    -0.785657914477     1.007825032230
         H           -4.529470852549     1.095368428018    -0.184593914477     1.007825032230
         H           -3.445326852549     1.953892428018     0.919536085523     1.007825032230
         H           -0.448762852549    -0.927535571982    -0.754543914477     1.007825032230
         H            2.004583147451    -1.144354571982    -1.022579914477     1.007825032230
         H            1.245381147451     0.606328428018     1.379962085523     1.007825032230
         H            4.312525147451    -0.029419571982    -1.815915914477     1.007825032230
         H            5.366179147451     0.714809428018    -0.604819914477     1.007825032230
         H            3.842520147451     1.498744428018    -1.061515914477     1.007825032230
         H           -3.719336852549    -1.059474571982    -0.977377914477     1.007825032230

  Basis Set: AUG-CC-PVTZ
    Blend: AUG-CC-PVTZ
  Basis Set: (AUG-CC-PVTZ AUX)
    Blend: AUG-CC-PVTZ-JKFIT
	 Reference Energy          =    -386.0617380040982312 [Eh]
	 Singles Energy            =      -0.0000000000000000 [Eh]
	 Same-Spin Energy          =      -0.4003512041382711 [Eh]
	 Opposite-Spin Energy      =      -1.3783424935538924 [Eh]
	 Correlation Energy        =      -1.7786936976921635 [Eh]
	 Total Energy              =    -387.8404317017904077 [Eh]

	 ================> DF-SCS-MP2 Energies <==================
	-----------------------------------------------------------
	 SCS Same-Spin Scale       =       0.3333333333333333 [-]
	 SCS Opposite-Spin Scale   =       1.2000000000000000 [-]
	 SCS Same-Spin Energy      =      -0.1334504013794237 [Eh]
	 SCS Opposite-Spin Energy  =      -1.6540109922646709 [Eh]
	 SCS Correlation Energy    =      -1.7874613936440946 [Eh]
	 SCS Total Energy          =    -387.8491993977423249 [Eh]
	-----------------------------------------------------------

  Dipole Moment: [D]
     X:    -1.1586      Y:     0.6464      Z:     0.5766     Total:     1.4466

*** Psi4 exiting successfully. Buy a developer a beer!
