                               Psi4 1.4a3.dev225

  ==> Input File <==

--------------------------------------------------------------------------
#psi4
#
memory 32 gb

molecule  {
0 1
  O       -2.7624640     1.3159430     0.2248240
  C       -2.8209640    -0.0168770    -0.2887760
  C       -1.4198970    -0.4865040    -0.5315690
  C        3.5469730    -0.0618850    -0.4287090
  C       -3.5485140    -0.9406360     0.6857820
  C       -0.3124200     0.2274490    -0.2577540
  C        2.1505970     0.4383770    -0.2221580
  C        1.0508350    -0.2584381    -0.4822480
  C        4.3265940    -0.1505530     0.8872490
  H       -3.3622360    -0.0200820    -1.2509840
  H       -1.3293920    -1.4912640    -0.9473420
  H        3.5136740    -1.0471260    -0.9088000
  H        4.0812660     0.6062640    -1.1173180
  H       -3.0279280    -0.9272120     1.6463760
  H       -4.5820380    -0.6089360     0.8383050
  H       -3.5770120    -1.9680220     0.3103630
  H       -0.4219900     1.2292040     0.1523950
  H        2.0485920     1.4434520     0.1930580
  H        1.1311650    -1.2755230    -0.8987060
  H        4.3778580     0.8269450     1.3761990
  H        5.3504770    -0.4972710     0.7173650
  H        3.8373540    -0.8453320     1.5752720
  H       -3.6799020     1.6047450     0.3678300
units angstrom
no_reorient  #important for SAPT in psi4, default
symmetry c1  #important for SAPT in psi4, default
}

set PROPERTIES_ORIGIN ["COM"]
properties('MP2/aug-cc-pvtz', properties = ['dipole'])
--------------------------------------------------------------------------

    Molecular point group: c1
  Charge       = 0
  Multiplicity = 1
  Basis Set: AUG-CC-PVTZ
    Blend: AUG-CC-PVTZ
  Basis Set: (AUG-CC-PVTZ AUX)
    Blend: AUG-CC-PVTZ-JKFIT

    Orbital Energies [Eh]
    ---------------------

    Doubly Occupied:

       1A    -20.558812     2A    -11.287246     3A    -11.224744
       4A    -11.224086     5A    -11.223445     6A    -11.223016
       7A    -11.222090     8A    -11.221050     9A    -11.213154
      10A     -1.360149    11A     -1.097964    12A     -1.061093
      13A     -1.015144    14A     -0.964129    15A     -0.875663
      16A     -0.829192    17A     -0.751566    18A     -0.747061
      19A     -0.694728    20A     -0.636834    21A     -0.627216
      22A     -0.616677    23A     -0.591090    24A     -0.582343
      25A     -0.546477    26A     -0.543168    27A     -0.527382
      28A     -0.519050    29A     -0.500654    30A     -0.491843
      31A     -0.479594    32A     -0.465103    33A     -0.452792
      34A     -0.418260    35A     -0.301084

  @DF-RHF Final Energy:  -386.06282346894596

   => Energetics <=

    Nuclear Repulsion Energy =            417.8242297713061362
    One-Electron Energy =               -1351.5863091878918567
    Two-Electron Energy =                 547.6992559476398128
    Total Energy =                       -386.0628234689459077
  Basis Set: (AUG-CC-PVTZ AUX)
    Blend: AUG-CC-PVTZ-RI
    Molecular point group: c1

    Geometry (in Angstrom), charge = 0, multiplicity = 1:

       Center              X                  Y                   Z               Mass
    ------------   -----------------  -----------------  -----------------  -----------------
         O           -2.729848790434     1.291628308641     0.240620979088    15.994914619570
         C           -2.788348790434    -0.041191691359    -0.272979020912    12.000000000000
         C           -1.387281790434    -0.510818691359    -0.515772020912    12.000000000000
         C            3.579588209566    -0.086199691359    -0.412912020912    12.000000000000
         C           -3.515898790434    -0.964950691359     0.701578979088    12.000000000000
         C           -0.279804790434     0.203134308641    -0.241957020912    12.000000000000
         C            2.183212209566     0.414062308641    -0.206361020912    12.000000000000
         C            1.083450209566    -0.282752791359    -0.466451020912    12.000000000000
         C            4.359209209566    -0.174867691359     0.903045979088    12.000000000000
         H           -3.329620790434    -0.044396691359    -1.235187020912     1.007825032230
         H           -1.296776790434    -1.515578691359    -0.931545020912     1.007825032230
         H            3.546289209566    -1.071440691359    -0.893003020912     1.007825032230
         H            4.113881209566     0.581949308641    -1.101521020912     1.007825032230
         H           -2.995312790434    -0.951526691359     1.662172979088     1.007825032230
         H           -4.549422790434    -0.633250691359     0.854101979088     1.007825032230
         H           -3.544396790434    -1.992336691359     0.326159979088     1.007825032230
         H           -0.389374790434     1.204889308641     0.168191979088     1.007825032230
         H            2.081207209566     1.419137308641     0.208854979088     1.007825032230
         H            1.163780209566    -1.299837691359    -0.882909020912     1.007825032230
         H            4.410473209566     0.802630308641     1.391995979088     1.007825032230
         H            5.383092209566    -0.521585691359     0.733161979088     1.007825032230
         H            3.869969209566    -0.869646691359     1.591068979088     1.007825032230
         H           -3.647286790434     1.580430308641     0.383626979088     1.007825032230

  Basis Set: AUG-CC-PVTZ
    Blend: AUG-CC-PVTZ
  Basis Set: (AUG-CC-PVTZ AUX)
    Blend: AUG-CC-PVTZ-JKFIT
	 Reference Energy          =    -386.0628234689459646 [Eh]
	 Singles Energy            =      -0.0000000000000000 [Eh]
	 Same-Spin Energy          =      -0.3999267381894710 [Eh]
	 Opposite-Spin Energy      =      -1.3778160635174326 [Eh]
	 Correlation Energy        =      -1.7777428017069035 [Eh]
	 Total Energy              =    -387.8405662706528574 [Eh]

	 ================> DF-SCS-MP2 Energies <==================
	-----------------------------------------------------------
	 SCS Same-Spin Scale       =       0.3333333333333333 [-]
	 SCS Opposite-Spin Scale   =       1.2000000000000000 [-]
	 SCS Same-Spin Energy      =      -0.1333089127298236 [Eh]
	 SCS Opposite-Spin Energy  =      -1.6533792762209190 [Eh]
	 SCS Correlation Energy    =      -1.7866881889507427 [Eh]
	 SCS Total Energy          =    -387.8495116578966986 [Eh]
	-----------------------------------------------------------

  Dipole Moment: [D]
     X:    -1.2010      Y:    -0.7886      Z:    -0.1406     Total:     1.4437

*** Psi4 exiting successfully. Buy a developer a beer!
