                               Psi4 1.3.2 release

  ==> Input File <==

--------------------------------------------------------------------------
#psi4
#
memory 32 gb

molecule  {
0 1
  O       -2.7848290    -0.9154220    -0.7447340
  C       -2.7698910    -0.0438090     0.3861860
  C       -1.3423787     0.1990785     0.7604446
  C        3.5873700    -0.2293000     0.2222030
  C       -3.4755630     1.2700040     0.0649850
  C       -0.2802220    -0.2946410     0.1124460
  C        2.1660230    -0.5131760    -0.1475910
  C        1.0922740    -0.0266840     0.5021560
  C        4.3244450     0.5343730    -0.8803810
  H       -3.2946974    -0.5273741     1.2284594
  H       -1.1970340     0.8260370     1.6487790
  H        3.6131550     0.3461180     1.1547940
  H        4.1142490    -1.1721620     0.4188690
  H       -2.9813020     1.7413150    -0.7875330
  H       -4.5277090     1.0956620    -0.1864690
  H       -3.4435650     1.9541860     0.9176610
  H       -0.4470010    -0.9272420    -0.7564190
  H        2.0063450    -1.1440610    -1.0244550
  H        1.2471430     0.6066220     1.3780870
  H        4.3142870    -0.0291260    -1.8177910
  H        5.3679410     0.7151030    -0.6066950
  H        3.8442820     1.4990380    -1.0633910
  H       -3.7175750    -1.0591810    -0.9792530
units angstrom
no_reorient  #important for SAPT in psi4, default
symmetry c1  #important for SAPT in psi4, default
}

set PROPERTIES_ORIGIN ["COM"]
properties('MP2/aug-cc-pvtz', properties = ['dipole'])
--------------------------------------------------------------------------

    Molecular point group: c1
  Charge       = 0
  Multiplicity = 1
  Basis Set: AUG-CC-PVTZ
    Blend: AUG-CC-PVTZ
  Basis Set: (AUG-CC-PVTZ AUX)
    Blend: AUG-CC-PVTZ-JKFIT

    Orbital Energies [Eh]
    ---------------------

    Doubly Occupied:

       1A    -20.558448     2A    -11.286489     3A    -11.226038
       4A    -11.223493     5A    -11.223235     6A    -11.222918
       7A    -11.221258     8A    -11.220399     9A    -11.212920
      10A     -1.360706    11A     -1.098219    12A     -1.061562
      13A     -1.016283    14A     -0.962899    15A     -0.876393
      16A     -0.828866    17A     -0.752658    18A     -0.747054
      19A     -0.695570    20A     -0.637284    21A     -0.628083
      22A     -0.617269    23A     -0.590250    24A     -0.582868
      25A     -0.546071    26A     -0.543289    27A     -0.527042
      28A     -0.518951    29A     -0.500023    30A     -0.492900
      31A     -0.479209    32A     -0.467905    33A     -0.452668
      34A     -0.418813    35A     -0.298332

  @DF-RHF Final Energy:  -386.06264842475787

   => Energetics <=

    Nuclear Repulsion Energy =            418.3665664015321681
    One-Electron Energy =               -1352.6656957485429302
    Two-Electron Energy =                 548.2364809222528947
    Total Energy =                       -386.0626484247578674
  Basis Set: (AUG-CC-PVTZ AUX)
    Blend: AUG-CC-PVTZ-RI
    Molecular point group: c1

    Geometry (in Angstrom), charge = 0, multiplicity = 1:

       Center              X                  Y                   Z               Mass
    ------------   -----------------  -----------------  -----------------  -----------------
         O           -2.784975189755    -0.915927112259    -0.743579006599    15.994914619570
         C           -2.770037189755    -0.044314112259     0.387340993401    12.000000000000
         C           -1.342524889755     0.198573387741     0.761599593401    12.000000000000
         C            3.587223810245    -0.229805112259     0.223357993401    12.000000000000
         C           -3.475709189755     1.269498887741     0.066139993401    12.000000000000
         C           -0.280368189755    -0.295146112259     0.113600993401    12.000000000000
         C            2.165876810245    -0.513681112259    -0.146436006599    12.000000000000
         C            1.092127810245    -0.027189112259     0.503310993401    12.000000000000
         C            4.324298810245     0.533867887741    -0.879226006599    12.000000000000
         H           -3.294843589755    -0.527879212259     1.229614393401     1.007825032230
         H           -1.197180189755     0.825531887741     1.649933993401     1.007825032230
         H            3.613008810245     0.345612887741     1.155948993401     1.007825032230
         H            4.114102810245    -1.172667112259     0.420023993401     1.007825032230
         H           -2.981448189755     1.740809887741    -0.786378006599     1.007825032230
         H           -4.527855189755     1.095156887741    -0.185314006599     1.007825032230
         H           -3.443711189755     1.953680887741     0.918815993401     1.007825032230
         H           -0.447147189755    -0.927747112259    -0.755264006599     1.007825032230
         H            2.006198810245    -1.144566112259    -1.023300006599     1.007825032230
         H            1.246996810245     0.606116887741     1.379241993401     1.007825032230
         H            4.314140810245    -0.029631112259    -1.816636006599     1.007825032230
         H            5.367794810245     0.714597887741    -0.605540006599     1.007825032230
         H            3.844135810245     1.498532887741    -1.062236006599     1.007825032230
         H           -3.717721189755    -1.059686112259    -0.978098006599     1.007825032230

  Basis Set: AUG-CC-PVTZ
    Blend: AUG-CC-PVTZ
  Basis Set: (AUG-CC-PVTZ AUX)
    Blend: AUG-CC-PVTZ-JKFIT
	 Reference Energy          =    -386.0626484247578674 [Eh]
	 Singles Energy            =      -0.0000000000000000 [Eh]
	 Same-Spin Energy          =      -0.4003024078426104 [Eh]
	 Opposite-Spin Energy      =      -1.3782164409001465 [Eh]
	 Correlation Energy        =      -1.7785188487427570 [Eh]
	 Total Energy              =    -387.8411672735006164 [Eh]

	 ================> DF-SCS-MP2 Energies <==================
	-----------------------------------------------------------
	 SCS Same-Spin Scale       =       0.3333333333333333 [-]
	 SCS Opposite-Spin Scale   =       1.2000000000000000 [-]
	 SCS Same-Spin Energy      =      -0.1334341359475368 [Eh]
	 SCS Opposite-Spin Energy  =      -1.6538597290801758 [Eh]
	 SCS Correlation Energy    =      -1.7872938650277126 [Eh]
	 SCS Total Energy          =    -387.8499422897855879 [Eh]
	-----------------------------------------------------------

  Dipole Moment: [D]
     X:    -1.1543      Y:     0.6301      Z:     0.5815     Total:     1.4378

*** Psi4 exiting successfully. Buy a developer a beer!
