                               Psi4 1.4a3.dev225

  ==> Input File <==

--------------------------------------------------------------------------
#psi4
#
memory 32 gb

molecule  {
0 1
  O       -2.7624640     1.3159430     0.2248240
  C       -2.8209640    -0.0168770    -0.2887760
  C       -1.4198970    -0.4865040    -0.5315690
  C        3.5469730    -0.0618850    -0.4287090
  C       -3.5485140    -0.9406360     0.6857820
  C       -0.3124200     0.2274490    -0.2577540
  C        2.1505970     0.4383770    -0.2221580
  C        1.0342680    -0.2689350    -0.4861660
  C        4.3265940    -0.1505530     0.8872490
  H       -3.3622360    -0.0200820    -1.2509840
  H       -1.3293920    -1.4912640    -0.9473420
  H        3.5142814    -1.0291552    -0.9000432
  H        4.0812660     0.6062640    -1.1173180
  H       -3.0279280    -0.9272120     1.6463760
  H       -4.5820380    -0.6089360     0.8383050
  H       -3.5770120    -1.9680220     0.3103630
  H       -0.4219900     1.2292040     0.1523950
  H        2.0485920     1.4434520     0.1930580
  H        1.1311650    -1.2755230    -0.8987060
  H        4.3778580     0.8269450     1.3761990
  H        5.3504770    -0.4972710     0.7173650
  H        3.8373540    -0.8453320     1.5752720
  H       -3.6799020     1.6047450     0.3678300
units angstrom
no_reorient  #important for SAPT in psi4, default
symmetry c1  #important for SAPT in psi4, default
}

set PROPERTIES_ORIGIN ["COM"]
properties('MP2/aug-cc-pvtz', properties = ['dipole'])
--------------------------------------------------------------------------

    Molecular point group: c1
  Charge       = 0
  Multiplicity = 1
  Basis Set: AUG-CC-PVTZ
    Blend: AUG-CC-PVTZ
  Basis Set: (AUG-CC-PVTZ AUX)
    Blend: AUG-CC-PVTZ-JKFIT

    Orbital Energies [Eh]
    ---------------------

    Doubly Occupied:

       1A    -20.558795     2A    -11.287010     3A    -11.226379
       4A    -11.224275     5A    -11.223629     6A    -11.222425
       7A    -11.221243     8A    -11.220944     9A    -11.213048
      10A     -1.360116    11A     -1.097256    12A     -1.060978
      13A     -1.015844    14A     -0.962074    15A     -0.876566
      16A     -0.829183    17A     -0.753398    18A     -0.747824
      19A     -0.694887    20A     -0.637503    21A     -0.627081
      22A     -0.616839    23A     -0.590343    24A     -0.583048
      25A     -0.546436    26A     -0.543293    27A     -0.527327
      28A     -0.518395    29A     -0.500898    30A     -0.492558
      31A     -0.481214    32A     -0.467750    33A     -0.452806
      34A     -0.417855    35A     -0.297280

  @DF-RHF Final Energy:  -386.06242680445212

   => Energetics <=

    Nuclear Repulsion Energy =            417.8356604612701517
    One-Electron Energy =               -1351.6031736108689074
    Two-Electron Energy =                 547.7050863451465830
    Total Energy =                       -386.0624268044521159
  Basis Set: (AUG-CC-PVTZ AUX)
    Blend: AUG-CC-PVTZ-RI
    Molecular point group: c1

    Geometry (in Angstrom), charge = 0, multiplicity = 1:

       Center              X                  Y                   Z               Mass
    ------------   -----------------  -----------------  -----------------  -----------------
         O           -2.728277142301     1.292483562877     0.240923828616    15.994914619570
         C           -2.786777142301    -0.040336437123    -0.272676171384    12.000000000000
         C           -1.385710142301    -0.509963437123    -0.515469171384    12.000000000000
         C            3.581159857699    -0.085344437123    -0.412609171384    12.000000000000
         C           -3.514327142301    -0.964095437123     0.701881828616    12.000000000000
         C           -0.278233142301     0.203989562877    -0.241654171384    12.000000000000
         C            2.184783857699     0.414917562877    -0.206058171384    12.000000000000
         C            1.068454857699    -0.292394437123    -0.470066171384    12.000000000000
         C            4.360780857699    -0.174012437123     0.903348828616    12.000000000000
         H           -3.328049142301    -0.043541437123    -1.234884171384     1.007825032230
         H           -1.295205142301    -1.514723437123    -0.931242171384     1.007825032230
         H            3.548468257699    -1.052614637123    -0.883943371384     1.007825032230
         H            4.115452857699     0.582804562877    -1.101218171384     1.007825032230
         H           -2.993741142301    -0.950671437123     1.662475828616     1.007825032230
         H           -4.547851142301    -0.632395437123     0.854404828616     1.007825032230
         H           -3.542825142301    -1.991481437123     0.326462828616     1.007825032230
         H           -0.387803142301     1.205744562877     0.168494828616     1.007825032230
         H            2.082778857699     1.419992562877     0.209157828616     1.007825032230
         H            1.165351857699    -1.298982437123    -0.882606171384     1.007825032230
         H            4.412044857699     0.803485562877     1.392298828616     1.007825032230
         H            5.384663857699    -0.520730437123     0.733464828616     1.007825032230
         H            3.871540857699    -0.868791437123     1.591371828616     1.007825032230
         H           -3.645715142301     1.581285562877     0.383929828616     1.007825032230

  Basis Set: AUG-CC-PVTZ
    Blend: AUG-CC-PVTZ
  Basis Set: (AUG-CC-PVTZ AUX)
    Blend: AUG-CC-PVTZ-JKFIT
	 Reference Energy          =    -386.0624268044521159 [Eh]
	 Singles Energy            =      -0.0000000000000000 [Eh]
	 Same-Spin Energy          =      -0.4002575513149933 [Eh]
	 Opposite-Spin Energy      =      -1.3782599337094394 [Eh]
	 Correlation Energy        =      -1.7785174850244327 [Eh]
	 Total Energy              =    -387.8409442894765675 [Eh]

	 ================> DF-SCS-MP2 Energies <==================
	-----------------------------------------------------------
	 SCS Same-Spin Scale       =       0.3333333333333333 [-]
	 SCS Opposite-Spin Scale   =       1.2000000000000000 [-]
	 SCS Same-Spin Energy      =      -0.1334191837716644 [Eh]
	 SCS Opposite-Spin Energy  =      -1.6539119204513273 [Eh]
	 SCS Correlation Energy    =      -1.7873311042229918 [Eh]
	 SCS Total Energy          =    -387.8497579086750875 [Eh]
	-----------------------------------------------------------

  Dipole Moment: [D]
     X:    -1.1962      Y:    -0.8048      Z:    -0.1515     Total:     1.4497

*** Psi4 exiting successfully. Buy a developer a beer!
