                               Psi4 1.4a3.dev225

  ==> Input File <==

--------------------------------------------------------------------------
#psi4
#
memory 32 gb

molecule  {
0 1
  O       -2.7624640     1.3159430     0.2248240
  C       -2.8189179     0.0297397    -0.2708123
  C       -1.4198970    -0.4865040    -0.5315690
  C        3.5469730    -0.0618850    -0.4287090
  C       -3.5485140    -0.9406360     0.6857820
  C       -0.3124200     0.2274490    -0.2577540
  C        2.1505970     0.4383770    -0.2221580
  C        1.0342680    -0.2689350    -0.4861660
  C        4.3265940    -0.1505530     0.8872490
  H       -3.3622360    -0.0200820    -1.2509840
  H       -1.3293920    -1.4912640    -0.9473420
  H        3.5136740    -1.0471260    -0.9088000
  H        4.0812660     0.6062640    -1.1173180
  H       -3.0279280    -0.9272120     1.6463760
  H       -4.5820380    -0.6089360     0.8383050
  H       -3.5770120    -1.9680220     0.3103630
  H       -0.4219900     1.2292040     0.1523950
  H        2.0485920     1.4434520     0.1930580
  H        1.1311650    -1.2755230    -0.8987060
  H        4.3778580     0.8269450     1.3761990
  H        5.3504770    -0.4972710     0.7173650
  H        3.8373540    -0.8453320     1.5752720
  H       -3.6799020     1.6047450     0.3678300
units angstrom
no_reorient  #important for SAPT in psi4, default
symmetry c1  #important for SAPT in psi4, default
}

set PROPERTIES_ORIGIN ["COM"]
properties('MP2/aug-cc-pvtz', properties = ['dipole'])
--------------------------------------------------------------------------

    Molecular point group: c1
  Charge       = 0
  Multiplicity = 1
  Basis Set: AUG-CC-PVTZ
    Blend: AUG-CC-PVTZ
  Basis Set: (AUG-CC-PVTZ AUX)
    Blend: AUG-CC-PVTZ-JKFIT

    Orbital Energies [Eh]
    ---------------------

    Doubly Occupied:

       1A    -20.565232     2A    -11.288086     3A    -11.225590
       4A    -11.223656     5A    -11.223267     6A    -11.223020
       7A    -11.221144     8A    -11.219887     9A    -11.212818
      10A     -1.382053    11A     -1.095921    12A     -1.057805
      13A     -1.011884    14A     -0.960356    15A     -0.874906
      16A     -0.828136    17A     -0.753025    18A     -0.750225
      19A     -0.699976    20A     -0.641588    21A     -0.625914
      22A     -0.621749    23A     -0.591542    24A     -0.583292
      25A     -0.548213    26A     -0.541559    27A     -0.531425
      28A     -0.518002    29A     -0.502720    30A     -0.490465
      31A     -0.478356    32A     -0.463392    33A     -0.449673
      34A     -0.415300    35A     -0.295957

  @DF-RHF Final Energy:  -386.06083973990042

   => Energetics <=

    Nuclear Repulsion Energy =            418.0780778662863213
    One-Electron Energy =               -1352.0455656742547035
    Two-Electron Energy =                 547.9066480680679661
    Total Energy =                       -386.0608397399004161
  Basis Set: (AUG-CC-PVTZ AUX)
    Blend: AUG-CC-PVTZ-RI
    Molecular point group: c1

    Geometry (in Angstrom), charge = 0, multiplicity = 1:

       Center              X                  Y                   Z               Mass
    ------------   -----------------  -----------------  -----------------  -----------------
         O           -2.728466993208     1.288191177373     0.239284401514    15.994914619570
         C           -2.784920893208     0.001987877373    -0.256351898486    12.000000000000
         C           -1.385899993208    -0.514255822627    -0.517108598486    12.000000000000
         C            3.580970006792    -0.089636822627    -0.414248598486    12.000000000000
         C           -3.514516993208    -0.968387822627     0.700242401514    12.000000000000
         C           -0.278422993208     0.199697177373    -0.243293598486    12.000000000000
         C            2.184594006792     0.410625177373    -0.207697598486    12.000000000000
         C            1.068265006792    -0.296686822627    -0.471705598486    12.000000000000
         C            4.360591006792    -0.178304822627     0.901709401514    12.000000000000
         H           -3.328238993208    -0.047833822627    -1.236523598486     1.007825032230
         H           -1.295394993208    -1.519015822627    -0.932881598486     1.007825032230
         H            3.547671006792    -1.074877822627    -0.894339598486     1.007825032230
         H            4.115263006792     0.578512177373    -1.102857598486     1.007825032230
         H           -2.993930993208    -0.954963822627     1.660836401514     1.007825032230
         H           -4.548040993208    -0.636687822627     0.852765401514     1.007825032230
         H           -3.543014993208    -1.995773822627     0.324823401514     1.007825032230
         H           -0.387992993208     1.201452177373     0.166855401514     1.007825032230
         H            2.082589006792     1.415700177373     0.207518401514     1.007825032230
         H            1.165162006792    -1.303274822627    -0.884245598486     1.007825032230
         H            4.411855006792     0.799193177373     1.390659401514     1.007825032230
         H            5.384474006792    -0.525022822627     0.731825401514     1.007825032230
         H            3.871351006792    -0.873083822627     1.589732401514     1.007825032230
         H           -3.645904993208     1.576993177373     0.382290401514     1.007825032230

  Basis Set: AUG-CC-PVTZ
    Blend: AUG-CC-PVTZ
  Basis Set: (AUG-CC-PVTZ AUX)
    Blend: AUG-CC-PVTZ-JKFIT
	 Reference Energy          =    -386.0608397399004161 [Eh]
	 Singles Energy            =      -0.0000000000000000 [Eh]
	 Same-Spin Energy          =      -0.4001993485458759 [Eh]
	 Opposite-Spin Energy      =      -1.3776668544618949 [Eh]
	 Correlation Energy        =      -1.7778662030077708 [Eh]
	 Total Energy              =    -387.8387059429081773 [Eh]

	 ================> DF-SCS-MP2 Energies <==================
	-----------------------------------------------------------
	 SCS Same-Spin Scale       =       0.3333333333333333 [-]
	 SCS Opposite-Spin Scale   =       1.2000000000000000 [-]
	 SCS Same-Spin Energy      =      -0.1333997828486253 [Eh]
	 SCS Opposite-Spin Energy  =      -1.6532002253542737 [Eh]
	 SCS Correlation Energy    =      -1.7866000082028990 [Eh]
	 SCS Total Energy          =    -387.8474397481033407 [Eh]
	-----------------------------------------------------------

  Dipole Moment: [D]
     X:    -1.2481      Y:    -0.6310      Z:    -0.0991     Total:     1.4020

*** Psi4 exiting successfully. Buy a developer a beer!
