                               Psi4 1.3.2 release

  ==> Input File <==

--------------------------------------------------------------------------
#psi4
#
memory 32 gb

molecule  {
0 1
  O       -2.7848290    -0.9154220    -0.7447340
  C       -2.7698910    -0.0438090     0.3861860
  C       -1.3446020     0.1937550     0.7721520
  C        3.5952893    -0.2442651     0.2023306
  C       -3.4755630     1.2700040     0.0649850
  C       -0.2802220    -0.2946410     0.1124460
  C        2.1660230    -0.5131760    -0.1475910
  C        1.0782717    -0.0380753     0.4871207
  C        4.3244450     0.5343730    -0.8803810
  H       -3.2865450    -0.5271910     1.2335890
  H       -1.1970340     0.8260370     1.6487790
  H        3.6131550     0.3461180     1.1547940
  H        4.1142490    -1.1721620     0.4188690
  H       -2.9813020     1.7413150    -0.7875330
  H       -4.5277090     1.0956620    -0.1864690
  H       -3.4435650     1.9541860     0.9176610
  H       -0.4470010    -0.9272420    -0.7564190
  H        2.0063450    -1.1440610    -1.0244550
  H        1.2471430     0.6066220     1.3780870
  H        4.3142870    -0.0291260    -1.8177910
  H        5.3679410     0.7151030    -0.6066950
  H        3.8442820     1.4990380    -1.0633910
  H       -3.7175750    -1.0591810    -0.9792530
units angstrom
no_reorient  #important for SAPT in psi4, default
symmetry c1  #important for SAPT in psi4, default
}

set PROPERTIES_ORIGIN ["COM"]
properties('MP2/aug-cc-pvtz', properties = ['dipole'])
--------------------------------------------------------------------------

    Molecular point group: c1
  Charge       = 0
  Multiplicity = 1
  Basis Set: AUG-CC-PVTZ
    Blend: AUG-CC-PVTZ
  Basis Set: (AUG-CC-PVTZ AUX)
    Blend: AUG-CC-PVTZ-JKFIT

    Orbital Energies [Eh]
    ---------------------

    Doubly Occupied:

       1A    -20.558993     2A    -11.286943     3A    -11.226112
       4A    -11.224445     5A    -11.224116     6A    -11.223866
       7A    -11.221430     8A    -11.220966     9A    -11.212817
      10A     -1.361062    11A     -1.099435    12A     -1.062148
      13A     -1.018331    14A     -0.963252    15A     -0.878351
      16A     -0.828943    17A     -0.752200    18A     -0.746670
      19A     -0.695303    20A     -0.637043    21A     -0.629792
      22A     -0.617347    23A     -0.591169    24A     -0.583506
      25A     -0.546740    26A     -0.543792    27A     -0.525277
      28A     -0.523425    29A     -0.500900    30A     -0.491057
      31A     -0.474090    32A     -0.467494    33A     -0.453497
      34A     -0.421277    35A     -0.296933

  @DF-RHF Final Energy:  -386.06041575122345

   => Energetics <=

    Nuclear Repulsion Energy =            418.4648571131944550
    One-Electron Energy =               -1352.8331042127497312
    Two-Electron Energy =                 548.3078313483317743
    Total Energy =                       -386.0604157512234451
  Basis Set: (AUG-CC-PVTZ AUX)
    Blend: AUG-CC-PVTZ-RI
    Molecular point group: c1

    Geometry (in Angstrom), charge = 0, multiplicity = 1:

       Center              X                  Y                   Z               Mass
    ------------   -----------------  -----------------  -----------------  -----------------
         O           -2.784249922754    -0.912913941655    -0.741412280301    15.994914619570
         C           -2.769311922754    -0.041300941655     0.389507719699    12.000000000000
         C           -1.344022922754     0.196263058345     0.775473719699    12.000000000000
         C            3.595868377246    -0.241757041655     0.205652319699    12.000000000000
         C           -3.474983922754     1.272512058345     0.068306719699    12.000000000000
         C           -0.279642922754    -0.292132941655     0.115767719699    12.000000000000
         C            2.166602077246    -0.510667941655    -0.144269280301    12.000000000000
         C            1.078850777246    -0.035567241655     0.490442419699    12.000000000000
         C            4.325024077246     0.536881058345    -0.877059280301    12.000000000000
         H           -3.285965922754    -0.524682941655     1.236910719699     1.007825032230
         H           -1.196454922754     0.828545058345     1.652100719699     1.007825032230
         H            3.613734077246     0.348626058345     1.158115719699     1.007825032230
         H            4.114828077246    -1.169653941655     0.422190719699     1.007825032230
         H           -2.980722922754     1.743823058345    -0.784211280301     1.007825032230
         H           -4.527129922754     1.098170058345    -0.183147280301     1.007825032230
         H           -3.442985922754     1.956694058345     0.920982719699     1.007825032230
         H           -0.446421922754    -0.924733941655    -0.753097280301     1.007825032230
         H            2.006924077246    -1.141552941655    -1.021133280301     1.007825032230
         H            1.247722077246     0.609130058345     1.381408719699     1.007825032230
         H            4.314866077246    -0.026617941655    -1.814469280301     1.007825032230
         H            5.368520077246     0.717611058345    -0.603373280301     1.007825032230
         H            3.844861077246     1.501546058345    -1.060069280301     1.007825032230
         H           -3.716995922754    -1.056672941655    -0.975931280301     1.007825032230

  Basis Set: AUG-CC-PVTZ
    Blend: AUG-CC-PVTZ
  Basis Set: (AUG-CC-PVTZ AUX)
    Blend: AUG-CC-PVTZ-JKFIT
	 Reference Energy          =    -386.0604157512234451 [Eh]
	 Singles Energy            =      -0.0000000000000000 [Eh]
	 Same-Spin Energy          =      -0.4007317479084581 [Eh]
	 Opposite-Spin Energy      =      -1.3787985730614820 [Eh]
	 Correlation Energy        =      -1.7795303209699400 [Eh]
	 Total Energy              =    -387.8399460721934133 [Eh]

	 ================> DF-SCS-MP2 Energies <==================
	-----------------------------------------------------------
	 SCS Same-Spin Scale       =       0.3333333333333333 [-]
	 SCS Opposite-Spin Scale   =       1.2000000000000000 [-]
	 SCS Same-Spin Energy      =      -0.1335772493028193 [Eh]
	 SCS Opposite-Spin Energy  =      -1.6545582876737783 [Eh]
	 SCS Correlation Energy    =      -1.7881355369765977 [Eh]
	 SCS Total Energy          =    -387.8485512882000421 [Eh]
	-----------------------------------------------------------

  Dipole Moment: [D]
     X:    -1.1824      Y:     0.6360      Z:     0.5609     Total:     1.4551

*** Psi4 exiting successfully. Buy a developer a beer!
