                               Psi4 1.3.2 release

  ==> Input File <==

--------------------------------------------------------------------------
#psi4
#
memory 32 gb

molecule  {
0 1
  O       -2.7475490    -0.9657738    -0.7039490
  C       -2.7698910    -0.0438090     0.3861860
  C       -1.3446020     0.1937550     0.7721520
  C        3.5873700    -0.2293000     0.2222030
  C       -3.4597191     1.2942808     0.1394056
  C       -0.2802220    -0.2946410     0.1124460
  C        2.1660230    -0.5131760    -0.1475910
  C        1.0922740    -0.0266840     0.5021560
  C        4.3244450     0.5343730    -0.8803810
  H       -3.2865450    -0.5271910     1.2335890
  H       -1.1970340     0.8260370     1.6487790
  H        3.6131550     0.3461180     1.1547940
  H        4.1142490    -1.1721620     0.4188690
  H       -2.9813020     1.7413150    -0.7875330
  H       -4.5277090     1.0956620    -0.1864690
  H       -3.4435650     1.9541860     0.9176610
  H       -0.4470010    -0.9272420    -0.7564190
  H        2.0063450    -1.1440610    -1.0244550
  H        1.2471430     0.6066220     1.3780870
  H        4.3142870    -0.0291260    -1.8177910
  H        5.3679410     0.7151030    -0.6066950
  H        3.8442820     1.4990380    -1.0633910
  H       -3.7175750    -1.0591810    -0.9792530
units angstrom
no_reorient  #important for SAPT in psi4, default
symmetry c1  #important for SAPT in psi4, default
}

set PROPERTIES_ORIGIN ["COM"]
properties('MP2/aug-cc-pvtz', properties = ['dipole'])
--------------------------------------------------------------------------

    Molecular point group: c1
  Charge       = 0
  Multiplicity = 1
  Basis Set: AUG-CC-PVTZ
    Blend: AUG-CC-PVTZ
  Basis Set: (AUG-CC-PVTZ AUX)
    Blend: AUG-CC-PVTZ-JKFIT

    Orbital Energies [Eh]
    ---------------------

    Doubly Occupied:

       1A    -20.567079     2A    -11.286781     3A    -11.224945
       4A    -11.224903     5A    -11.222663     6A    -11.222402
       7A    -11.221762     8A    -11.220196     9A    -11.212392
      10A     -1.356180    11A     -1.096785    12A     -1.060985
      13A     -1.017198    14A     -0.962489    15A     -0.875704
      16A     -0.827769    17A     -0.751941    18A     -0.744897
      19A     -0.689801    20A     -0.640110    21A     -0.626869
      22A     -0.624112    23A     -0.589357    24A     -0.581088
      25A     -0.549246    26A     -0.535830    27A     -0.531075
      28A     -0.517715    29A     -0.500266    30A     -0.492203
      31A     -0.478349    32A     -0.466050    33A     -0.451007
      34A     -0.417154    35A     -0.296158

  @DF-RHF Final Energy:  -386.04877031314038

   => Energetics <=

    Nuclear Repulsion Energy =            418.2213479697713865
    One-Electron Energy =               -1352.3733158544928301
    Two-Electron Energy =                 548.1031975715810631
    Total Energy =                       -386.0487703131403805
  Basis Set: (AUG-CC-PVTZ AUX)
    Blend: AUG-CC-PVTZ-RI
    Molecular point group: c1

    Geometry (in Angstrom), charge = 0, multiplicity = 1:

       Center              X                  Y                   Z               Mass
    ------------   -----------------  -----------------  -----------------  -----------------
         O           -2.753785012263    -0.961697404310    -0.716203986421    15.994914619570
         C           -2.776127012263    -0.039732604310     0.373931013579    12.000000000000
         C           -1.350838012263     0.197831395690     0.759897013579    12.000000000000
         C            3.581133987737    -0.225223604310     0.209948013579    12.000000000000
         C           -3.465955112263     1.298357195690     0.127150613579    12.000000000000
         C           -0.286458012263    -0.290564604310     0.100191013579    12.000000000000
         C            2.159786987737    -0.509099604310    -0.159845986421    12.000000000000
         C            1.086037987737    -0.022607604310     0.489901013579    12.000000000000
         C            4.318208987737     0.538449395690    -0.892635986421    12.000000000000
         H           -3.292781012263    -0.523114604310     1.221334013579     1.007825032230
         H           -1.203270012263     0.830113395690     1.636524013579     1.007825032230
         H            3.606918987737     0.350194395690     1.142539013579     1.007825032230
         H            4.108012987737    -1.168085604310     0.406614013579     1.007825032230
         H           -2.987538012263     1.745391395690    -0.799787986421     1.007825032230
         H           -4.533945012263     1.099738395690    -0.198723986421     1.007825032230
         H           -3.449801012263     1.958262395690     0.905406013579     1.007825032230
         H           -0.453237012263    -0.923165604310    -0.768673986421     1.007825032230
         H            2.000108987737    -1.139984604310    -1.036709986421     1.007825032230
         H            1.240906987737     0.610698395690     1.365832013579     1.007825032230
         H            4.308050987737    -0.025049604310    -1.830045986421     1.007825032230
         H            5.361704987737     0.719179395690    -0.618949986421     1.007825032230
         H            3.838045987737     1.503114395690    -1.075645986421     1.007825032230
         H           -3.723811012263    -1.055104604310    -0.991507986421     1.007825032230

  Basis Set: AUG-CC-PVTZ
    Blend: AUG-CC-PVTZ
  Basis Set: (AUG-CC-PVTZ AUX)
    Blend: AUG-CC-PVTZ-JKFIT
	 Reference Energy          =    -386.0487703131403805 [Eh]
	 Singles Energy            =      -0.0000000000000000 [Eh]
	 Same-Spin Energy          =      -0.4012764966207627 [Eh]
	 Opposite-Spin Energy      =      -1.3804922404915119 [Eh]
	 Correlation Energy        =      -1.7817687371122746 [Eh]
	 Total Energy              =    -387.8305390502526393 [Eh]

	 ================> DF-SCS-MP2 Energies <==================
	-----------------------------------------------------------
	 SCS Same-Spin Scale       =       0.3333333333333333 [-]
	 SCS Opposite-Spin Scale   =       1.2000000000000000 [-]
	 SCS Same-Spin Energy      =      -0.1337588322069209 [Eh]
	 SCS Opposite-Spin Energy  =      -1.6565906885898143 [Eh]
	 SCS Correlation Energy    =      -1.7903495207967353 [Eh]
	 SCS Total Energy          =    -387.8391198339371044 [Eh]
	-----------------------------------------------------------

  Dipole Moment: [D]
     X:    -1.2663      Y:     0.7541      Z:     0.4984     Total:     1.5558

*** Psi4 exiting successfully. Buy a developer a beer!
