                               Psi4 1.3.2 release

  ==> Input File <==

--------------------------------------------------------------------------
#psi4
#
memory 32 gb

molecule  {
0 1
  O       -2.7848290    -0.9154220    -0.7447340
  C       -2.7698910    -0.0438090     0.3861860
  C       -1.3446020     0.1937550     0.7721520
  C        3.5873700    -0.2293000     0.2222030
  C       -3.4755630     1.2700040     0.0649850
  C       -0.2802220    -0.2946410     0.1124460
  C        2.1786106    -0.4766566    -0.2157151
  C        1.0922740    -0.0266840     0.5021560
  C        4.2569320     0.5330639    -0.9235088
  H       -3.2865450    -0.5271910     1.2335890
  H       -1.1970340     0.8260370     1.6487790
  H        3.6131550     0.3461180     1.1547940
  H        4.1142490    -1.1721620     0.4188690
  H       -2.9813020     1.7413150    -0.7875330
  H       -4.5277090     1.0956620    -0.1864690
  H       -3.4435650     1.9541860     0.9176610
  H       -0.4470010    -0.9272420    -0.7564190
  H        2.0063450    -1.1440610    -1.0244550
  H        1.2471430     0.6066220     1.3780870
  H        4.3142870    -0.0291260    -1.8177910
  H        5.3679410     0.7151030    -0.6066950
  H        3.8442820     1.4990380    -1.0633910
  H       -3.7175750    -1.0591810    -0.9792530
units angstrom
no_reorient  #important for SAPT in psi4, default
symmetry c1  #important for SAPT in psi4, default
}

set PROPERTIES_ORIGIN ["COM"]
properties('MP2/aug-cc-pvtz', properties = ['dipole'])
--------------------------------------------------------------------------

    Molecular point group: c1
  Charge       = 0
  Multiplicity = 1
  Basis Set: AUG-CC-PVTZ
    Blend: AUG-CC-PVTZ
  Basis Set: (AUG-CC-PVTZ AUX)
    Blend: AUG-CC-PVTZ-JKFIT

    Orbital Energies [Eh]
    ---------------------

    Doubly Occupied:

       1A    -20.558529     2A    -11.286139     3A    -11.227834
       4A    -11.226462     5A    -11.224112     6A    -11.222886
       7A    -11.221253     8A    -11.220374     9A    -11.212806
      10A     -1.360550    11A     -1.095839    12A     -1.062163
      13A     -1.015452    14A     -0.958474    15A     -0.875693
      16A     -0.827061    17A     -0.759405    18A     -0.747277
      19A     -0.694763    20A     -0.638025    21A     -0.629315
      22A     -0.618111    23A     -0.590918    24A     -0.580730
      25A     -0.546857    26A     -0.542532    27A     -0.529448
      28A     -0.521994    29A     -0.496663    30A     -0.493338
      31A     -0.486261    32A     -0.460513    33A     -0.451777
      34A     -0.414325    35A     -0.292343

  @DF-RHF Final Energy:  -386.05033483531889

   => Energetics <=

    Nuclear Repulsion Energy =            418.4455513733421981
    One-Electron Energy =               -1352.8113277323263901
    Two-Electron Energy =                 548.3154415236654131
    Total Energy =                       -386.0503348353188358
  Basis Set: (AUG-CC-PVTZ AUX)
    Blend: AUG-CC-PVTZ-RI
    Molecular point group: c1

    Geometry (in Angstrom), charge = 0, multiplicity = 1:

       Center              X                  Y                   Z               Mass
    ------------   -----------------  -----------------  -----------------  -----------------
         O           -2.779602119048    -0.918772579567    -0.734147427312    15.994914619570
         C           -2.764664119048    -0.047159579567     0.396772572688    12.000000000000
         C           -1.339375119048     0.190404420433     0.782738572688    12.000000000000
         C            3.592596880952    -0.232650579567     0.232789572688    12.000000000000
         C           -3.470336119048     1.266653420433     0.075571572688    12.000000000000
         C           -0.274995119048    -0.297991579567     0.123032572688    12.000000000000
         C            2.183837480952    -0.480007179567    -0.205128527312    12.000000000000
         C            1.097500880952    -0.030034579567     0.512742572688    12.000000000000
         C            4.262158880952     0.529713320433    -0.912922227312    12.000000000000
         H           -3.281318119048    -0.530541579567     1.244175572688     1.007825032230
         H           -1.191807119048     0.822686420433     1.659365572688     1.007825032230
         H            3.618381880952     0.342767420433     1.165380572688     1.007825032230
         H            4.119475880952    -1.175512579567     0.429455572688     1.007825032230
         H           -2.976075119048     1.737964420433    -0.776946427312     1.007825032230
         H           -4.522482119048     1.092311420433    -0.175882427312     1.007825032230
         H           -3.438338119048     1.950835420433     0.928247572688     1.007825032230
         H           -0.441774119048    -0.930592579567    -0.745832427312     1.007825032230
         H            2.011571880952    -1.147411579567    -1.013868427312     1.007825032230
         H            1.252369880952     0.603271420433     1.388673572688     1.007825032230
         H            4.319513880952    -0.032476579567    -1.807204427312     1.007825032230
         H            5.373167880952     0.711752420433    -0.596108427312     1.007825032230
         H            3.849508880952     1.495687420433    -1.052804427312     1.007825032230
         H           -3.712348119048    -1.062531579567    -0.968666427312     1.007825032230

  Basis Set: AUG-CC-PVTZ
    Blend: AUG-CC-PVTZ
  Basis Set: (AUG-CC-PVTZ AUX)
    Blend: AUG-CC-PVTZ-JKFIT
	 Reference Energy          =    -386.0503348353188926 [Eh]
	 Singles Energy            =      -0.0000000000000000 [Eh]
	 Same-Spin Energy          =      -0.4010836760543496 [Eh]
	 Opposite-Spin Energy      =      -1.3799202231105250 [Eh]
	 Correlation Energy        =      -1.7810038991648747 [Eh]
	 Total Energy              =    -387.8313387344837793 [Eh]

	 ================> DF-SCS-MP2 Energies <==================
	-----------------------------------------------------------
	 SCS Same-Spin Scale       =       0.3333333333333333 [-]
	 SCS Opposite-Spin Scale   =       1.2000000000000000 [-]
	 SCS Same-Spin Energy      =      -0.1336945586847832 [Eh]
	 SCS Opposite-Spin Energy  =      -1.6559042677326299 [Eh]
	 SCS Correlation Energy    =      -1.7895988264174130 [Eh]
	 SCS Total Energy          =    -387.8399336617363247 [Eh]
	-----------------------------------------------------------

  Dipole Moment: [D]
     X:    -1.1852      Y:     0.5593      Z:     0.6027     Total:     1.4425

*** Psi4 exiting successfully. Buy a developer a beer!
