                               Psi4 1.3.2 release

  ==> Input File <==

--------------------------------------------------------------------------
#psi4
#
memory 32 gb

molecule  {
0 1
  O       -2.7848290    -0.9154220    -0.7447340
  C       -2.7698910    -0.0438090     0.3861860
  C       -1.3446020     0.1937550     0.7721520
  C        3.5873700    -0.2293000     0.2222030
  C       -3.4755630     1.2700040     0.0649850
  C       -0.2802220    -0.2946410     0.1124460
  C        2.1660230    -0.5131760    -0.1475910
  C        1.1066003    -0.0159322     0.5173561
  C        4.3244450     0.5343730    -0.8803810
  H       -3.2865450    -0.5271910     1.2335890
  H       -1.1970340     0.8260370     1.6487790
  H        3.6131550     0.3461180     1.1547940
  H        4.1142490    -1.1721620     0.4188690
  H       -2.9813020     1.7413150    -0.7875330
  H       -4.5277090     1.0956620    -0.1864690
  H       -3.4435650     1.9541860     0.9176610
  H       -0.4470010    -0.9272420    -0.7564190
  H        2.0252204    -1.1457945    -1.0264379
  H        1.2471430     0.6066220     1.3780870
  H        4.3142870    -0.0291260    -1.8177910
  H        5.3679410     0.7151030    -0.6066950
  H        3.8442820     1.4990380    -1.0633910
  H       -3.7175750    -1.0591810    -0.9792530
units angstrom
no_reorient  #important for SAPT in psi4, default
symmetry c1  #important for SAPT in psi4, default
}

set PROPERTIES_ORIGIN ["COM"]
properties('MP2/aug-cc-pvtz', properties = ['dipole'])
--------------------------------------------------------------------------

    Molecular point group: c1
  Charge       = 0
  Multiplicity = 1
  Basis Set: AUG-CC-PVTZ
    Blend: AUG-CC-PVTZ
  Basis Set: (AUG-CC-PVTZ AUX)
    Blend: AUG-CC-PVTZ-JKFIT

    Orbital Energies [Eh]
    ---------------------

    Doubly Occupied:

       1A    -20.558552     2A    -11.286128     3A    -11.226141
       4A    -11.224120     5A    -11.223097     6A    -11.222226
       7A    -11.221564     8A    -11.220400     9A    -11.212625
      10A     -1.360568    11A     -1.096459    12A     -1.061068
      13A     -1.014729    14A     -0.962280    15A     -0.875356
      16A     -0.828237    17A     -0.754466    18A     -0.747383
      19A     -0.695085    20A     -0.637669    21A     -0.626074
      22A     -0.617412    23A     -0.591140    24A     -0.581385
      25A     -0.546492    26A     -0.543862    27A     -0.529815
      28A     -0.518399    29A     -0.501525    30A     -0.492983
      31A     -0.479617    32A     -0.465224    33A     -0.452411
      34A     -0.416030    35A     -0.298619

  @DF-RHF Final Energy:  -386.06234208408347

   => Energetics <=

    Nuclear Repulsion Energy =            418.0751699506674868
    One-Electron Energy =               -1352.0967462786493343
    Two-Electron Energy =                 547.9592342438983223
    Total Energy =                       -386.0623420840835252
  Basis Set: (AUG-CC-PVTZ AUX)
    Blend: AUG-CC-PVTZ-RI
    Molecular point group: c1

    Geometry (in Angstrom), charge = 0, multiplicity = 1:

       Center              X                  Y                   Z               Mass
    ------------   -----------------  -----------------  -----------------  -----------------
         O           -2.786342907332    -0.916431274170    -0.746164651150    15.994914619570
         C           -2.771404907332    -0.044818274170     0.384755348850    12.000000000000
         C           -1.346115907332     0.192745725830     0.770721348850    12.000000000000
         C            3.585856092668    -0.230309274170     0.220772348850    12.000000000000
         C           -3.477076907332     1.268994725830     0.063554348850    12.000000000000
         C           -0.281735907332    -0.295650274170     0.111015348850    12.000000000000
         C            2.164509092668    -0.514185274170    -0.149021651150    12.000000000000
         C            1.105086392668    -0.016941474170     0.515925448850    12.000000000000
         C            4.322931092668     0.533363725830    -0.881811651150    12.000000000000
         H           -3.288058907332    -0.528200274170     1.232158348850     1.007825032230
         H           -1.198547907332     0.825027725830     1.647348348850     1.007825032230
         H            3.611641092668     0.345108725830     1.153363348850     1.007825032230
         H            4.112735092668    -1.173171274170     0.417438348850     1.007825032230
         H           -2.982815907332     1.740305725830    -0.788963651150     1.007825032230
         H           -4.529222907332     1.094652725830    -0.187899651150     1.007825032230
         H           -3.445078907332     1.953176725830     0.916230348850     1.007825032230
         H           -0.448514907332    -0.928251274170    -0.757849651150     1.007825032230
         H            2.023706492668    -1.146803774170    -1.027868551150     1.007825032230
         H            1.245629092668     0.605612725830     1.376656348850     1.007825032230
         H            4.312773092668    -0.030135274170    -1.819221651150     1.007825032230
         H            5.366427092668     0.714093725830    -0.608125651150     1.007825032230
         H            3.842768092668     1.498028725830    -1.064821651150     1.007825032230
         H           -3.719088907332    -1.060190274170    -0.980683651150     1.007825032230

  Basis Set: AUG-CC-PVTZ
    Blend: AUG-CC-PVTZ
  Basis Set: (AUG-CC-PVTZ AUX)
    Blend: AUG-CC-PVTZ-JKFIT
	 Reference Energy          =    -386.0623420840834683 [Eh]
	 Singles Energy            =      -0.0000000000000000 [Eh]
	 Same-Spin Energy          =      -0.4000617021308109 [Eh]
	 Opposite-Spin Energy      =      -1.3780553053591884 [Eh]
	 Correlation Energy        =      -1.7781170074899992 [Eh]
	 Total Energy              =    -387.8404590915734502 [Eh]

	 ================> DF-SCS-MP2 Energies <==================
	-----------------------------------------------------------
	 SCS Same-Spin Scale       =       0.3333333333333333 [-]
	 SCS Opposite-Spin Scale   =       1.2000000000000000 [-]
	 SCS Same-Spin Energy      =      -0.1333539007102703 [Eh]
	 SCS Opposite-Spin Energy  =      -1.6536663664310260 [Eh]
	 SCS Correlation Energy    =      -1.7870202671412962 [Eh]
	 SCS Total Energy          =    -387.8493623512247837 [Eh]
	-----------------------------------------------------------

  Dipole Moment: [D]
     X:    -1.1478      Y:     0.6406      Z:     0.5821     Total:     1.4376

*** Psi4 exiting successfully. Buy a developer a beer!
