                               Psi4 1.4a3.dev225

  ==> Input File <==

--------------------------------------------------------------------------
#psi4
#
memory 32 gb

molecule  {
0 1
  O       -2.7624640     1.3159430     0.2248240
  C       -2.8209640    -0.0168770    -0.2887760
  C       -1.4666774    -0.4708236    -0.5234624
  C        3.5469730    -0.0618850    -0.4287090
  C       -3.5485140    -0.9406360     0.6857820
  C       -0.3124200     0.2274490    -0.2577540
  C        2.1505970     0.4383770    -0.2221580
  C        1.0342680    -0.2689350    -0.4861660
  C        4.3265940    -0.1505530     0.8872490
  H       -3.3622360    -0.0200820    -1.2509840
  H       -1.3293920    -1.4912640    -0.9473420
  H        3.5136740    -1.0471260    -0.9088000
  H        4.0812660     0.6062640    -1.1173180
  H       -3.0279280    -0.9272120     1.6463760
  H       -4.5820380    -0.6089360     0.8383050
  H       -3.5770120    -1.9680220     0.3103630
  H       -0.4219900     1.2292040     0.1523950
  H        2.0485920     1.4434520     0.1930580
  H        1.1311650    -1.2755230    -0.8987060
  H        4.3778580     0.8269450     1.3761990
  H        5.3504770    -0.4972710     0.7173650
  H        3.8373540    -0.8453320     1.5752720
  H       -3.6799020     1.6047450     0.3678300
units angstrom
no_reorient  #important for SAPT in psi4, default
symmetry c1  #important for SAPT in psi4, default
}

set PROPERTIES_ORIGIN ["COM"]
properties('MP2/aug-cc-pvtz', properties = ['dipole'])
--------------------------------------------------------------------------

    Molecular point group: c1
  Charge       = 0
  Multiplicity = 1
  Basis Set: AUG-CC-PVTZ
    Blend: AUG-CC-PVTZ
  Basis Set: (AUG-CC-PVTZ AUX)
    Blend: AUG-CC-PVTZ-JKFIT

    Orbital Energies [Eh]
    ---------------------

    Doubly Occupied:

       1A    -20.559114     2A    -11.285054     3A    -11.227785
       4A    -11.227520     5A    -11.226089     6A    -11.224926
       7A    -11.224202     8A    -11.221586     9A    -11.213564
      10A     -1.361529    11A     -1.096261    12A     -1.063878
      13A     -1.016780    14A     -0.960466    15A     -0.880899
      16A     -0.829337    17A     -0.752886    18A     -0.744755
      19A     -0.697344    20A     -0.637538    21A     -0.627277
      22A     -0.617861    23A     -0.590860    24A     -0.581066
      25A     -0.546781    26A     -0.540717    27A     -0.529507
      28A     -0.518399    29A     -0.501126    30A     -0.490911
      31A     -0.480473    32A     -0.472729    33A     -0.454287
      34A     -0.414697    35A     -0.293122

  @DF-RHF Final Energy:  -386.05707941369866

   => Energetics <=

    Nuclear Repulsion Energy =            417.9236792870283921
    One-Electron Energy =               -1351.7388652435461154
    Two-Electron Energy =                 547.7581065428190641
    Total Energy =                       -386.0570794136987161
  Basis Set: (AUG-CC-PVTZ AUX)
    Blend: AUG-CC-PVTZ-RI
    Molecular point group: c1

    Geometry (in Angstrom), charge = 0, multiplicity = 1:

       Center              X                  Y                   Z               Mass
    ------------   -----------------  -----------------  -----------------  -----------------
         O           -2.723820702534     1.291135050929     0.240222395263    15.994914619570
         C           -2.782320702534    -0.041684949071    -0.273377604737    12.000000000000
         C           -1.428034102534    -0.495631549071    -0.508064004737    12.000000000000
         C            3.585616297466    -0.086692949071    -0.413310604737    12.000000000000
         C           -3.509870702534    -0.965443949071     0.701180395263    12.000000000000
         C           -0.273776702534     0.202641050929    -0.242355604737    12.000000000000
         C            2.189240297466     0.413569050929    -0.206759604737    12.000000000000
         C            1.072911297466    -0.293742949071    -0.470767604737    12.000000000000
         C            4.365237297466    -0.175360949071     0.902647395263    12.000000000000
         H           -3.323592702534    -0.044889949071    -1.235585604737     1.007825032230
         H           -1.290748702534    -1.516071949071    -0.931943604737     1.007825032230
         H            3.552317297466    -1.071933949071    -0.893401604737     1.007825032230
         H            4.119909297466     0.581456050929    -1.101919604737     1.007825032230
         H           -2.989284702534    -0.952019949071     1.661774395263     1.007825032230
         H           -4.543394702534    -0.633743949071     0.853703395263     1.007825032230
         H           -3.538368702534    -1.992829949071     0.325761395263     1.007825032230
         H           -0.383346702534     1.204396050929     0.167793395263     1.007825032230
         H            2.087235297466     1.418644050929     0.208456395263     1.007825032230
         H            1.169808297466    -1.300330949071    -0.883307604737     1.007825032230
         H            4.416501297466     0.802137050929     1.391597395263     1.007825032230
         H            5.389120297466    -0.522078949071     0.732763395263     1.007825032230
         H            3.875997297466    -0.870139949071     1.590670395263     1.007825032230
         H           -3.641258702534     1.579937050929     0.383228395263     1.007825032230

  Basis Set: AUG-CC-PVTZ
    Blend: AUG-CC-PVTZ
  Basis Set: (AUG-CC-PVTZ AUX)
    Blend: AUG-CC-PVTZ-JKFIT
	 Reference Energy          =    -386.0570794136986592 [Eh]
	 Singles Energy            =      -0.0000000000000000 [Eh]
	 Same-Spin Energy          =      -0.4012295803536875 [Eh]
	 Opposite-Spin Energy      =      -1.3798222612375872 [Eh]
	 Correlation Energy        =      -1.7810518415912746 [Eh]
	 Total Energy              =    -387.8381312552899089 [Eh]

	 ================> DF-SCS-MP2 Energies <==================
	-----------------------------------------------------------
	 SCS Same-Spin Scale       =       0.3333333333333333 [-]
	 SCS Opposite-Spin Scale   =       1.2000000000000000 [-]
	 SCS Same-Spin Energy      =      -0.1337431934512291 [Eh]
	 SCS Opposite-Spin Energy  =      -1.6557867134851045 [Eh]
	 SCS Correlation Energy    =      -1.7895299069363337 [Eh]
	 SCS Total Energy          =    -387.8466093206349683 [Eh]
	-----------------------------------------------------------

  Dipole Moment: [D]
     X:    -1.2049      Y:    -0.7937      Z:    -0.1386     Total:     1.4494

*** Psi4 exiting successfully. Buy a developer a beer!
