                               Psi4 1.3.2 release

  ==> Input File <==

--------------------------------------------------------------------------
#psi4
#
memory 32 gb

molecule  {
0 1
  O       -2.7848290    -0.9154220    -0.7447340
  C       -2.7698910    -0.0438090     0.3861860
  C       -1.3446020     0.1937550     0.7721520
  C        3.5873700    -0.2293000     0.2222030
  C       -3.4755630     1.2700040     0.0649850
  C       -0.2802220    -0.2946410     0.1124460
  C        2.1660230    -0.5131760    -0.1475910
  C        1.0922740    -0.0266840     0.5021560
  C        4.3244450     0.5343730    -0.8803810
  H       -3.2865450    -0.5271910     1.2335890
  H       -1.1970340     0.8260370     1.6487790
  H        3.6131550     0.3461180     1.1547940
  H        4.1142490    -1.1721620     0.4188690
  H       -2.9813020     1.7413150    -0.7875330
  H       -4.5277090     1.0956620    -0.1864690
  H       -3.4435650     1.9541860     0.9176610
  H       -0.4316667    -0.8690784    -0.6765325
  H        2.0063450    -1.1440610    -1.0244550
  H        1.2471430     0.6066220     1.3780870
  H        4.3142870    -0.0291260    -1.8177910
  H        5.3679410     0.7151030    -0.6066950
  H        3.8442820     1.4990380    -1.0633910
  H       -3.7175750    -1.0591810    -0.9792530
units angstrom
no_reorient  #important for SAPT in psi4, default
symmetry c1  #important for SAPT in psi4, default
}

set PROPERTIES_ORIGIN ["COM"]
properties('MP2/aug-cc-pvtz', properties = ['dipole'])
--------------------------------------------------------------------------

    Molecular point group: c1
  Charge       = 0
  Multiplicity = 1
  Basis Set: AUG-CC-PVTZ
    Blend: AUG-CC-PVTZ
  Basis Set: (AUG-CC-PVTZ AUX)
    Blend: AUG-CC-PVTZ-JKFIT

    Orbital Energies [Eh]
    ---------------------

    Doubly Occupied:

       1A    -20.558973     2A    -11.286477     3A    -11.225715
       4A    -11.223162     5A    -11.222642     6A    -11.222490
       7A    -11.220717     8A    -11.212802     9A    -11.211304
      10A     -1.360946    11A     -1.099699    12A     -1.061939
      13A     -1.017234    14A     -0.963080    15A     -0.877803
      16A     -0.829569    17A     -0.760866    18A     -0.752123
      19A     -0.695852    20A     -0.642740    21A     -0.627507
      22A     -0.617890    23A     -0.591448    24A     -0.583171
      25A     -0.547789    26A     -0.544512    27A     -0.527244
      28A     -0.520012    29A     -0.507319    30A     -0.493232
      31A     -0.479053    32A     -0.468414    33A     -0.452951
      34A     -0.418145    35A     -0.297360

  @DF-RHF Final Energy:  -386.05679404770734

   => Energetics <=

    Nuclear Repulsion Energy =            418.7413187248046711
    One-Electron Energy =               -1353.3518602397002724
    Two-Electron Energy =                 548.5537474671883729
    Total Energy =                       -386.0567940477072852
  Basis Set: (AUG-CC-PVTZ AUX)
    Blend: AUG-CC-PVTZ-RI
    Molecular point group: c1

    Geometry (in Angstrom), charge = 0, multiplicity = 1:

       Center              X                  Y                   Z               Mass
    ------------   -----------------  -----------------  -----------------  -----------------
         O           -2.784951327667    -0.915886838228    -0.745372520838    15.994914619570
         C           -2.770013327667    -0.044273838228     0.385547479162    12.000000000000
         C           -1.344724327667     0.193290161772     0.771513479162    12.000000000000
         C            3.587247672333    -0.229764838228     0.221564479162    12.000000000000
         C           -3.475685327667     1.269539161772     0.064346479162    12.000000000000
         C           -0.280344327667    -0.295105838228     0.111807479162    12.000000000000
         C            2.165900672333    -0.513640838228    -0.148229520838    12.000000000000
         C            1.092151672333    -0.027148838228     0.501517479162    12.000000000000
         C            4.324322672333     0.533908161772    -0.881019520838    12.000000000000
         H           -3.286667327667    -0.527655838228     1.232950479162     1.007825032230
         H           -1.197156327667     0.825572161772     1.648140479162     1.007825032230
         H            3.613032672333     0.345653161772     1.154155479162     1.007825032230
         H            4.114126672333    -1.172626838228     0.418230479162     1.007825032230
         H           -2.981424327667     1.740850161772    -0.788171520838     1.007825032230
         H           -4.527831327667     1.095197161772    -0.187107520838     1.007825032230
         H           -3.443687327667     1.953721161772     0.917022479162     1.007825032230
         H           -0.431789027667    -0.869543238228    -0.677171020838     1.007825032230
         H            2.006222672333    -1.144525838228    -1.025093520838     1.007825032230
         H            1.247020672333     0.606157161772     1.377448479162     1.007825032230
         H            4.314164672333    -0.029590838228    -1.818429520838     1.007825032230
         H            5.367818672333     0.714638161772    -0.607333520838     1.007825032230
         H            3.844159672333     1.498573161772    -1.064029520838     1.007825032230
         H           -3.717697327667    -1.059645838228    -0.979891520838     1.007825032230

  Basis Set: AUG-CC-PVTZ
    Blend: AUG-CC-PVTZ
  Basis Set: (AUG-CC-PVTZ AUX)
    Blend: AUG-CC-PVTZ-JKFIT
	 Reference Energy          =    -386.0567940477073421 [Eh]
	 Singles Energy            =      -0.0000000000000000 [Eh]
	 Same-Spin Energy          =      -0.4000428808228857 [Eh]
	 Opposite-Spin Energy      =      -1.3776827305384898 [Eh]
	 Correlation Energy        =      -1.7777256113613755 [Eh]
	 Total Energy              =    -387.8345196590686896 [Eh]

	 ================> DF-SCS-MP2 Energies <==================
	-----------------------------------------------------------
	 SCS Same-Spin Scale       =       0.3333333333333333 [-]
	 SCS Opposite-Spin Scale   =       1.2000000000000000 [-]
	 SCS Same-Spin Energy      =      -0.1333476269409619 [Eh]
	 SCS Opposite-Spin Energy  =      -1.6532192766461877 [Eh]
	 SCS Correlation Energy    =      -1.7865669035871496 [Eh]
	 SCS Total Energy          =    -387.8433609512944713 [Eh]
	-----------------------------------------------------------

  Dipole Moment: [D]
     X:    -1.1657      Y:     0.6397      Z:     0.5749     Total:     1.4487

*** Psi4 exiting successfully. Buy a developer a beer!
