                               Psi4 1.3.2 release

  ==> Input File <==

--------------------------------------------------------------------------
#psi4
#
memory 32 gb

molecule  {
0 1
  O       -2.7848290    -0.9154220    -0.7447340
  C       -2.7200944    -0.0459010     0.3860423
  C       -1.3446020     0.1937550     0.7721520
  C        3.5873700    -0.2293000     0.2222030
  C       -3.4755630     1.2700040     0.0649850
  C       -0.2802220    -0.2946410     0.1124460
  C        2.1660230    -0.5131760    -0.1475910
  C        1.0922740    -0.0266840     0.5021560
  C        4.3244450     0.5343730    -0.8803810
  H       -3.2865450    -0.5271910     1.2335890
  H       -1.1970340     0.8260370     1.6487790
  H        3.6131550     0.3461180     1.1547940
  H        4.1142490    -1.1721620     0.4188690
  H       -2.9813020     1.7413150    -0.7875330
  H       -4.5277090     1.0956620    -0.1864690
  H       -3.4435650     1.9541860     0.9176610
  H       -0.4470010    -0.9272420    -0.7564190
  H        2.0063450    -1.1440610    -1.0244550
  H        1.2471430     0.6066220     1.3780870
  H        4.3142870    -0.0291260    -1.8177910
  H        5.3679410     0.7151030    -0.6066950
  H        3.8442820     1.4990380    -1.0633910
  H       -3.7074665    -1.0792213    -1.0047161
units angstrom
no_reorient  #important for SAPT in psi4, default
symmetry c1  #important for SAPT in psi4, default
}

set PROPERTIES_ORIGIN ["COM"]
properties('MP2/aug-cc-pvtz', properties = ['dipole'])
--------------------------------------------------------------------------

    Molecular point group: c1
  Charge       = 0
  Multiplicity = 1
  Basis Set: AUG-CC-PVTZ
    Blend: AUG-CC-PVTZ
  Basis Set: (AUG-CC-PVTZ AUX)
    Blend: AUG-CC-PVTZ-JKFIT

    Orbital Energies [Eh]
    ---------------------

    Doubly Occupied:

       1A    -20.556266     2A    -11.287582     3A    -11.226669
       4A    -11.224246     5A    -11.223705     6A    -11.223392
       7A    -11.221232     8A    -11.220590     9A    -11.213262
      10A     -1.357879    11A     -1.100306    12A     -1.064935
      13A     -1.014328    14A     -0.961880    15A     -0.880113
      16A     -0.829072    17A     -0.752588    18A     -0.751412
      19A     -0.692072    20A     -0.640609    21A     -0.627196
      22A     -0.613535    23A     -0.591092    24A     -0.584244
      25A     -0.545246    26A     -0.540384    27A     -0.529739
      28A     -0.520009    29A     -0.503904    30A     -0.489853
      31A     -0.479956    32A     -0.471580    33A     -0.449573
      34A     -0.415422    35A     -0.297009

  @DF-RHF Final Energy:  -386.05958106917041

   => Energetics <=

    Nuclear Repulsion Energy =            418.6794194697976650
    One-Electron Energy =               -1353.2762418081847500
    Two-Electron Energy =                 548.5372412692165653
    Total Energy =                       -386.0595810691704628
  Basis Set: (AUG-CC-PVTZ AUX)
    Blend: AUG-CC-PVTZ-RI
    Molecular point group: c1

    Geometry (in Angstrom), charge = 0, multiplicity = 1:

       Center              X                  Y                   Z               Mass
    ------------   -----------------  -----------------  -----------------  -----------------
         O           -2.789648167764    -0.915062760761    -0.744516894006    15.994914619570
         C           -2.724913567764    -0.045541760761     0.386259405994    12.000000000000
         C           -1.349421167764     0.194114239239     0.772369105994    12.000000000000
         C            3.582550832236    -0.228940760761     0.222420105994    12.000000000000
         C           -3.480382167764     1.270363239239     0.065202105994    12.000000000000
         C           -0.285041167764    -0.294281760761     0.112663105994    12.000000000000
         C            2.161203832236    -0.512816760761    -0.147373894006    12.000000000000
         C            1.087454832236    -0.026324760761     0.502373105994    12.000000000000
         C            4.319625832236     0.534732239239    -0.880163894006    12.000000000000
         H           -3.291364167764    -0.526831760761     1.233806105994     1.007825032230
         H           -1.201853167764     0.826396239239     1.648996105994     1.007825032230
         H            3.608335832236     0.346477239239     1.155011105994     1.007825032230
         H            4.109429832236    -1.171802760761     0.419086105994     1.007825032230
         H           -2.986121167764     1.741674239239    -0.787315894006     1.007825032230
         H           -4.532528167764     1.096021239239    -0.186251894006     1.007825032230
         H           -3.448384167764     1.954545239239     0.917878105994     1.007825032230
         H           -0.451820167764    -0.926882760761    -0.756201894006     1.007825032230
         H            2.001525832236    -1.143701760761    -1.024237894006     1.007825032230
         H            1.242323832236     0.606981239239     1.378304105994     1.007825032230
         H            4.309467832236    -0.028766760761    -1.817573894006     1.007825032230
         H            5.363121832236     0.715462239239    -0.606477894006     1.007825032230
         H            3.839462832236     1.499397239239    -1.063173894006     1.007825032230
         H           -3.712285667764    -1.078862060761    -1.004498994006     1.007825032230

  Basis Set: AUG-CC-PVTZ
    Blend: AUG-CC-PVTZ
  Basis Set: (AUG-CC-PVTZ AUX)
    Blend: AUG-CC-PVTZ-JKFIT
	 Reference Energy          =    -386.0595810691704060 [Eh]
	 Singles Energy            =      -0.0000000000000000 [Eh]
	 Same-Spin Energy          =      -0.4006092310915212 [Eh]
	 Opposite-Spin Energy      =      -1.3783387760394619 [Eh]
	 Correlation Energy        =      -1.7789480071309831 [Eh]
	 Total Energy              =    -387.8385290763013700 [Eh]

	 ================> DF-SCS-MP2 Energies <==================
	-----------------------------------------------------------
	 SCS Same-Spin Scale       =       0.3333333333333333 [-]
	 SCS Opposite-Spin Scale   =       1.2000000000000000 [-]
	 SCS Same-Spin Energy      =      -0.1335364103638404 [Eh]
	 SCS Opposite-Spin Energy  =      -1.6540065312473542 [Eh]
	 SCS Correlation Energy    =      -1.7875429416111945 [Eh]
	 SCS Total Energy          =    -387.8471240107816129 [Eh]
	-----------------------------------------------------------

  Dipole Moment: [D]
     X:    -1.0746      Y:     0.6040      Z:     0.5509     Total:     1.3502

*** Psi4 exiting successfully. Buy a developer a beer!
