                               Psi4 1.3.2 release

  ==> Input File <==

--------------------------------------------------------------------------
#psi4
#
memory 32 gb

molecule  {
0 1
  O       -2.7848290    -0.9154220    -0.7447340
  C       -2.7698910    -0.0438090     0.3861860
  C       -1.3446020     0.1937550     0.7721520
  C        3.5873700    -0.2293000     0.2222030
  C       -3.4755630     1.2700040     0.0649850
  C       -0.2802220    -0.2946410     0.1124460
  C        2.1697875    -0.5010844    -0.1704209
  C        1.0922740    -0.0266840     0.5021560
  C        4.3021561     0.5341692    -0.8950987
  H       -3.2865450    -0.5271910     1.2335890
  H       -1.1970340     0.8260370     1.6487790
  H        3.6131550     0.3461180     1.1547940
  H        4.1142490    -1.1721620     0.4188690
  H       -2.9813020     1.7413150    -0.7875330
  H       -4.5277090     1.0956620    -0.1864690
  H       -3.4435650     1.9541860     0.9176610
  H       -0.4470010    -0.9272420    -0.7564190
  H        2.0063450    -1.1440610    -1.0244550
  H        1.2471430     0.6066220     1.3780870
  H        4.3142870    -0.0291260    -1.8177910
  H        5.3679410     0.7151030    -0.6066950
  H        3.8442820     1.4990380    -1.0633910
  H       -3.7175750    -1.0591810    -0.9792530
units angstrom
no_reorient  #important for SAPT in psi4, default
symmetry c1  #important for SAPT in psi4, default
}

set PROPERTIES_ORIGIN ["COM"]
properties('MP2/aug-cc-pvtz', properties = ['dipole'])
--------------------------------------------------------------------------

    Molecular point group: c1
  Charge       = 0
  Multiplicity = 1
  Basis Set: AUG-CC-PVTZ
    Blend: AUG-CC-PVTZ
  Basis Set: (AUG-CC-PVTZ AUX)
    Blend: AUG-CC-PVTZ-JKFIT

    Orbital Energies [Eh]
    ---------------------

    Doubly Occupied:

       1A    -20.558612     2A    -11.286290     3A    -11.226276
       4A    -11.224257     5A    -11.223402     6A    -11.223102
       7A    -11.221519     8A    -11.220490     9A    -11.212570
      10A     -1.360643    11A     -1.097065    12A     -1.061471
      13A     -1.015834    14A     -0.961114    15A     -0.876215
      16A     -0.827962    17A     -0.754752    18A     -0.747728
      19A     -0.695028    20A     -0.637397    21A     -0.627969
      22A     -0.617550    23A     -0.589203    24A     -0.582978
      25A     -0.546539    26A     -0.542823    27A     -0.528029
      28A     -0.519183    29A     -0.498926    30A     -0.492891
      31A     -0.482925    32A     -0.466393    33A     -0.452574
      34A     -0.417109    35A     -0.295781

  @DF-RHF Final Energy:  -386.06089986851612

   => Energetics <=

    Nuclear Repulsion Energy =            418.3334789223567896
    One-Electron Energy =               -1352.6035630807743928
    Two-Electron Energy =                 548.2091842899014864
    Total Energy =                       -386.0608998685161168
  Basis Set: (AUG-CC-PVTZ AUX)
    Blend: AUG-CC-PVTZ-RI
    Molecular point group: c1

    Geometry (in Angstrom), charge = 0, multiplicity = 1:

       Center              X                  Y                   Z               Mass
    ------------   -----------------  -----------------  -----------------  -----------------
         O           -2.783066009084    -0.916553229127    -0.741161069529    15.994914619570
         C           -2.768128009084    -0.044940229127     0.389758930471    12.000000000000
         C           -1.342839009084     0.192623770873     0.775724930471    12.000000000000
         C            3.589132990916    -0.230431229127     0.225775930471    12.000000000000
         C           -3.473800009084     1.268872770873     0.068557930471    12.000000000000
         C           -0.278459009084    -0.295772229127     0.116018930471    12.000000000000
         C            2.171550490916    -0.502215629127    -0.166847969529    12.000000000000
         C            1.094036990916    -0.027815229127     0.505728930471    12.000000000000
         C            4.303919090916     0.533037970873    -0.891525769529    12.000000000000
         H           -3.284782009084    -0.528322229127     1.237161930471     1.007825032230
         H           -1.195271009084     0.824905770873     1.652351930471     1.007825032230
         H            3.614917990916     0.344986770873     1.158366930471     1.007825032230
         H            4.116011990916    -1.173293229127     0.422441930471     1.007825032230
         H           -2.979539009084     1.740183770873    -0.783960069529     1.007825032230
         H           -4.525946009084     1.094530770873    -0.182896069529     1.007825032230
         H           -3.441802009084     1.953054770873     0.921233930471     1.007825032230
         H           -0.445238009084    -0.928373229127    -0.752846069529     1.007825032230
         H            2.008107990916    -1.145192229127    -1.020882069529     1.007825032230
         H            1.248905990916     0.605490770873     1.381659930471     1.007825032230
         H            4.316049990916    -0.030257229127    -1.814218069529     1.007825032230
         H            5.369703990916     0.713971770873    -0.603122069529     1.007825032230
         H            3.846044990916     1.497906770873    -1.059818069529     1.007825032230
         H           -3.715812009084    -1.060312229127    -0.975680069529     1.007825032230

  Basis Set: AUG-CC-PVTZ
    Blend: AUG-CC-PVTZ
  Basis Set: (AUG-CC-PVTZ AUX)
    Blend: AUG-CC-PVTZ-JKFIT
	 Reference Energy          =    -386.0608998685161168 [Eh]
	 Singles Energy            =      -0.0000000000000000 [Eh]
	 Same-Spin Energy          =      -0.4005168730549787 [Eh]
	 Opposite-Spin Energy      =      -1.3786655354024941 [Eh]
	 Correlation Energy        =      -1.7791824084574728 [Eh]
	 Total Energy              =    -387.8400822769735896 [Eh]

	 ================> DF-SCS-MP2 Energies <==================
	-----------------------------------------------------------
	 SCS Same-Spin Scale       =       0.3333333333333333 [-]
	 SCS Opposite-Spin Scale   =       1.2000000000000000 [-]
	 SCS Same-Spin Energy      =      -0.1335056243516596 [Eh]
	 SCS Opposite-Spin Energy  =      -1.6543986424829928 [Eh]
	 SCS Correlation Energy    =      -1.7879042668346523 [Eh]
	 SCS Total Energy          =    -387.8488041353507469 [Eh]
	-----------------------------------------------------------

  Dipole Moment: [D]
     X:    -1.1587      Y:     0.6142      Z:     0.5827     Total:     1.4351

*** Psi4 exiting successfully. Buy a developer a beer!
