                               Psi4 1.3.2 release

  ==> Input File <==

--------------------------------------------------------------------------
#psi4
#
memory 32 gb

molecule  {
0 1
  O       -2.7599739    -0.9492639    -0.7178817
  C       -2.7698910    -0.0438090     0.3861860
  C       -1.3446020     0.1937550     0.7721520
  C        3.5873700    -0.2293000     0.2222030
  C       -3.4652127     1.2865930     0.1145135
  C       -0.2802220    -0.2946410     0.1124460
  C        2.1660230    -0.5131760    -0.1475910
  C        1.0922740    -0.0266840     0.5021560
  C        4.3244450     0.5343730    -0.8803810
  H       -3.2865450    -0.5271910     1.2335890
  H       -1.1970340     0.8260370     1.6487790
  H        3.6131550     0.3461180     1.1547940
  H        4.1142490    -1.1721620     0.4188690
  H       -2.9813020     1.7413150    -0.7875330
  H       -4.5277090     1.0956620    -0.1864690
  H       -3.4435650     1.9541860     0.9176610
  H       -0.4470010    -0.9272420    -0.7564190
  H        2.0063450    -1.1440610    -1.0244550
  H        1.2471430     0.6066220     1.3780870
  H        4.3142870    -0.0291260    -1.8177910
  H        5.3679410     0.7151030    -0.6066950
  H        3.8442820     1.4990380    -1.0633910
  H       -3.7175750    -1.0591810    -0.9792530
units angstrom
no_reorient  #important for SAPT in psi4, default
symmetry c1  #important for SAPT in psi4, default
}

set PROPERTIES_ORIGIN ["COM"]
properties('MP2/aug-cc-pvtz', properties = ['dipole'])
--------------------------------------------------------------------------

    Molecular point group: c1
  Charge       = 0
  Multiplicity = 1
  Basis Set: AUG-CC-PVTZ
    Blend: AUG-CC-PVTZ
  Basis Set: (AUG-CC-PVTZ AUX)
    Blend: AUG-CC-PVTZ-JKFIT

    Orbital Energies [Eh]
    ---------------------

    Doubly Occupied:

       1A    -20.564209     2A    -11.286537     3A    -11.225223
       4A    -11.223255     5A    -11.222904     6A    -11.222685
       7A    -11.222201     8A    -11.220695     9A    -11.212542
      10A     -1.357573    11A     -1.097104    12A     -1.061035
      13A     -1.016752    14A     -0.962425    15A     -0.875917
      16A     -0.827931    17A     -0.752032    18A     -0.745871
      19A     -0.691495    20A     -0.638226    21A     -0.626093
      22A     -0.623063    23A     -0.589706    24A     -0.581716
      25A     -0.547244    26A     -0.537784    27A     -0.531619
      28A     -0.518158    29A     -0.500291    30A     -0.492706
      31A     -0.478610    32A     -0.466736    33A     -0.452153
      34A     -0.417543    35A     -0.296578

  @DF-RHF Final Energy:  -386.05582556573285

   => Energetics <=

    Nuclear Repulsion Energy =            418.2282615902637417
    One-Electron Energy =               -1352.3949472434580912
    Two-Electron Energy =                 548.1108600874615604
    Total Energy =                       -386.0558255657327891
  Basis Set: (AUG-CC-PVTZ AUX)
    Blend: AUG-CC-PVTZ-RI
    Molecular point group: c1

    Geometry (in Angstrom), charge = 0, multiplicity = 1:

       Center              X                  Y                   Z               Mass
    ------------   -----------------  -----------------  -----------------  -----------------
         O           -2.764111188681    -0.946550032122    -0.726000769849    15.994914619570
         C           -2.774028288681    -0.041095132122     0.378066930151    12.000000000000
         C           -1.348739288681     0.196468867878     0.764032930151    12.000000000000
         C            3.583232711319    -0.226586132122     0.214083930151    12.000000000000
         C           -3.469349988681     1.289306867878     0.106394430151    12.000000000000
         C           -0.284359288681    -0.291927132122     0.104326930151    12.000000000000
         C            2.161885711319    -0.510462132122    -0.155710069849    12.000000000000
         C            1.088136711319    -0.023970132122     0.494036930151    12.000000000000
         C            4.320307711319     0.537086867878    -0.888500069849    12.000000000000
         H           -3.290682288681    -0.524477132122     1.225469930151     1.007825032230
         H           -1.201171288681     0.828750867878     1.640659930151     1.007825032230
         H            3.609017711319     0.348831867878     1.146674930151     1.007825032230
         H            4.110111711319    -1.169448132122     0.410749930151     1.007825032230
         H           -2.985439288681     1.744028867878    -0.795652069849     1.007825032230
         H           -4.531846288681     1.098375867878    -0.194588069849     1.007825032230
         H           -3.447702288681     1.956899867878     0.909541930151     1.007825032230
         H           -0.451138288681    -0.924528132122    -0.764538069849     1.007825032230
         H            2.002207711319    -1.141347132122    -1.032574069849     1.007825032230
         H            1.243005711319     0.609335867878     1.369967930151     1.007825032230
         H            4.310149711319    -0.026412132122    -1.825910069849     1.007825032230
         H            5.363803711319     0.717816867878    -0.614814069849     1.007825032230
         H            3.840144711319     1.501751867878    -1.071510069849     1.007825032230
         H           -3.721712288681    -1.056467132122    -0.987372069849     1.007825032230

  Basis Set: AUG-CC-PVTZ
    Blend: AUG-CC-PVTZ
  Basis Set: (AUG-CC-PVTZ AUX)
    Blend: AUG-CC-PVTZ-JKFIT
	 Reference Energy          =    -386.0558255657328459 [Eh]
	 Singles Energy            =      -0.0000000000000000 [Eh]
	 Same-Spin Energy          =      -0.4009190298094980 [Eh]
	 Opposite-Spin Energy      =      -1.3796322780349595 [Eh]
	 Correlation Energy        =      -1.7805513078444575 [Eh]
	 Total Energy              =    -387.8363768735773078 [Eh]

	 ================> DF-SCS-MP2 Energies <==================
	-----------------------------------------------------------
	 SCS Same-Spin Scale       =       0.3333333333333333 [-]
	 SCS Opposite-Spin Scale   =       1.2000000000000000 [-]
	 SCS Same-Spin Energy      =      -0.1336396766031660 [Eh]
	 SCS Opposite-Spin Energy  =      -1.6555587336419513 [Eh]
	 SCS Correlation Energy    =      -1.7891984102451173 [Eh]
	 SCS Total Energy          =    -387.8450239759779379 [Eh]
	-----------------------------------------------------------

  Dipole Moment: [D]
     X:    -1.2340      Y:     0.7222      Z:     0.5264     Total:     1.5237

*** Psi4 exiting successfully. Buy a developer a beer!
