                               Psi4 1.3.2 release

  ==> Input File <==

--------------------------------------------------------------------------
#psi4
#
memory 32 gb

molecule  {
0 1
  O       -2.7785908    -0.9068849    -0.7513274
  C       -2.7698910    -0.0438090     0.3861860
  C       -1.3446020     0.1937550     0.7721520
  C        3.5873700    -0.2293000     0.2222030
  C       -3.4755630     1.2700040     0.0649850
  C       -0.2802220    -0.2946410     0.1124460
  C        2.1660230    -0.5131760    -0.1475910
  C        1.0922740    -0.0266840     0.5021560
  C        4.3244450     0.5343730    -0.8803810
  H       -3.2848111    -0.5194259     1.2390208
  H       -1.1970340     0.8260370     1.6487790
  H        3.6131550     0.3461180     1.1547940
  H        4.1142490    -1.1721620     0.4188690
  H       -2.9813020     1.7413150    -0.7875330
  H       -4.5277090     1.0956620    -0.1864690
  H       -3.4435650     1.9541860     0.9176610
  H       -0.4470010    -0.9272420    -0.7564190
  H        2.0063450    -1.1440610    -1.0244550
  H        1.2471430     0.6066220     1.3780870
  H        4.3142870    -0.0291260    -1.8177910
  H        5.3679410     0.7151030    -0.6066950
  H        3.8442820     1.4990380    -1.0633910
  H       -3.7175750    -1.0591810    -0.9792530
units angstrom
no_reorient  #important for SAPT in psi4, default
symmetry c1  #important for SAPT in psi4, default
}

set PROPERTIES_ORIGIN ["COM"]
properties('MP2/aug-cc-pvtz', properties = ['dipole'])
--------------------------------------------------------------------------

    Molecular point group: c1
  Charge       = 0
  Multiplicity = 1
  Basis Set: AUG-CC-PVTZ
    Blend: AUG-CC-PVTZ
  Basis Set: (AUG-CC-PVTZ AUX)
    Blend: AUG-CC-PVTZ-JKFIT

    Orbital Energies [Eh]
    ---------------------

    Doubly Occupied:

       1A    -20.559812     2A    -11.286478     3A    -11.225815
       4A    -11.223510     5A    -11.223156     6A    -11.222879
       7A    -11.221589     8A    -11.220362     9A    -11.212812
      10A     -1.360080    11A     -1.097670    12A     -1.061121
      13A     -1.016012    14A     -0.962387    15A     -0.876475
      16A     -0.828375    17A     -0.752280    18A     -0.747443
      19A     -0.695407    20A     -0.637285    21A     -0.627355
      22A     -0.616629    23A     -0.590170    24A     -0.582593
      25A     -0.546478    26A     -0.543351    27A     -0.527343
      28A     -0.518869    29A     -0.500598    30A     -0.492569
      31A     -0.479058    32A     -0.467791    33A     -0.453031
      34A     -0.418198    35A     -0.297345

  @DF-RHF Final Energy:  -386.06199329408969

   => Energetics <=

    Nuclear Repulsion Energy =            418.3291471415016645
    One-Electron Energy =               -1352.5976301763469110
    Two-Electron Energy =                 548.2064897407556145
    Total Energy =                       -386.0619932940896888
  Basis Set: (AUG-CC-PVTZ AUX)
    Blend: AUG-CC-PVTZ-RI
    Molecular point group: c1

    Geometry (in Angstrom), charge = 0, multiplicity = 1:

       Center              X                  Y                   Z               Mass
    ------------   -----------------  -----------------  -----------------  -----------------
         O           -2.779395678065    -0.908029788023    -0.750534582302    15.994914619570
         C           -2.770695878065    -0.044953888023     0.386978817698    12.000000000000
         C           -1.345406878065     0.192610111977     0.772944817698    12.000000000000
         C            3.586565121935    -0.230444888023     0.222995817698    12.000000000000
         C           -3.476367878065     1.268859111977     0.065777817698    12.000000000000
         C           -0.281026878065    -0.295785888023     0.113238817698    12.000000000000
         C            2.165218121935    -0.514320888023    -0.146798182302    12.000000000000
         C            1.091469121935    -0.027828888023     0.502948817698    12.000000000000
         C            4.323640121935     0.533228111977    -0.879588182302    12.000000000000
         H           -3.285615978065    -0.520570788023     1.239813617698     1.007825032230
         H           -1.197838878065     0.824892111977     1.649571817698     1.007825032230
         H            3.612350121935     0.344973111977     1.155586817698     1.007825032230
         H            4.113444121935    -1.173306888023     0.419661817698     1.007825032230
         H           -2.982106878065     1.740170111977    -0.786740182302     1.007825032230
         H           -4.528513878065     1.094517111977    -0.185676182302     1.007825032230
         H           -3.444369878065     1.953041111977     0.918453817698     1.007825032230
         H           -0.447805878065    -0.928386888023    -0.755626182302     1.007825032230
         H            2.005540121935    -1.145205888023    -1.023662182302     1.007825032230
         H            1.246338121935     0.605477111977     1.378879817698     1.007825032230
         H            4.313482121935    -0.030270888023    -1.816998182302     1.007825032230
         H            5.367136121935     0.713958111977    -0.605902182302     1.007825032230
         H            3.843477121935     1.497893111977    -1.062598182302     1.007825032230
         H           -3.718379878065    -1.060325888023    -0.978460182302     1.007825032230

  Basis Set: AUG-CC-PVTZ
    Blend: AUG-CC-PVTZ
  Basis Set: (AUG-CC-PVTZ AUX)
    Blend: AUG-CC-PVTZ-JKFIT
	 Reference Energy          =    -386.0619932940896888 [Eh]
	 Singles Energy            =      -0.0000000000000000 [Eh]
	 Same-Spin Energy          =      -0.4004696797916532 [Eh]
	 Opposite-Spin Energy      =      -1.3785648363959653 [Eh]
	 Correlation Energy        =      -1.7790345161876184 [Eh]
	 Total Energy              =    -387.8410278102772963 [Eh]

	 ================> DF-SCS-MP2 Energies <==================
	-----------------------------------------------------------
	 SCS Same-Spin Scale       =       0.3333333333333333 [-]
	 SCS Opposite-Spin Scale   =       1.2000000000000000 [-]
	 SCS Same-Spin Energy      =      -0.1334898932638844 [Eh]
	 SCS Opposite-Spin Energy  =      -1.6542778036751582 [Eh]
	 SCS Correlation Energy    =      -1.7877676969390426 [Eh]
	 SCS Total Energy          =    -387.8497609910287451 [Eh]
	-----------------------------------------------------------

  Dipole Moment: [D]
     X:    -1.1739      Y:     0.6181      Z:     0.5880     Total:     1.4511

*** Psi4 exiting successfully. Buy a developer a beer!
