                               Psi4 1.3.2 release

  ==> Input File <==

--------------------------------------------------------------------------
#psi4
#
memory 32 gb

molecule  {
0 1
  O       -2.7848290    -0.9154220    -0.7447340
  C       -2.7698910    -0.0438090     0.3861860
  C       -1.3446020     0.1937550     0.7721520
  C        3.5873700    -0.2293000     0.2222030
  C       -3.4755630     1.2700040     0.0649850
  C       -0.2802220    -0.2946410     0.1124460
  C        2.1660230    -0.5131760    -0.1475910
  C        1.0922740    -0.0266840     0.5021560
  C        4.3244450     0.5343730    -0.8803810
  H       -3.2865450    -0.5271910     1.2335890
  H       -1.2105614     0.7680766     1.5684198
  H        3.6131550     0.3461180     1.1547940
  H        4.1142490    -1.1721620     0.4188690
  H       -2.9813020     1.7413150    -0.7875330
  H       -4.5277090     1.0956620    -0.1864690
  H       -3.4435650     1.9541860     0.9176610
  H       -0.4470010    -0.9272420    -0.7564190
  H        2.0063450    -1.1440610    -1.0244550
  H        1.2471430     0.6066220     1.3780870
  H        4.3142870    -0.0291260    -1.8177910
  H        5.3679410     0.7151030    -0.6066950
  H        3.8442820     1.4990380    -1.0633910
  H       -3.7175750    -1.0591810    -0.9792530
units angstrom
no_reorient  #important for SAPT in psi4, default
symmetry c1  #important for SAPT in psi4, default
}

set PROPERTIES_ORIGIN ["COM"]
properties('MP2/aug-cc-pvtz', properties = ['dipole'])
--------------------------------------------------------------------------

    Molecular point group: c1
  Charge       = 0
  Multiplicity = 1
  Basis Set: AUG-CC-PVTZ
    Blend: AUG-CC-PVTZ
  Basis Set: (AUG-CC-PVTZ AUX)
    Blend: AUG-CC-PVTZ-JKFIT

    Orbital Energies [Eh]
    ---------------------

    Doubly Occupied:

       1A    -20.557965     2A    -11.285358     3A    -11.225915
       4A    -11.223326     5A    -11.223098     6A    -11.221760
       7A    -11.220623     8A    -11.212867     9A    -11.210243
      10A     -1.359970    11A     -1.098969    12A     -1.063233
      13A     -1.015932    14A     -0.963905    15A     -0.877338
      16A     -0.828439    17A     -0.763360    18A     -0.751830
      19A     -0.694939    20A     -0.637024    21A     -0.628890
      22A     -0.616959    23A     -0.593241    24A     -0.585010
      25A     -0.550027    26A     -0.544174    27A     -0.527674
      28A     -0.519593    29A     -0.503149    30A     -0.491972
      31A     -0.479135    32A     -0.468186    33A     -0.452280
      34A     -0.417925    35A     -0.297098

  @DF-RHF Final Energy:  -386.05678881092024

   => Energetics <=

    Nuclear Repulsion Energy =            418.7846254068719531
    One-Electron Energy =               -1353.4600093508765895
    Two-Electron Energy =                 548.6185951330843409
    Total Energy =                       -386.0567888109202386
  Basis Set: (AUG-CC-PVTZ AUX)
    Blend: AUG-CC-PVTZ-RI
    Molecular point group: c1

    Geometry (in Angstrom), charge = 0, multiplicity = 1:

       Center              X                  Y                   Z               Mass
    ------------   -----------------  -----------------  -----------------  -----------------
         O           -2.784720665385    -0.914958776926    -0.744091839558    15.994914619570
         C           -2.769782665385    -0.043345776926     0.386828160442    12.000000000000
         C           -1.344493665385     0.194218223074     0.772794160442    12.000000000000
         C            3.587478334615    -0.228836776926     0.222845160442    12.000000000000
         C           -3.475454665385     1.270467223074     0.065627160442    12.000000000000
         C           -0.280113665385    -0.294177776926     0.113088160442    12.000000000000
         C            2.166131334615    -0.512712776926    -0.146948839558    12.000000000000
         C            1.092382334615    -0.026220776926     0.502798160442    12.000000000000
         C            4.324553334615     0.534836223074    -0.879738839558    12.000000000000
         H           -3.286436665385    -0.526727776926     1.234231160442     1.007825032230
         H           -1.210453065385     0.768539823074     1.569061960442     1.007825032230
         H            3.613263334615     0.346581223074     1.155436160442     1.007825032230
         H            4.114357334615    -1.171698776926     0.419511160442     1.007825032230
         H           -2.981193665385     1.741778223074    -0.786890839558     1.007825032230
         H           -4.527600665385     1.096125223074    -0.185826839558     1.007825032230
         H           -3.443456665385     1.954649223074     0.918303160442     1.007825032230
         H           -0.446892665385    -0.926778776926    -0.755776839558     1.007825032230
         H            2.006453334615    -1.143597776926    -1.023812839558     1.007825032230
         H            1.247251334615     0.607085223074     1.378729160442     1.007825032230
         H            4.314395334615    -0.028662776926    -1.817148839558     1.007825032230
         H            5.368049334615     0.715566223074    -0.606052839558     1.007825032230
         H            3.844390334615     1.499501223074    -1.062748839558     1.007825032230
         H           -3.717466665385    -1.058717776926    -0.978610839558     1.007825032230

  Basis Set: AUG-CC-PVTZ
    Blend: AUG-CC-PVTZ
  Basis Set: (AUG-CC-PVTZ AUX)
    Blend: AUG-CC-PVTZ-JKFIT
	 Reference Energy          =    -386.0567888109202386 [Eh]
	 Singles Energy            =      -0.0000000000000000 [Eh]
	 Same-Spin Energy          =      -0.4001936910559800 [Eh]
	 Opposite-Spin Energy      =      -1.3777533391230303 [Eh]
	 Correlation Energy        =      -1.7779470301790103 [Eh]
	 Total Energy              =    -387.8347358410992456 [Eh]

	 ================> DF-SCS-MP2 Energies <==================
	-----------------------------------------------------------
	 SCS Same-Spin Scale       =       0.3333333333333333 [-]
	 SCS Opposite-Spin Scale   =       1.2000000000000000 [-]
	 SCS Same-Spin Energy      =      -0.1333978970186600 [Eh]
	 SCS Opposite-Spin Energy  =      -1.6533040069476364 [Eh]
	 SCS Correlation Energy    =      -1.7867019039662964 [Eh]
	 SCS Total Energy          =    -387.8434907148865136 [Eh]
	-----------------------------------------------------------

  Dipole Moment: [D]
     X:    -1.1475      Y:     0.6630      Z:     0.6079     Total:     1.4580

*** Psi4 exiting successfully. Buy a developer a beer!
