                               Psi4 1.3.2 release

  ==> Input File <==

--------------------------------------------------------------------------
#psi4
#
memory 32 gb

molecule  {
0 1
  O       -2.7848290    -0.9154220    -0.7447340
  C       -2.7698910    -0.0438090     0.3861860
  C       -1.3446020     0.1937550     0.7721520
  C        3.5873700    -0.2293000     0.2222030
  C       -3.4755630     1.2700040     0.0649850
  C       -0.3030823    -0.2517586     0.1708823
  C        2.2070269    -0.4797254    -0.1010538
  C        1.0922740    -0.0266840     0.5021560
  C        4.3244450     0.5343730    -0.8803810
  H       -3.2865450    -0.5271910     1.2335890
  H       -1.1970340     0.8260370     1.6487790
  H        3.6131550     0.3461180     1.1547940
  H        4.1142490    -1.1721620     0.4188690
  H       -2.9813020     1.7413150    -0.7875330
  H       -4.5277090     1.0956620    -0.1864690
  H       -3.4435650     1.9541860     0.9176610
  H       -0.4470010    -0.9272420    -0.7564190
  H        2.0063450    -1.1440610    -1.0244550
  H        1.2471430     0.6066220     1.3780870
  H        4.3142870    -0.0291260    -1.8177910
  H        5.3679410     0.7151030    -0.6066950
  H        3.8442820     1.4990380    -1.0633910
  H       -3.7175750    -1.0591810    -0.9792530
units angstrom
no_reorient  #important for SAPT in psi4, default
symmetry c1  #important for SAPT in psi4, default
}

set PROPERTIES_ORIGIN ["COM"]
properties('MP2/aug-cc-pvtz', properties = ['dipole'])
--------------------------------------------------------------------------

    Molecular point group: c1
  Charge       = 0
  Multiplicity = 1
  Basis Set: AUG-CC-PVTZ
    Blend: AUG-CC-PVTZ
  Basis Set: (AUG-CC-PVTZ AUX)
    Blend: AUG-CC-PVTZ-JKFIT

    Orbital Energies [Eh]
    ---------------------

    Doubly Occupied:

       1A    -20.558876     2A    -11.288032     3A    -11.230926
       4A    -11.223631     5A    -11.222370     6A    -11.221456
       7A    -11.220651     8A    -11.215355     9A    -11.214897
      10A     -1.361058    11A     -1.104580    12A     -1.072244
      13A     -1.017822    14A     -0.968470    15A     -0.881078
      16A     -0.835940    17A     -0.749659    18A     -0.737760
      19A     -0.694082    20A     -0.639380    21A     -0.632445
      22A     -0.618097    23A     -0.598842    24A     -0.583391
      25A     -0.546216    26A     -0.540368    27A     -0.527006
      28A     -0.522395    29A     -0.501293    30A     -0.491454
      31A     -0.472238    32A     -0.456587    33A     -0.454947
      34A     -0.422810    35A     -0.306694

  @DF-RHF Final Energy:  -386.04913411322622

   => Energetics <=

    Nuclear Repulsion Energy =            419.1511232852697049
    One-Electron Energy =               -1354.1344178671151894
    Two-Electron Energy =                 548.9341604686192113
    Total Energy =                       -386.0491341132262733
  Basis Set: (AUG-CC-PVTZ AUX)
    Blend: AUG-CC-PVTZ-RI
    Molecular point group: c1

    Geometry (in Angstrom), charge = 0, multiplicity = 1:

       Center              X                  Y                   Z               Mass
    ------------   -----------------  -----------------  -----------------  -----------------
         O           -2.786555306626    -0.922685782797    -0.754723263374    15.994914619570
         C           -2.771617306626    -0.051072782797     0.376196736626    12.000000000000
         C           -1.346328306626     0.186491217203     0.762162736626    12.000000000000
         C            3.585643693374    -0.236563782797     0.212213736626    12.000000000000
         C           -3.477289306626     1.262740217203     0.054995736626    12.000000000000
         C           -0.304808606626    -0.259022382797     0.160893036626    12.000000000000
         C            2.205300593374    -0.486989182797    -0.111043063374    12.000000000000
         C            1.090547693374    -0.033947782797     0.492166736626    12.000000000000
         C            4.322718693374     0.527109217203    -0.890370263374    12.000000000000
         H           -3.288271306626    -0.534454782797     1.223599736626     1.007825032230
         H           -1.198760306626     0.818773217203     1.638789736626     1.007825032230
         H            3.611428693374     0.338854217203     1.144804736626     1.007825032230
         H            4.112522693374    -1.179425782797     0.408879736626     1.007825032230
         H           -2.983028306626     1.734051217203    -0.797522263374     1.007825032230
         H           -4.529435306626     1.088398217203    -0.196458263374     1.007825032230
         H           -3.445291306626     1.946922217203     0.907671736626     1.007825032230
         H           -0.448727306626    -0.934505782797    -0.766408263374     1.007825032230
         H            2.004618693374    -1.151324782797    -1.034444263374     1.007825032230
         H            1.245416693374     0.599358217203     1.368097736626     1.007825032230
         H            4.312560693374    -0.036389782797    -1.827780263374     1.007825032230
         H            5.366214693374     0.707839217203    -0.616684263374     1.007825032230
         H            3.842555693374     1.491774217203    -1.073380263374     1.007825032230
         H           -3.719301306626    -1.066444782797    -0.989242263374     1.007825032230

  Basis Set: AUG-CC-PVTZ
    Blend: AUG-CC-PVTZ
  Basis Set: (AUG-CC-PVTZ AUX)
    Blend: AUG-CC-PVTZ-JKFIT
	 Reference Energy          =    -386.0491341132262164 [Eh]
	 Singles Energy            =      -0.0000000000000000 [Eh]
	 Same-Spin Energy          =      -0.4008125187747266 [Eh]
	 Opposite-Spin Energy      =      -1.3783289547696311 [Eh]
	 Correlation Energy        =      -1.7791414735443578 [Eh]
	 Total Energy              =    -387.8282755867705873 [Eh]

	 ================> DF-SCS-MP2 Energies <==================
	-----------------------------------------------------------
	 SCS Same-Spin Scale       =       0.3333333333333333 [-]
	 SCS Opposite-Spin Scale   =       1.2000000000000000 [-]
	 SCS Same-Spin Energy      =      -0.1336041729249089 [Eh]
	 SCS Opposite-Spin Energy  =      -1.6539947457235573 [Eh]
	 SCS Correlation Energy    =      -1.7875989186484662 [Eh]
	 SCS Total Energy          =    -387.8367330318747008 [Eh]
	-----------------------------------------------------------

  Dipole Moment: [D]
     X:    -1.1079      Y:     0.6842      Z:     0.6052     Total:     1.4359

*** Psi4 exiting successfully. Buy a developer a beer!
