                               Psi4 1.4a3.dev225

  ==> Input File <==

--------------------------------------------------------------------------
#psi4
#
memory 32 gb

molecule  {
0 1
  O       -2.7624640     1.3159430     0.2248240
  C       -2.8209640    -0.0168770    -0.2887760
  C       -1.4386092    -0.4802318    -0.5283263
  C        3.5469730    -0.0618850    -0.4287090
  C       -3.5485140    -0.9406360     0.6857820
  C       -0.3124200     0.2274490    -0.2577540
  C        2.1505970     0.4383770    -0.2221580
  C        1.0342680    -0.2689350    -0.4861660
  C        4.3265940    -0.1505530     0.8872490
  H       -3.3622360    -0.0200820    -1.2509840
  H       -1.3293920    -1.4912640    -0.9473420
  H        3.5136740    -1.0471260    -0.9088000
  H        4.0812660     0.6062640    -1.1173180
  H       -3.0279280    -0.9272120     1.6463760
  H       -4.5820380    -0.6089360     0.8383050
  H       -3.5770120    -1.9680220     0.3103630
  H       -0.4219900     1.2292040     0.1523950
  H        2.0485920     1.4434520     0.1930580
  H        1.1311650    -1.2755230    -0.8987060
  H        4.3778580     0.8269450     1.3761990
  H        5.3504770    -0.4972710     0.7173650
  H        3.8373540    -0.8453320     1.5752720
  H       -3.6799020     1.6047450     0.3678300
units angstrom
no_reorient  #important for SAPT in psi4, default
symmetry c1  #important for SAPT in psi4, default
}

set PROPERTIES_ORIGIN ["COM"]
properties('MP2/aug-cc-pvtz', properties = ['dipole'])
--------------------------------------------------------------------------

    Molecular point group: c1
  Charge       = 0
  Multiplicity = 1
  Basis Set: AUG-CC-PVTZ
    Blend: AUG-CC-PVTZ
  Basis Set: (AUG-CC-PVTZ AUX)
    Blend: AUG-CC-PVTZ-JKFIT

    Orbital Energies [Eh]
    ---------------------

    Doubly Occupied:

       1A    -20.558933     2A    -11.286299     3A    -11.226961
       4A    -11.225579     5A    -11.224366     6A    -11.223916
       7A    -11.223761     8A    -11.221200     9A    -11.213368
      10A     -1.360674    11A     -1.096669    12A     -1.061734
      13A     -1.016159    14A     -0.961453    15A     -0.878173
      16A     -0.828839    17A     -0.752606    18A     -0.746605
      19A     -0.695840    20A     -0.637116    21A     -0.627004
      22A     -0.617163    23A     -0.590376    24A     -0.582115
      25A     -0.546342    26A     -0.542409    27A     -0.528159
      28A     -0.518472    29A     -0.500349    30A     -0.492600
      31A     -0.479745    32A     -0.470163    33A     -0.453392
      34A     -0.416578    35A     -0.295710

  @DF-RHF Final Energy:  -386.06103964323506

   => Energetics <=

    Nuclear Repulsion Energy =            417.8138648534349500
    One-Electron Energy =               -1351.5481559979330086
    Two-Electron Energy =                 547.6732515012629392
    Total Energy =                       -386.0610396432350626
  Basis Set: (AUG-CC-PVTZ AUX)
    Blend: AUG-CC-PVTZ-RI
    Molecular point group: c1

    Geometry (in Angstrom), charge = 0, multiplicity = 1:

       Center              X                  Y                   Z               Mass
    ------------   -----------------  -----------------  -----------------  -----------------
         O           -2.726491649989     1.292030327713     0.240685240096    15.994914619570
         C           -2.784991649989    -0.040789672287    -0.272914759904    12.000000000000
         C           -1.402636849989    -0.504144472287    -0.512465059904    12.000000000000
         C            3.582945350011    -0.085797672287    -0.412847759904    12.000000000000
         C           -3.512541649989    -0.964548672287     0.701643240096    12.000000000000
         C           -0.276447649989     0.203536327713    -0.241892759904    12.000000000000
         C            2.186569350011     0.414464327713    -0.206296759904    12.000000000000
         C            1.070240350011    -0.292847672287    -0.470304759904    12.000000000000
         C            4.362566350011    -0.174465672287     0.903110240096    12.000000000000
         H           -3.326263649989    -0.043994672287    -1.235122759904     1.007825032230
         H           -1.293419649989    -1.515176672287    -0.931480759904     1.007825032230
         H            3.549646350011    -1.071038672287    -0.892938759904     1.007825032230
         H            4.117238350011     0.582351327713    -1.101456759904     1.007825032230
         H           -2.991955649989    -0.951124672287     1.662237240096     1.007825032230
         H           -4.546065649989    -0.632848672287     0.854166240096     1.007825032230
         H           -3.541039649989    -1.991934672287     0.326224240096     1.007825032230
         H           -0.386017649989     1.205291327713     0.168256240096     1.007825032230
         H            2.084564350011     1.419539327713     0.208919240096     1.007825032230
         H            1.167137350011    -1.299435672287    -0.882844759904     1.007825032230
         H            4.413830350011     0.803032327713     1.392060240096     1.007825032230
         H            5.386449350011    -0.521183672287     0.733226240096     1.007825032230
         H            3.873326350011    -0.869244672287     1.591133240096     1.007825032230
         H           -3.643929649989     1.580832327713     0.383691240096     1.007825032230

  Basis Set: AUG-CC-PVTZ
    Blend: AUG-CC-PVTZ
  Basis Set: (AUG-CC-PVTZ AUX)
    Blend: AUG-CC-PVTZ-JKFIT
	 Reference Energy          =    -386.0610396432350626 [Eh]
	 Singles Energy            =      -0.0000000000000000 [Eh]
	 Same-Spin Energy          =      -0.4006181780195570 [Eh]
	 Opposite-Spin Energy      =      -1.3789124885836961 [Eh]
	 Correlation Energy        =      -1.7795306666032531 [Eh]
	 Total Energy              =    -387.8405703098383128 [Eh]

	 ================> DF-SCS-MP2 Energies <==================
	-----------------------------------------------------------
	 SCS Same-Spin Scale       =       0.3333333333333333 [-]
	 SCS Opposite-Spin Scale   =       1.2000000000000000 [-]
	 SCS Same-Spin Energy      =      -0.1335393926731857 [Eh]
	 SCS Opposite-Spin Energy  =      -1.6546949863004352 [Eh]
	 SCS Correlation Energy    =      -1.7882343789736208 [Eh]
	 SCS Total Energy          =    -387.8492740222087036 [Eh]
	-----------------------------------------------------------

  Dipole Moment: [D]
     X:    -1.2010      Y:    -0.7939      Z:    -0.1414     Total:     1.4466

*** Psi4 exiting successfully. Buy a developer a beer!
