                               Psi4 1.3.2 release

  ==> Input File <==

--------------------------------------------------------------------------
#psi4
#
memory 32 gb

molecule  {
0 1
  O       -2.7848290    -0.9154220    -0.7447340
  C       -2.7698910    -0.0438090     0.3861860
  C       -1.3446020     0.1937550     0.7721520
  C        3.5873700    -0.2293000     0.2222030
  C       -3.4755630     1.2700040     0.0649850
  C       -0.2802220    -0.2946410     0.1124460
  C        2.1581507    -0.5003480    -0.1262590
  C        1.0922740    -0.0266840     0.5021560
  C        4.3244450     0.5343730    -0.8803810
  H       -3.2865450    -0.5271910     1.2335890
  H       -1.1970340     0.8260370     1.6487790
  H        3.5940371     0.3457194     1.1553723
  H        4.1142490    -1.1721620     0.4188690
  H       -2.9813020     1.7413150    -0.7875330
  H       -4.5277090     1.0956620    -0.1864690
  H       -3.4435650     1.9541860     0.9176610
  H       -0.4470010    -0.9272420    -0.7564190
  H        2.0063450    -1.1440610    -1.0244550
  H        1.2471430     0.6066220     1.3780870
  H        4.3142870    -0.0291260    -1.8177910
  H        5.3679410     0.7151030    -0.6066950
  H        3.8442820     1.4990380    -1.0633910
  H       -3.7175750    -1.0591810    -0.9792530
units angstrom
no_reorient  #important for SAPT in psi4, default
symmetry c1  #important for SAPT in psi4, default
}

set PROPERTIES_ORIGIN ["COM"]
properties('MP2/aug-cc-pvtz', properties = ['dipole'])
--------------------------------------------------------------------------

    Molecular point group: c1
  Charge       = 0
  Multiplicity = 1
  Basis Set: AUG-CC-PVTZ
    Blend: AUG-CC-PVTZ
  Basis Set: (AUG-CC-PVTZ AUX)
    Blend: AUG-CC-PVTZ-JKFIT

    Orbital Energies [Eh]
    ---------------------

    Doubly Occupied:

       1A    -20.558809     2A    -11.286609     3A    -11.224607
       4A    -11.223740     5A    -11.223304     6A    -11.222133
       7A    -11.220753     8A    -11.220141     9A    -11.213364
      10A     -1.360856    11A     -1.099889    12A     -1.061657
      13A     -1.016740    14A     -0.964537    15A     -0.876771
      16A     -0.830152    17A     -0.749282    18A     -0.747291
      19A     -0.695436    20A     -0.637073    21A     -0.628381
      22A     -0.617438    23A     -0.590729    24A     -0.583619
      25A     -0.546356    26A     -0.542456    27A     -0.526406
      28A     -0.520707    29A     -0.501374    30A     -0.492515
      31A     -0.477685    32A     -0.465124    33A     -0.453073
      34A     -0.420392    35A     -0.300501

  @DF-RHF Final Energy:  -386.06230977211874

   => Energetics <=

    Nuclear Repulsion Energy =            418.5349901610205734
    One-Electron Energy =               -1352.9948025441253776
    Two-Electron Energy =                 548.3975026109860664
    Total Energy =                       -386.0623097721187378
  Basis Set: (AUG-CC-PVTZ AUX)
    Blend: AUG-CC-PVTZ-RI
    Molecular point group: c1

    Geometry (in Angstrom), charge = 0, multiplicity = 1:

       Center              X                  Y                   Z               Mass
    ------------   -----------------  -----------------  -----------------  -----------------
         O           -2.783926864421    -0.916639512202    -0.746768626921    15.994914619570
         C           -2.768988864421    -0.045026512202     0.384151373079    12.000000000000
         C           -1.343699864421     0.192537487798     0.770117373079    12.000000000000
         C            3.588272135579    -0.230517512202     0.220168373079    12.000000000000
         C           -3.474660864421     1.268786487798     0.062950373079    12.000000000000
         C           -0.279319864421    -0.295858512202     0.110411373079    12.000000000000
         C            2.159052835579    -0.501565512202    -0.128293626921    12.000000000000
         C            1.093176135579    -0.027901512202     0.500121373079    12.000000000000
         C            4.325347135579     0.533155487798    -0.882415626921    12.000000000000
         H           -3.285642864421    -0.528408512202     1.231554373079     1.007825032230
         H           -1.196131864421     0.824819487798     1.646744373079     1.007825032230
         H            3.594939235579     0.344501887798     1.153337673079     1.007825032230
         H            4.115151135579    -1.173379512202     0.416834373079     1.007825032230
         H           -2.980399864421     1.740097487798    -0.789567626921     1.007825032230
         H           -4.526806864421     1.094444487798    -0.188503626921     1.007825032230
         H           -3.442662864421     1.952968487798     0.915626373079     1.007825032230
         H           -0.446098864421    -0.928459512202    -0.758453626921     1.007825032230
         H            2.007247135579    -1.145278512202    -1.026489626921     1.007825032230
         H            1.248045135579     0.605404487798     1.376052373079     1.007825032230
         H            4.315189135579    -0.030343512202    -1.819825626921     1.007825032230
         H            5.368843135579     0.713885487798    -0.608729626921     1.007825032230
         H            3.845184135579     1.497820487798    -1.065425626921     1.007825032230
         H           -3.716672864421    -1.060398512202    -0.981287626921     1.007825032230

  Basis Set: AUG-CC-PVTZ
    Blend: AUG-CC-PVTZ
  Basis Set: (AUG-CC-PVTZ AUX)
    Blend: AUG-CC-PVTZ-JKFIT
	 Reference Energy          =    -386.0623097721187378 [Eh]
	 Singles Energy            =      -0.0000000000000000 [Eh]
	 Same-Spin Energy          =      -0.4001798955538056 [Eh]
	 Opposite-Spin Energy      =      -1.3779030115862829 [Eh]
	 Correlation Energy        =      -1.7780829071400885 [Eh]
	 Total Energy              =    -387.8403926792587981 [Eh]

	 ================> DF-SCS-MP2 Energies <==================
	-----------------------------------------------------------
	 SCS Same-Spin Scale       =       0.3333333333333333 [-]
	 SCS Opposite-Spin Scale   =       1.2000000000000000 [-]
	 SCS Same-Spin Energy      =      -0.1333932985179352 [Eh]
	 SCS Opposite-Spin Energy  =      -1.6534836139035394 [Eh]
	 SCS Correlation Energy    =      -1.7868769124214745 [Eh]
	 SCS Total Energy          =    -387.8491866845402001 [Eh]
	-----------------------------------------------------------

  Dipole Moment: [D]
     X:    -1.1618      Y:     0.6538      Z:     0.5795     Total:     1.4537

*** Psi4 exiting successfully. Buy a developer a beer!
