                               Psi4 1.3.2 release

  ==> Input File <==

--------------------------------------------------------------------------
#psi4
#
memory 32 gb

molecule  {
0 1
  O       -2.7848290    -0.9154220    -0.7447340
  C       -2.7698910    -0.0438090     0.3861860
  C       -1.3446020     0.1937550     0.7721520
  C        3.5873700    -0.2293000     0.2222030
  C       -3.4755630     1.2700040     0.0649850
  C       -0.2802220    -0.2946410     0.1124460
  C        2.1660230    -0.5131760    -0.1475910
  C        1.0922740    -0.0266840     0.5021560
  C        4.3244450     0.5343730    -0.8803810
  H       -3.2397440    -0.4834040     1.1568272
  H       -1.1970340     0.8260370     1.6487790
  H        3.6131550     0.3461180     1.1547940
  H        4.1142490    -1.1721620     0.4188690
  H       -2.9813020     1.7413150    -0.7875330
  H       -4.5277090     1.0956620    -0.1864690
  H       -3.4435650     1.9541860     0.9176610
  H       -0.4470010    -0.9272420    -0.7564190
  H        2.0063450    -1.1440610    -1.0244550
  H        1.2471430     0.6066220     1.3780870
  H        4.3142870    -0.0291260    -1.8177910
  H        5.3679410     0.7151030    -0.6066950
  H        3.8442820     1.4990380    -1.0633910
  H       -3.7175750    -1.0591810    -0.9792530
units angstrom
no_reorient  #important for SAPT in psi4, default
symmetry c1  #important for SAPT in psi4, default
}

set PROPERTIES_ORIGIN ["COM"]
properties('MP2/aug-cc-pvtz', properties = ['dipole'])
--------------------------------------------------------------------------

    Molecular point group: c1
  Charge       = 0
  Multiplicity = 1
  Basis Set: AUG-CC-PVTZ
    Blend: AUG-CC-PVTZ
  Basis Set: (AUG-CC-PVTZ AUX)
    Blend: AUG-CC-PVTZ-JKFIT

    Orbital Energies [Eh]
    ---------------------

    Doubly Occupied:

       1A    -20.557042     2A    -11.273595     3A    -11.225581
       4A    -11.223207     5A    -11.222967     6A    -11.222542
       7A    -11.221145     8A    -11.219665     9A    -11.212688
      10A     -1.360015    11A     -1.097737    12A     -1.062592
      13A     -1.017887    14A     -0.962208    15A     -0.879026
      16A     -0.833493    17A     -0.755603    18A     -0.747805
      19A     -0.704030    20A     -0.636790    21A     -0.628758
      22A     -0.617686    23A     -0.589962    24A     -0.582538
      25A     -0.546350    26A     -0.543223    27A     -0.527497
      28A     -0.518789    29A     -0.500411    30A     -0.494627
      31A     -0.479050    32A     -0.468025    33A     -0.455208
      34A     -0.419005    35A     -0.297500

  @DF-RHF Final Energy:  -386.05755526508949

   => Energetics <=

    Nuclear Repulsion Energy =            418.8175554998840653
    One-Electron Energy =               -1353.5417252103097780
    Two-Electron Energy =                 548.6666144453362222
    Total Energy =                       -386.0575552650894906
  Basis Set: (AUG-CC-PVTZ AUX)
    Blend: AUG-CC-PVTZ-RI
    Molecular point group: c1

    Geometry (in Angstrom), charge = 0, multiplicity = 1:

       Center              X                  Y                   Z               Mass
    ------------   -----------------  -----------------  -----------------  -----------------
         O           -2.785202809071    -0.915771940652    -0.744120589926    15.994914619570
         C           -2.770264809071    -0.044158940652     0.386799410074    12.000000000000
         C           -1.344975809071     0.193405059348     0.772765410074    12.000000000000
         C            3.586996190929    -0.229649940652     0.222816410074    12.000000000000
         C           -3.475936809071     1.269654059348     0.065598410074    12.000000000000
         C           -0.280595809071    -0.294990940652     0.113059410074    12.000000000000
         C            2.165649190929    -0.513525940652    -0.146977589926    12.000000000000
         C            1.091900190929    -0.027033940652     0.502769410074    12.000000000000
         C            4.324071190929     0.534023059348    -0.879767589926    12.000000000000
         H           -3.240117809071    -0.483753940652     1.157440610074     1.007825032230
         H           -1.197407809071     0.825687059348     1.649392410074     1.007825032230
         H            3.612781190929     0.345768059348     1.155407410074     1.007825032230
         H            4.113875190929    -1.172511940652     0.419482410074     1.007825032230
         H           -2.981675809071     1.740965059348    -0.786919589926     1.007825032230
         H           -4.528082809071     1.095312059348    -0.185855589926     1.007825032230
         H           -3.443938809071     1.953836059348     0.918274410074     1.007825032230
         H           -0.447374809071    -0.927591940652    -0.755805589926     1.007825032230
         H            2.005971190929    -1.144410940652    -1.023841589926     1.007825032230
         H            1.246769190929     0.606272059348     1.378700410074     1.007825032230
         H            4.313913190929    -0.029475940652    -1.817177589926     1.007825032230
         H            5.367567190929     0.714753059348    -0.606081589926     1.007825032230
         H            3.843908190929     1.498688059348    -1.062777589926     1.007825032230
         H           -3.717948809071    -1.059530940652    -0.978639589926     1.007825032230

  Basis Set: AUG-CC-PVTZ
    Blend: AUG-CC-PVTZ
  Basis Set: (AUG-CC-PVTZ AUX)
    Blend: AUG-CC-PVTZ-JKFIT
	 Reference Energy          =    -386.0575552650894906 [Eh]
	 Singles Energy            =      -0.0000000000000000 [Eh]
	 Same-Spin Energy          =      -0.4002412221404464 [Eh]
	 Opposite-Spin Energy      =      -1.3777020581980270 [Eh]
	 Correlation Energy        =      -1.7779432803384734 [Eh]
	 Total Energy              =    -387.8354985454279813 [Eh]

	 ================> DF-SCS-MP2 Energies <==================
	-----------------------------------------------------------
	 SCS Same-Spin Scale       =       0.3333333333333333 [-]
	 SCS Opposite-Spin Scale   =       1.2000000000000000 [-]
	 SCS Same-Spin Energy      =      -0.1334137407134821 [Eh]
	 SCS Opposite-Spin Energy  =      -1.6532424698376325 [Eh]
	 SCS Correlation Energy    =      -1.7866562105511146 [Eh]
	 SCS Total Energy          =    -387.8442114756405772 [Eh]
	-----------------------------------------------------------

  Dipole Moment: [D]
     X:    -1.2019      Y:     0.6286      Z:     0.6410     Total:     1.5002

*** Psi4 exiting successfully. Buy a developer a beer!
