                               Psi4 1.3.2 release

  ==> Input File <==

--------------------------------------------------------------------------
#psi4
#
memory 32 gb

molecule  {
0 1
  O       -2.7848290    -0.9154220    -0.7447340
  C       -2.7698910    -0.0438090     0.3861860
  C       -1.3446020     0.1937550     0.7721520
  C        3.5873700    -0.2293000     0.2222030
  C       -3.4755630     1.2700040     0.0649850
  C       -0.2802220    -0.2946410     0.1124460
  C        2.1660230    -0.5131760    -0.1475910
  C        1.0922740    -0.0266840     0.5021560
  C        4.3133700     0.4944717    -0.9141271
  H       -3.2865450    -0.5271910     1.2335890
  H       -1.1970340     0.8260370     1.6487790
  H        3.5932256     0.3182193     1.1717740
  H        4.1142490    -1.1721620     0.4188690
  H       -2.9813020     1.7413150    -0.7875330
  H       -4.5277090     1.0956620    -0.1864690
  H       -3.4435650     1.9541860     0.9176610
  H       -0.4470010    -0.9272420    -0.7564190
  H        2.0063450    -1.1440610    -1.0244550
  H        1.2471430     0.6066220     1.3780870
  H        4.3142870    -0.0291260    -1.8177910
  H        5.3679410     0.7151030    -0.6066950
  H        3.8442820     1.4990380    -1.0633910
  H       -3.7175750    -1.0591810    -0.9792530
units angstrom
no_reorient  #important for SAPT in psi4, default
symmetry c1  #important for SAPT in psi4, default
}

set PROPERTIES_ORIGIN ["COM"]
properties('MP2/aug-cc-pvtz', properties = ['dipole'])
--------------------------------------------------------------------------

    Molecular point group: c1
  Charge       = 0
  Multiplicity = 1
  Basis Set: AUG-CC-PVTZ
    Blend: AUG-CC-PVTZ
  Basis Set: (AUG-CC-PVTZ AUX)
    Blend: AUG-CC-PVTZ-JKFIT

    Orbital Energies [Eh]
    ---------------------

    Doubly Occupied:

       1A    -20.558587     2A    -11.286276     3A    -11.225565
       4A    -11.223698     5A    -11.223335     6A    -11.222588
       7A    -11.221494     8A    -11.220473     9A    -11.214017
      10A     -1.360618    11A     -1.097884    12A     -1.061519
      13A     -1.016076    14A     -0.962250    15A     -0.876957
      16A     -0.829397    17A     -0.752884    18A     -0.747824
      19A     -0.695058    20A     -0.637642    21A     -0.626494
      22A     -0.617414    23A     -0.591264    24A     -0.581882
      25A     -0.547395    26A     -0.543884    27A     -0.530472
      28A     -0.518537    29A     -0.499289    30A     -0.489436
      31A     -0.482706    32A     -0.465136    33A     -0.452624
      34A     -0.417746    35A     -0.296967

  @DF-RHF Final Energy:  -386.05887170307989

   => Energetics <=

    Nuclear Repulsion Energy =            418.3658693518038376
    One-Electron Energy =               -1352.6587038548782402
    Two-Electron Energy =                 548.2339627999944014
    Total Energy =                       -386.0588717030799444
  Basis Set: (AUG-CC-PVTZ AUX)
    Blend: AUG-CC-PVTZ-RI
    Molecular point group: c1

    Geometry (in Angstrom), charge = 0, multiplicity = 1:

       Center              X                  Y                   Z               Mass
    ------------   -----------------  -----------------  -----------------  -----------------
         O           -2.783615612556    -0.911402053807    -0.741658521138    15.994914619570
         C           -2.768677612556    -0.039789053807     0.389261478862    12.000000000000
         C           -1.343388612556     0.197774946193     0.775227478862    12.000000000000
         C            3.588583387444    -0.225280053807     0.225278478862    12.000000000000
         C           -3.474349612556     1.274023946193     0.068060478862    12.000000000000
         C           -0.279008612556    -0.290621053807     0.115521478862    12.000000000000
         C            2.167236387444    -0.509156053807    -0.144515521138    12.000000000000
         C            1.093487387444    -0.022664053807     0.505231478862    12.000000000000
         C            4.314583387444     0.498491646193    -0.911051621138    12.000000000000
         H           -3.285331612556    -0.523171053807     1.236664478862     1.007825032230
         H           -1.195820612556     0.830056946193     1.651854478862     1.007825032230
         H            3.594438987444     0.322239246193     1.174849478862     1.007825032230
         H            4.115462387444    -1.168142053807     0.421944478862     1.007825032230
         H           -2.980088612556     1.745334946193    -0.784457521138     1.007825032230
         H           -4.526495612556     1.099681946193    -0.183393521138     1.007825032230
         H           -3.442351612556     1.958205946193     0.920736478862     1.007825032230
         H           -0.445787612556    -0.923222053807    -0.753343521138     1.007825032230
         H            2.007558387444    -1.140041053807    -1.021379521138     1.007825032230
         H            1.248356387444     0.610641946193     1.381162478862     1.007825032230
         H            4.315500387444    -0.025106053807    -1.814715521138     1.007825032230
         H            5.369154387444     0.719122946193    -0.603619521138     1.007825032230
         H            3.845495387444     1.503057946193    -1.060315521138     1.007825032230
         H           -3.716361612556    -1.055161053807    -0.976177521138     1.007825032230

  Basis Set: AUG-CC-PVTZ
    Blend: AUG-CC-PVTZ
  Basis Set: (AUG-CC-PVTZ AUX)
    Blend: AUG-CC-PVTZ-JKFIT
	 Reference Energy          =    -386.0588717030798875 [Eh]
	 Singles Energy            =      -0.0000000000000000 [Eh]
	 Same-Spin Energy          =      -0.4004596927363248 [Eh]
	 Opposite-Spin Energy      =      -1.3784996688209128 [Eh]
	 Correlation Energy        =      -1.7789593615572374 [Eh]
	 Total Energy              =    -387.8378310646371006 [Eh]

	 ================> DF-SCS-MP2 Energies <==================
	-----------------------------------------------------------
	 SCS Same-Spin Scale       =       0.3333333333333333 [-]
	 SCS Opposite-Spin Scale   =       1.2000000000000000 [-]
	 SCS Same-Spin Energy      =      -0.1334865642454416 [Eh]
	 SCS Opposite-Spin Energy  =      -1.6541996025850954 [Eh]
	 SCS Correlation Energy    =      -1.7876861668305368 [Eh]
	 SCS Total Energy          =    -387.8465578699104412 [Eh]
	-----------------------------------------------------------

  Dipole Moment: [D]
     X:    -1.1411      Y:     0.6181      Z:     0.5602     Total:     1.4135

*** Psi4 exiting successfully. Buy a developer a beer!
