                               Psi4 1.3.2 release

  ==> Input File <==

--------------------------------------------------------------------------
#psi4
#
memory 32 gb

molecule  {
0 1
  O       -2.7848290    -0.9154220    -0.7447340
  C       -2.7698910    -0.0438090     0.3861860
  C       -1.3446020     0.1937550     0.7721520
  C        3.5873700    -0.2293000     0.2222030
  C       -3.4755630     1.2700040     0.0649850
  C       -0.3594101    -0.2583051     0.1615270
  C        2.1660230    -0.5131760    -0.1475910
  C        1.0922740    -0.0266840     0.5021560
  C        4.3244450     0.5343730    -0.8803810
  H       -3.2865450    -0.5271910     1.2335890
  H       -1.1970340     0.8260370     1.6487790
  H        3.6131550     0.3461180     1.1547940
  H        4.1142490    -1.1721620     0.4188690
  H       -2.9813020     1.7413150    -0.7875330
  H       -4.5277090     1.0956620    -0.1864690
  H       -3.4435650     1.9541860     0.9176610
  H       -0.4470010    -0.9272420    -0.7564190
  H        2.0063450    -1.1440610    -1.0244550
  H        1.2471430     0.6066220     1.3780870
  H        4.3142870    -0.0291260    -1.8177910
  H        5.3679410     0.7151030    -0.6066950
  H        3.8442820     1.4990380    -1.0633910
  H       -3.7175750    -1.0591810    -0.9792530
units angstrom
no_reorient  #important for SAPT in psi4, default
symmetry c1  #important for SAPT in psi4, default
}

set PROPERTIES_ORIGIN ["COM"]
properties('MP2/aug-cc-pvtz', properties = ['dipole'])
--------------------------------------------------------------------------

    Molecular point group: c1
  Charge       = 0
  Multiplicity = 1
  Basis Set: AUG-CC-PVTZ
    Blend: AUG-CC-PVTZ
  Basis Set: (AUG-CC-PVTZ AUX)
    Blend: AUG-CC-PVTZ-JKFIT

    Orbital Energies [Eh]
    ---------------------

    Doubly Occupied:

       1A    -20.558369     2A    -11.286031     3A    -11.227280
       4A    -11.225679     5A    -11.223625     6A    -11.220774
       7A    -11.215679     8A    -11.212864     9A    -11.208097
      10A     -1.360733    11A     -1.102098    12A     -1.068602
      13A     -1.013436    14A     -0.970414    15A     -0.872364
      16A     -0.832526    17A     -0.752249    18A     -0.740578
      19A     -0.693177    20A     -0.638849    21A     -0.629183
      22A     -0.617384    23A     -0.592514    24A     -0.583998
      25A     -0.545931    26A     -0.544209    27A     -0.527628
      28A     -0.519711    29A     -0.495866    30A     -0.493400
      31A     -0.479028    32A     -0.455658    33A     -0.448915
      34A     -0.421256    35A     -0.315100

  @DF-RHF Final Energy:  -386.05021592600201

   => Energetics <=

    Nuclear Repulsion Energy =            418.9767621196737082
    One-Electron Energy =               -1353.8675453982311865
    Two-Electron Energy =                 548.8405673525554676
    Total Energy =                       -386.0502159260020107
  Basis Set: (AUG-CC-PVTZ AUX)
    Blend: AUG-CC-PVTZ-RI
    Molecular point group: c1

    Geometry (in Angstrom), charge = 0, multiplicity = 1:

       Center              X                  Y                   Z               Mass
    ------------   -----------------  -----------------  -----------------  -----------------
         O           -2.777293299929    -0.918879690762    -0.749404577794    15.994914619570
         C           -2.762355299929    -0.047266690762     0.381515422206    12.000000000000
         C           -1.337066299929     0.190297309238     0.767481422206    12.000000000000
         C            3.594905700071    -0.232757690762     0.217532422206    12.000000000000
         C           -3.468027299929     1.266546309238     0.060314422206    12.000000000000
         C           -0.351874399929    -0.261762790762     0.156856422206    12.000000000000
         C            2.173558700071    -0.516633690762    -0.152261577794    12.000000000000
         C            1.099809700071    -0.030141690762     0.497485422206    12.000000000000
         C            4.331980700071     0.530915309238    -0.885051577794    12.000000000000
         H           -3.279009299929    -0.530648690762     1.228918422206     1.007825032230
         H           -1.189498299929     0.822579309238     1.644108422206     1.007825032230
         H            3.620690700071     0.342660309238     1.150123422206     1.007825032230
         H            4.121784700071    -1.175619690762     0.414198422206     1.007825032230
         H           -2.973766299929     1.737857309238    -0.792203577794     1.007825032230
         H           -4.520173299929     1.092204309238    -0.191139577794     1.007825032230
         H           -3.436029299929     1.950728309238     0.912990422206     1.007825032230
         H           -0.439465299929    -0.930699690762    -0.761089577794     1.007825032230
         H            2.013880700071    -1.147518690762    -1.029125577794     1.007825032230
         H            1.254678700071     0.603164309238     1.373416422206     1.007825032230
         H            4.321822700071    -0.032583690762    -1.822461577794     1.007825032230
         H            5.375476700071     0.711645309238    -0.611365577794     1.007825032230
         H            3.851817700071     1.495580309238    -1.068061577794     1.007825032230
         H           -3.710039299929    -1.062638690762    -0.983923577794     1.007825032230

  Basis Set: AUG-CC-PVTZ
    Blend: AUG-CC-PVTZ
  Basis Set: (AUG-CC-PVTZ AUX)
    Blend: AUG-CC-PVTZ-JKFIT
	 Reference Energy          =    -386.0502159260020107 [Eh]
	 Singles Energy            =      -0.0000000000000000 [Eh]
	 Same-Spin Energy          =      -0.3991322916897833 [Eh]
	 Opposite-Spin Energy      =      -1.3761098097176219 [Eh]
	 Correlation Energy        =      -1.7752421014074051 [Eh]
	 Total Energy              =    -387.8254580274094110 [Eh]

	 ================> DF-SCS-MP2 Energies <==================
	-----------------------------------------------------------
	 SCS Same-Spin Scale       =       0.3333333333333333 [-]
	 SCS Opposite-Spin Scale   =       1.2000000000000000 [-]
	 SCS Same-Spin Energy      =      -0.1330440972299277 [Eh]
	 SCS Opposite-Spin Energy  =      -1.6513317716611462 [Eh]
	 SCS Correlation Energy    =      -1.7843758688910740 [Eh]
	 SCS Total Energy          =    -387.8345917948930719 [Eh]
	-----------------------------------------------------------

  Dipole Moment: [D]
     X:    -1.1699      Y:     0.6487      Z:     0.5842     Total:     1.4597

*** Psi4 exiting successfully. Buy a developer a beer!
