                               Psi4 1.3.2 release

  ==> Input File <==

--------------------------------------------------------------------------
#psi4
#
memory 32 gb

molecule  {
0 1
  O       -2.7848290    -0.9154220    -0.7447340
  C       -2.7698910    -0.0438090     0.3861860
  C       -1.3446020     0.1937550     0.7721520
  C        3.5873700    -0.2293000     0.2222030
  C       -3.4755630     1.2700040     0.0649850
  C       -0.2535977    -0.3366050     0.0549442
  C        2.1660230    -0.5131760    -0.1475910
  C        1.0922740    -0.0266840     0.5021560
  C        4.3244450     0.5343730    -0.8803810
  H       -3.2865450    -0.5271910     1.2335890
  H       -1.1970340     0.8260370     1.6487790
  H        3.6131550     0.3461180     1.1547940
  H        4.1142490    -1.1721620     0.4188690
  H       -2.9813020     1.7413150    -0.7875330
  H       -4.5277090     1.0956620    -0.1864690
  H       -3.4435650     1.9541860     0.9176610
  H       -0.4470010    -0.9272420    -0.7564190
  H        2.0063450    -1.1440610    -1.0244550
  H        1.3034983     0.6006042     1.3706086
  H        4.3142870    -0.0291260    -1.8177910
  H        5.3679410     0.7151030    -0.6066950
  H        3.8442820     1.4990380    -1.0633910
  H       -3.7175750    -1.0591810    -0.9792530
units angstrom
no_reorient  #important for SAPT in psi4, default
symmetry c1  #important for SAPT in psi4, default
}

set PROPERTIES_ORIGIN ["COM"]
properties('MP2/aug-cc-pvtz', properties = ['dipole'])
--------------------------------------------------------------------------

    Molecular point group: c1
  Charge       = 0
  Multiplicity = 1
  Basis Set: AUG-CC-PVTZ
    Blend: AUG-CC-PVTZ
  Basis Set: (AUG-CC-PVTZ AUX)
    Blend: AUG-CC-PVTZ-JKFIT

    Orbital Energies [Eh]
    ---------------------

    Doubly Occupied:

       1A    -20.558935     2A    -11.285798     3A    -11.231358
       4A    -11.228117     5A    -11.224237     6A    -11.222819
       7A    -11.222236     8A    -11.220333     9A    -11.212552
      10A     -1.360846    11A     -1.095864    12A     -1.056905
      13A     -1.016069    14A     -0.957159    15A     -0.876985
      16A     -0.826536    17A     -0.758646    18A     -0.748799
      19A     -0.696355    20A     -0.639228    21A     -0.623844
      22A     -0.616862    23A     -0.590518    24A     -0.580262
      25A     -0.547939    26A     -0.542866    27A     -0.525983
      28A     -0.519879    29A     -0.512125    30A     -0.492136
      31A     -0.478686    32A     -0.467627    33A     -0.451592
      34A     -0.414450    35A     -0.287727

  @DF-RHF Final Energy:  -386.05066201551176

   => Energetics <=

    Nuclear Repulsion Energy =            417.7287329621931917
    One-Electron Energy =               -1351.3742406706492147
    Two-Electron Energy =                 547.5948456929443182
    Total Energy =                       -386.0506620155117616
  Basis Set: (AUG-CC-PVTZ AUX)
    Blend: AUG-CC-PVTZ-RI
    Molecular point group: c1

    Geometry (in Angstrom), charge = 0, multiplicity = 1:

       Center              X                  Y                   Z               Mass
    ------------   -----------------  -----------------  -----------------  -----------------
         O           -2.787812713982    -0.911380640757    -0.739202476560    15.994914619570
         C           -2.772874713982    -0.039767640757     0.391717523440    12.000000000000
         C           -1.347585713982     0.197796359243     0.777683523440    12.000000000000
         C            3.584386286018    -0.225258640757     0.227734523440    12.000000000000
         C           -3.478546713982     1.274045359243     0.070516523440    12.000000000000
         C           -0.256581413982    -0.332563640757     0.060475723440    12.000000000000
         C            2.163039286018    -0.509134640757    -0.142059476560    12.000000000000
         C            1.089290286018    -0.022642640757     0.507687523440    12.000000000000
         C            4.321461286018     0.538414359243    -0.874849476560    12.000000000000
         H           -3.289528713982    -0.523149640757     1.239120523440     1.007825032230
         H           -1.200017713982     0.830078359243     1.654310523440     1.007825032230
         H            3.610171286018     0.350159359243     1.160325523440     1.007825032230
         H            4.111265286018    -1.168120640757     0.424400523440     1.007825032230
         H           -2.984285713982     1.745356359243    -0.782001476560     1.007825032230
         H           -4.530692713982     1.099703359243    -0.180937476560     1.007825032230
         H           -3.446548713982     1.958227359243     0.923192523440     1.007825032230
         H           -0.449984713982    -0.923200640757    -0.750887476560     1.007825032230
         H            2.003361286018    -1.140019640757    -1.018923476560     1.007825032230
         H            1.300514586018     0.604645559243     1.376140123440     1.007825032230
         H            4.311303286018    -0.025084640757    -1.812259476560     1.007825032230
         H            5.364957286018     0.719144359243    -0.601163476560     1.007825032230
         H            3.841298286018     1.503079359243    -1.057859476560     1.007825032230
         H           -3.720558713982    -1.055139640757    -0.973721476560     1.007825032230

  Basis Set: AUG-CC-PVTZ
    Blend: AUG-CC-PVTZ
  Basis Set: (AUG-CC-PVTZ AUX)
    Blend: AUG-CC-PVTZ-JKFIT
	 Reference Energy          =    -386.0506620155117616 [Eh]
	 Singles Energy            =      -0.0000000000000000 [Eh]
	 Same-Spin Energy          =      -0.4012431139869810 [Eh]
	 Opposite-Spin Energy      =      -1.3804039539538517 [Eh]
	 Correlation Energy        =      -1.7816470679408327 [Eh]
	 Total Energy              =    -387.8323090834525715 [Eh]

	 ================> DF-SCS-MP2 Energies <==================
	-----------------------------------------------------------
	 SCS Same-Spin Scale       =       0.3333333333333333 [-]
	 SCS Opposite-Spin Scale   =       1.2000000000000000 [-]
	 SCS Same-Spin Energy      =      -0.1337477046623270 [Eh]
	 SCS Opposite-Spin Energy  =      -1.6564847447446220 [Eh]
	 SCS Correlation Energy    =      -1.7902324494069490 [Eh]
	 SCS Total Energy          =    -387.8408944649187333 [Eh]
	-----------------------------------------------------------

  Dipole Moment: [D]
     X:    -1.1566      Y:     0.6384      Z:     0.5828     Total:     1.4440

*** Psi4 exiting successfully. Buy a developer a beer!
