                               Psi4 1.3.2 release

  ==> Input File <==

--------------------------------------------------------------------------
#psi4
#
memory 32 gb

molecule  {
0 1
  O       -2.7848290    -0.9154220    -0.7447340
  C       -2.7698910    -0.0438090     0.3861860
  C       -1.3446020     0.1937550     0.7721520
  C        3.5873700    -0.2293000     0.2222030
  C       -3.4755630     1.2700040     0.0649850
  C       -0.2802220    -0.2946410     0.1124460
  C        2.1370463    -0.5346255    -0.1777181
  C        1.0922740    -0.0266840     0.5021560
  C        4.3244450     0.5343730    -0.8803810
  H       -3.2865450    -0.5271910     1.2335890
  H       -1.1970340     0.8260370     1.6487790
  H        3.6131550     0.3461180     1.1547940
  H        4.1142490    -1.1721620     0.4188690
  H       -2.9813020     1.7413150    -0.7875330
  H       -4.5277090     1.0956620    -0.1864690
  H       -3.4435650     1.9541860     0.9176610
  H       -0.4470010    -0.9272420    -0.7564190
  H        2.0063450    -1.1440610    -1.0244550
  H        1.2093285     0.6097579     1.3816763
  H        4.3142870    -0.0291260    -1.8177910
  H        5.3679410     0.7151030    -0.6066950
  H        3.8442820     1.4990380    -1.0633910
  H       -3.7175750    -1.0591810    -0.9792530
units angstrom
no_reorient  #important for SAPT in psi4, default
symmetry c1  #important for SAPT in psi4, default
}

set PROPERTIES_ORIGIN ["COM"]
properties('MP2/aug-cc-pvtz', properties = ['dipole'])
--------------------------------------------------------------------------

    Molecular point group: c1
  Charge       = 0
  Multiplicity = 1
  Basis Set: AUG-CC-PVTZ
    Blend: AUG-CC-PVTZ
  Basis Set: (AUG-CC-PVTZ AUX)
    Blend: AUG-CC-PVTZ-JKFIT

    Orbital Energies [Eh]
    ---------------------

    Doubly Occupied:

       1A    -20.558466     2A    -11.286067     3A    -11.225459
       4A    -11.224430     5A    -11.223741     6A    -11.222280
       7A    -11.220540     8A    -11.220359     9A    -11.211941
      10A     -1.360482    11A     -1.096614    12A     -1.058069
      13A     -1.015213    14A     -0.962224    15A     -0.874465
      16A     -0.825939    17A     -0.760022    18A     -0.747362
      19A     -0.694793    20A     -0.638681    21A     -0.624885
      22A     -0.617185    23A     -0.589042    24A     -0.581382
      25A     -0.549292    26A     -0.545076    27A     -0.530566
      28A     -0.515251    29A     -0.499401    30A     -0.491318
      31A     -0.482596    32A     -0.461305    33A     -0.452533
      34A     -0.418919    35A     -0.297701

  @DF-RHF Final Energy:  -386.06040627161104

   => Energetics <=

    Nuclear Repulsion Energy =            418.0901446035220488
    One-Electron Energy =               -1352.1339048093052497
    Two-Electron Energy =                 547.9833539341722144
    Total Energy =                       -386.0604062716109866
  Basis Set: (AUG-CC-PVTZ AUX)
    Blend: AUG-CC-PVTZ-RI
    Molecular point group: c1

    Geometry (in Angstrom), charge = 0, multiplicity = 1:

       Center              X                  Y                   Z               Mass
    ------------   -----------------  -----------------  -----------------  -----------------
         O           -2.781769163650    -0.913405940399    -0.741895884005    15.994914619570
         C           -2.766831163650    -0.041792940399     0.389024115995    12.000000000000
         C           -1.341542163650     0.195771059601     0.774990115995    12.000000000000
         C            3.590429836350    -0.227283940399     0.225041115995    12.000000000000
         C           -3.472503163650     1.272020059601     0.067823115995    12.000000000000
         C           -0.277162163650    -0.292624940399     0.115284115995    12.000000000000
         C            2.140106136350    -0.532609440399    -0.174879984005    12.000000000000
         C            1.095333836350    -0.024667940399     0.504994115995    12.000000000000
         C            4.327504836350     0.536389059601    -0.877542884005    12.000000000000
         H           -3.283485163650    -0.525174940399     1.236427115995     1.007825032230
         H           -1.193974163650     0.828053059601     1.651617115995     1.007825032230
         H            3.616214836350     0.348134059601     1.157632115995     1.007825032230
         H            4.117308836350    -1.170145940399     0.421707115995     1.007825032230
         H           -2.978242163650     1.743331059601    -0.784694884005     1.007825032230
         H           -4.524649163650     1.097678059601    -0.183630884005     1.007825032230
         H           -3.440505163650     1.956202059601     0.920499115995     1.007825032230
         H           -0.443941163650    -0.925225940399    -0.753580884005     1.007825032230
         H            2.009404836350    -1.142044940399    -1.021616884005     1.007825032230
         H            1.212388336350     0.611773959601     1.384514415995     1.007825032230
         H            4.317346836350    -0.027109940399    -1.814952884005     1.007825032230
         H            5.371000836350     0.717119059601    -0.603856884005     1.007825032230
         H            3.847341836350     1.501054059601    -1.060552884005     1.007825032230
         H           -3.714515163650    -1.057164940399    -0.976414884005     1.007825032230

  Basis Set: AUG-CC-PVTZ
    Blend: AUG-CC-PVTZ
  Basis Set: (AUG-CC-PVTZ AUX)
    Blend: AUG-CC-PVTZ-JKFIT
	 Reference Energy          =    -386.0604062716110434 [Eh]
	 Singles Energy            =      -0.0000000000000000 [Eh]
	 Same-Spin Energy          =      -0.3999935723379460 [Eh]
	 Opposite-Spin Energy      =      -1.3780785677118328 [Eh]
	 Correlation Energy        =      -1.7780721400497788 [Eh]
	 Total Energy              =    -387.8384784116608444 [Eh]

	 ================> DF-SCS-MP2 Energies <==================
	-----------------------------------------------------------
	 SCS Same-Spin Scale       =       0.3333333333333333 [-]
	 SCS Opposite-Spin Scale   =       1.2000000000000000 [-]
	 SCS Same-Spin Energy      =      -0.1333311907793153 [Eh]
	 SCS Opposite-Spin Energy  =      -1.6536942812541993 [Eh]
	 SCS Correlation Energy    =      -1.7870254720335146 [Eh]
	 SCS Total Energy          =    -387.8474317436445631 [Eh]
	-----------------------------------------------------------

  Dipole Moment: [D]
     X:    -1.1872      Y:     0.6290      Z:     0.5708     Total:     1.4598

*** Psi4 exiting successfully. Buy a developer a beer!
