                               Psi4 1.3.2 release

  ==> Input File <==

--------------------------------------------------------------------------
#psi4
#
memory 32 gb

molecule  {
0 1
  O       -2.7848290    -0.9154220    -0.7447340
  C       -2.7698910    -0.0438090     0.3861860
  C       -1.3446020     0.1937550     0.7721520
  C        3.5873700    -0.2293000     0.2222030
  C       -3.4755630     1.2700040     0.0649850
  C       -0.2802220    -0.2946410     0.1124460
  C        2.1516960    -0.5239765    -0.1627558
  C        1.0922740    -0.0266840     0.5021560
  C        4.3244450     0.5343730    -0.8803810
  H       -3.2865450    -0.5271910     1.2335890
  H       -1.1970340     0.8260370     1.6487790
  H        3.6131550     0.3461180     1.1547940
  H        4.1142490    -1.1721620     0.4188690
  H       -2.9813020     1.7413150    -0.7875330
  H       -4.5277090     1.0956620    -0.1864690
  H       -3.4435650     1.9541860     0.9176610
  H       -0.4470010    -0.9272420    -0.7564190
  H        2.0063450    -1.1440610    -1.0244550
  H        1.2282565     0.6082867     1.3800153
  H        4.3142870    -0.0291260    -1.8177910
  H        5.3679410     0.7151030    -0.6066950
  H        3.8442820     1.4990380    -1.0633910
  H       -3.7175750    -1.0591810    -0.9792530
units angstrom
no_reorient  #important for SAPT in psi4, default
symmetry c1  #important for SAPT in psi4, default
}

set PROPERTIES_ORIGIN ["COM"]
properties('MP2/aug-cc-pvtz', properties = ['dipole'])
--------------------------------------------------------------------------

    Molecular point group: c1
  Charge       = 0
  Multiplicity = 1
  Basis Set: AUG-CC-PVTZ
    Blend: AUG-CC-PVTZ
  Basis Set: (AUG-CC-PVTZ AUX)
    Blend: AUG-CC-PVTZ-JKFIT

    Orbital Energies [Eh]
    ---------------------

    Doubly Occupied:

       1A    -20.558593     2A    -11.286259     3A    -11.225562
       4A    -11.223868     5A    -11.223511     6A    -11.222778
       7A    -11.221160     8A    -11.220489     9A    -11.212398
      10A     -1.360620    11A     -1.097119    12A     -1.059660
      13A     -1.015672    14A     -0.962319    15A     -0.875500
      16A     -0.827265    17A     -0.756107    18A     -0.747734
      19A     -0.694994    20A     -0.637866    21A     -0.626150
      22A     -0.617246    23A     -0.589668    24A     -0.582076
      25A     -0.547282    26A     -0.544630    27A     -0.529135
      28A     -0.517015    29A     -0.499962    30A     -0.491931
      31A     -0.481194    32A     -0.464903    33A     -0.452704
      34A     -0.418568    35A     -0.297569

  @DF-RHF Final Energy:  -386.06222065652133

   => Energetics <=

    Nuclear Repulsion Energy =            418.1777479364307055
    One-Electron Energy =               -1352.3009231029527655
    Two-Electron Energy =                 548.0609545100006699
    Total Energy =                       -386.0622206565213901
  Basis Set: (AUG-CC-PVTZ AUX)
    Blend: AUG-CC-PVTZ-RI
    Molecular point group: c1

    Geometry (in Angstrom), charge = 0, multiplicity = 1:

       Center              X                  Y                   Z               Mass
    ------------   -----------------  -----------------  -----------------  -----------------
         O           -2.783314489679    -0.914407532910    -0.743306409814    15.994914619570
         C           -2.768376489679    -0.042794532910     0.387613590186    12.000000000000
         C           -1.343087489679     0.194769467090     0.773579590186    12.000000000000
         C            3.588884510321    -0.228285532910     0.223630590186    12.000000000000
         C           -3.474048489679     1.271018467090     0.066412590186    12.000000000000
         C           -0.278707489679    -0.293626532910     0.113873590186    12.000000000000
         C            2.153210510321    -0.522962032910    -0.161328209814    12.000000000000
         C            1.093788510321    -0.025669532910     0.503583590186    12.000000000000
         C            4.325959510321     0.535387467090    -0.878953409814    12.000000000000
         H           -3.285030489679    -0.526176532910     1.235016590186     1.007825032230
         H           -1.195519489679     0.827051467090     1.650206590186     1.007825032230
         H            3.614669510321     0.347132467090     1.156221590186     1.007825032230
         H            4.115763510321    -1.171147532910     0.420296590186     1.007825032230
         H           -2.979787489679     1.742329467090    -0.786105409814     1.007825032230
         H           -4.526194489679     1.096676467090    -0.185041409814     1.007825032230
         H           -3.442050489679     1.955200467090     0.919088590186     1.007825032230
         H           -0.445486489679    -0.926227532910    -0.754991409814     1.007825032230
         H            2.007859510321    -1.143046532910    -1.023027409814     1.007825032230
         H            1.229771010321     0.609301167090     1.381442890186     1.007825032230
         H            4.315801510321    -0.028111532910    -1.816363409814     1.007825032230
         H            5.369455510321     0.716117467090    -0.605267409814     1.007825032230
         H            3.845796510321     1.500052467090    -1.061963409814     1.007825032230
         H           -3.716060489679    -1.058166532910    -0.977825409814     1.007825032230

  Basis Set: AUG-CC-PVTZ
    Blend: AUG-CC-PVTZ
  Basis Set: (AUG-CC-PVTZ AUX)
    Blend: AUG-CC-PVTZ-JKFIT
	 Reference Energy          =    -386.0622206565213332 [Eh]
	 Singles Energy            =      -0.0000000000000000 [Eh]
	 Same-Spin Energy          =      -0.4001493572522564 [Eh]
	 Opposite-Spin Energy      =      -1.3781462547223917 [Eh]
	 Correlation Energy        =      -1.7782956119746480 [Eh]
	 Total Energy              =    -387.8405162684960032 [Eh]

	 ================> DF-SCS-MP2 Energies <==================
	-----------------------------------------------------------
	 SCS Same-Spin Scale       =       0.3333333333333333 [-]
	 SCS Opposite-Spin Scale   =       1.2000000000000000 [-]
	 SCS Same-Spin Energy      =      -0.1333831190840855 [Eh]
	 SCS Opposite-Spin Energy  =      -1.6537755056668699 [Eh]
	 SCS Correlation Energy    =      -1.7871586247509554 [Eh]
	 SCS Total Energy          =    -387.8493792812722631 [Eh]
	-----------------------------------------------------------

  Dipole Moment: [D]
     X:    -1.1731      Y:     0.6349      Z:     0.5735     Total:     1.4520

*** Psi4 exiting successfully. Buy a developer a beer!
