                               Psi4 1.3.2 release

  ==> Input File <==

--------------------------------------------------------------------------
#psi4
#
memory 32 gb

molecule  {
0 1
  O       -2.7848290    -0.9154220    -0.7447340
  C       -2.7698910    -0.0438090     0.3861860
  C       -1.3446020     0.1937550     0.7721520
  C        3.5873700    -0.2293000     0.2222030
  C       -3.4755630     1.2700040     0.0649850
  C       -0.2802220    -0.2946410     0.1124460
  C        2.1437146    -0.4744483    -0.0832832
  C        1.0922740    -0.0266840     0.5021560
  C        4.3244450     0.5343730    -0.8803810
  H       -3.2865450    -0.5271910     1.2335890
  H       -1.1970340     0.8260370     1.6487790
  H        3.5558010     0.3443970     1.1556760
  H        4.1142490    -1.1721620     0.4188690
  H       -2.9813020     1.7413150    -0.7875330
  H       -4.5277090     1.0956620    -0.1864690
  H       -3.4435650     1.9541860     0.9176610
  H       -0.4470010    -0.9272420    -0.7564190
  H        2.0063450    -1.1440610    -1.0244550
  H        1.2471430     0.6066220     1.3780870
  H        4.3142870    -0.0291260    -1.8177910
  H        5.3679410     0.7151030    -0.6066950
  H        3.8442820     1.4990380    -1.0633910
  H       -3.7175750    -1.0591810    -0.9792530
units angstrom
no_reorient  #important for SAPT in psi4, default
symmetry c1  #important for SAPT in psi4, default
}

set PROPERTIES_ORIGIN ["COM"]
properties('MP2/aug-cc-pvtz', properties = ['dipole'])
--------------------------------------------------------------------------

    Molecular point group: c1
  Charge       = 0
  Multiplicity = 1
  Basis Set: AUG-CC-PVTZ
    Blend: AUG-CC-PVTZ
  Basis Set: (AUG-CC-PVTZ AUX)
    Blend: AUG-CC-PVTZ-JKFIT

    Orbital Energies [Eh]
    ---------------------

    Doubly Occupied:

       1A    -20.559016     2A    -11.286981     3A    -11.224389
       4A    -11.224126     5A    -11.222733     6A    -11.222156
       7A    -11.221061     8A    -11.214483     9A    -11.214409
      10A     -1.361085    11A     -1.104754    12A     -1.062557
      13A     -1.018138    14A     -0.968763    15A     -0.877241
      16A     -0.833465    17A     -0.750186    18A     -0.739618
      19A     -0.695713    20A     -0.636268    21A     -0.630551
      22A     -0.617624    23A     -0.593215    24A     -0.584004
      25A     -0.546465    26A     -0.541020    27A     -0.526412
      28A     -0.522789    29A     -0.502850    30A     -0.492945
      31A     -0.478793    32A     -0.454069    33A     -0.451683
      34A     -0.425048    35A     -0.306521

  @DF-RHF Final Energy:  -386.05525512097518

   => Energetics <=

    Nuclear Repulsion Energy =            419.0704997773944456
    One-Electron Energy =               -1354.0292480597081521
    Two-Electron Energy =                 548.9034931613385879
    Total Energy =                       -386.0552551209751755
  Basis Set: (AUG-CC-PVTZ AUX)
    Blend: AUG-CC-PVTZ-RI
    Molecular point group: c1

    Geometry (in Angstrom), charge = 0, multiplicity = 1:

       Center              X                  Y                   Z               Mass
    ------------   -----------------  -----------------  -----------------  -----------------
         O           -2.782247554346    -0.919093538330    -0.750860596830    15.994914619570
         C           -2.767309554346    -0.047480538330     0.380059403170    12.000000000000
         C           -1.342020554346     0.190083461670     0.766025403170    12.000000000000
         C            3.589951445654    -0.232971538330     0.216076403170    12.000000000000
         C           -3.472981554346     1.266332461670     0.058858403170    12.000000000000
         C           -0.277640554346    -0.298312538330     0.106319403170    12.000000000000
         C            2.146296045654    -0.478119838330    -0.089409796830    12.000000000000
         C            1.094855445654    -0.030355538330     0.496029403170    12.000000000000
         C            4.327026445654     0.530701461670    -0.886507596830    12.000000000000
         H           -3.283963554346    -0.530862538330     1.227462403170     1.007825032230
         H           -1.194452554346     0.822365461670     1.642652403170     1.007825032230
         H            3.558382445654     0.340725461670     1.149549403170     1.007825032230
         H            4.116830445654    -1.175833538330     0.412742403170     1.007825032230
         H           -2.978720554346     1.737643461670    -0.793659596830     1.007825032230
         H           -4.525127554346     1.091990461670    -0.192595596830     1.007825032230
         H           -3.440983554346     1.950514461670     0.911534403170     1.007825032230
         H           -0.444419554346    -0.930913538330    -0.762545596830     1.007825032230
         H            2.008926445654    -1.147732538330    -1.030581596830     1.007825032230
         H            1.249724445654     0.602950461670     1.371960403170     1.007825032230
         H            4.316868445654    -0.032797538330    -1.823917596830     1.007825032230
         H            5.370522445654     0.711431461670    -0.612821596830     1.007825032230
         H            3.846863445654     1.495366461670    -1.069517596830     1.007825032230
         H           -3.714993554346    -1.062852538330    -0.985379596830     1.007825032230

  Basis Set: AUG-CC-PVTZ
    Blend: AUG-CC-PVTZ
  Basis Set: (AUG-CC-PVTZ AUX)
    Blend: AUG-CC-PVTZ-JKFIT
	 Reference Energy          =    -386.0552551209751755 [Eh]
	 Singles Energy            =      -0.0000000000000000 [Eh]
	 Same-Spin Energy          =      -0.4000114311014406 [Eh]
	 Opposite-Spin Energy      =      -1.3774467150165470 [Eh]
	 Correlation Energy        =      -1.7774581461179877 [Eh]
	 Total Energy              =    -387.8327132670931405 [Eh]

	 ================> DF-SCS-MP2 Energies <==================
	-----------------------------------------------------------
	 SCS Same-Spin Scale       =       0.3333333333333333 [-]
	 SCS Opposite-Spin Scale   =       1.2000000000000000 [-]
	 SCS Same-Spin Energy      =      -0.1333371437004802 [Eh]
	 SCS Opposite-Spin Energy  =      -1.6529360580198564 [Eh]
	 SCS Correlation Energy    =      -1.7862732017203367 [Eh]
	 SCS Total Energy          =    -387.8415283226955239 [Eh]
	-----------------------------------------------------------

  Dipole Moment: [D]
     X:    -1.1704      Y:     0.6850      Z:     0.5931     Total:     1.4802

*** Psi4 exiting successfully. Buy a developer a beer!
