                               Psi4 1.3.2 release

  ==> Input File <==

--------------------------------------------------------------------------
#psi4
#
memory 32 gb

molecule  {
0 1
  O       -2.7848290    -0.9154220    -0.7447340
  C       -2.7698910    -0.0438090     0.3861860
  C       -1.3446020     0.1937550     0.7721520
  C        3.5873700    -0.2293000     0.2222030
  C       -3.4404292     1.2782222     0.0258254
  C       -0.2802220    -0.2946410     0.1124460
  C        2.1660230    -0.5131760    -0.1475910
  C        1.0922740    -0.0266840     0.5021560
  C        4.3244450     0.5343730    -0.8803810
  H       -3.2612670    -0.5562038     1.2315750
  H       -1.1970340     0.8260370     1.6487790
  H        3.6131550     0.3461180     1.1547940
  H        4.1142490    -1.1721620     0.4188690
  H       -2.9813020     1.7413150    -0.7875330
  H       -4.5277090     1.0956620    -0.1864690
  H       -3.4435650     1.9541860     0.9176610
  H       -0.4470010    -0.9272420    -0.7564190
  H        2.0063450    -1.1440610    -1.0244550
  H        1.2471430     0.6066220     1.3780870
  H        4.3142870    -0.0291260    -1.8177910
  H        5.3679410     0.7151030    -0.6066950
  H        3.8442820     1.4990380    -1.0633910
  H       -3.7175750    -1.0591810    -0.9792530
units angstrom
no_reorient  #important for SAPT in psi4, default
symmetry c1  #important for SAPT in psi4, default
}

set PROPERTIES_ORIGIN ["COM"]
properties('MP2/aug-cc-pvtz', properties = ['dipole'])
--------------------------------------------------------------------------

    Molecular point group: c1
  Charge       = 0
  Multiplicity = 1
  Basis Set: AUG-CC-PVTZ
    Blend: AUG-CC-PVTZ
  Basis Set: (AUG-CC-PVTZ AUX)
    Blend: AUG-CC-PVTZ-JKFIT

    Orbital Energies [Eh]
    ---------------------

    Doubly Occupied:

       1A    -20.557327     2A    -11.286562     3A    -11.225656
       4A    -11.223312     5A    -11.223050     6A    -11.222692
       7A    -11.221940     8A    -11.221284     9A    -11.212780
      10A     -1.360411    11A     -1.097687    12A     -1.061380
      13A     -1.015785    14A     -0.962041    15A     -0.877225
      16A     -0.829276    17A     -0.752430    18A     -0.747809
      19A     -0.695536    20A     -0.636245    21A     -0.626977
      22A     -0.616094    23A     -0.588583    24A     -0.582582
      25A     -0.561792    26A     -0.540484    27A     -0.521533
      28A     -0.518824    29A     -0.500222    30A     -0.490255
      31A     -0.478715    32A     -0.466019    33A     -0.454052
      34A     -0.418624    35A     -0.297277

  @DF-RHF Final Energy:  -386.05898798916246

   => Energetics <=

    Nuclear Repulsion Energy =            418.5185432702813841
    One-Electron Energy =               -1352.9701404444786021
    Two-Electron Energy =                 548.3926091850347575
    Total Energy =                       -386.0589879891624605
  Basis Set: (AUG-CC-PVTZ AUX)
    Blend: AUG-CC-PVTZ-RI
    Molecular point group: c1

    Geometry (in Angstrom), charge = 0, multiplicity = 1:

       Center              X                  Y                   Z               Mass
    ------------   -----------------  -----------------  -----------------  -----------------
         O           -2.788374101869    -0.915972163056    -0.740991577041    15.994914619570
         C           -2.773436101869    -0.044359163056     0.389928422959    12.000000000000
         C           -1.348147101869     0.193204836944     0.775894422959    12.000000000000
         C            3.583824898131    -0.229850163056     0.225945422959    12.000000000000
         C           -3.443974301869     1.277672036944     0.029567822959    12.000000000000
         C           -0.283767101869    -0.295191163056     0.116188422959    12.000000000000
         C            2.162477898131    -0.513726163056    -0.143848577041    12.000000000000
         C            1.088728898131    -0.027234163056     0.505898422959    12.000000000000
         C            4.320899898131     0.533822836944    -0.876638577041    12.000000000000
         H           -3.264812101869    -0.556753963056     1.235317422959     1.007825032230
         H           -1.200579101869     0.825486836944     1.652521422959     1.007825032230
         H            3.609609898131     0.345567836944     1.158536422959     1.007825032230
         H            4.110703898131    -1.172712163056     0.422611422959     1.007825032230
         H           -2.984847101869     1.740764836944    -0.783790577041     1.007825032230
         H           -4.531254101869     1.095111836944    -0.182726577041     1.007825032230
         H           -3.447110101869     1.953635836944     0.921403422959     1.007825032230
         H           -0.450546101869    -0.927792163056    -0.752676577041     1.007825032230
         H            2.002799898131    -1.144611163056    -1.020712577041     1.007825032230
         H            1.243597898131     0.606071836944     1.381829422959     1.007825032230
         H            4.310741898131    -0.029676163056    -1.814048577041     1.007825032230
         H            5.364395898131     0.714552836944    -0.602952577041     1.007825032230
         H            3.840736898131     1.498487836944    -1.059648577041     1.007825032230
         H           -3.721120101869    -1.059731163056    -0.975510577041     1.007825032230

  Basis Set: AUG-CC-PVTZ
    Blend: AUG-CC-PVTZ
  Basis Set: (AUG-CC-PVTZ AUX)
    Blend: AUG-CC-PVTZ-JKFIT
	 Reference Energy          =    -386.0589879891624605 [Eh]
	 Singles Energy            =      -0.0000000000000000 [Eh]
	 Same-Spin Energy          =      -0.4003879797496375 [Eh]
	 Opposite-Spin Energy      =      -1.3784661343840521 [Eh]
	 Correlation Energy        =      -1.7788541141336895 [Eh]
	 Total Energy              =    -387.8378421032961683 [Eh]

	 ================> DF-SCS-MP2 Energies <==================
	-----------------------------------------------------------
	 SCS Same-Spin Scale       =       0.3333333333333333 [-]
	 SCS Opposite-Spin Scale   =       1.2000000000000000 [-]
	 SCS Same-Spin Energy      =      -0.1334626599165458 [Eh]
	 SCS Opposite-Spin Energy  =      -1.6541593612608625 [Eh]
	 SCS Correlation Energy    =      -1.7876220211774083 [Eh]
	 SCS Total Energy          =    -387.8466100103398730 [Eh]
	-----------------------------------------------------------

  Dipole Moment: [D]
     X:    -1.1561      Y:     0.6484      Z:     0.5772     Total:     1.4458

*** Psi4 exiting successfully. Buy a developer a beer!
