                               Psi4 1.3.2 release

  ==> Input File <==

--------------------------------------------------------------------------
#psi4
#
memory 32 gb

molecule  {
0 1
  O       -2.8222178    -0.9652285    -0.7033829
  C       -2.7698910    -0.0438090     0.3861860
  C       -1.3446020     0.1937550     0.7721520
  C        3.5873700    -0.2293000     0.2222030
  C       -3.4755630     1.2700040     0.0649850
  C       -0.2802220    -0.2946410     0.1124460
  C        2.1660230    -0.5131760    -0.1475910
  C        1.0922740    -0.0266840     0.5021560
  C        4.3244450     0.5343730    -0.8803810
  H       -3.2961178    -0.5729879     1.1996578
  H       -1.1970340     0.8260370     1.6487790
  H        3.6131550     0.3461180     1.1547940
  H        4.1142490    -1.1721620     0.4188690
  H       -2.9813020     1.7413150    -0.7875330
  H       -4.5277090     1.0956620    -0.1864690
  H       -3.4435650     1.9541860     0.9176610
  H       -0.4470010    -0.9272420    -0.7564190
  H        2.0063450    -1.1440610    -1.0244550
  H        1.2471430     0.6066220     1.3780870
  H        4.3142870    -0.0291260    -1.8177910
  H        5.3679410     0.7151030    -0.6066950
  H        3.8442820     1.4990380    -1.0633910
  H       -3.7175750    -1.0591810    -0.9792530
units angstrom
no_reorient  #important for SAPT in psi4, default
symmetry c1  #important for SAPT in psi4, default
}

set PROPERTIES_ORIGIN ["COM"]
properties('MP2/aug-cc-pvtz', properties = ['dipole'])
--------------------------------------------------------------------------

    Molecular point group: c1
  Charge       = 0
  Multiplicity = 1
  Basis Set: AUG-CC-PVTZ
    Blend: AUG-CC-PVTZ
  Basis Set: (AUG-CC-PVTZ AUX)
    Blend: AUG-CC-PVTZ-JKFIT

    Orbital Energies [Eh]
    ---------------------

    Doubly Occupied:

       1A    -20.552580     2A    -11.286350     3A    -11.226552
       4A    -11.224662     5A    -11.223797     6A    -11.223560
       7A    -11.222828     8A    -11.222263     9A    -11.213232
      10A     -1.364954    11A     -1.098681    12A     -1.062426
      13A     -1.016791    14A     -0.962975    15A     -0.877884
      16A     -0.830346    17A     -0.754639    18A     -0.750347
      19A     -0.693193    20A     -0.638625    21A     -0.627927
      22A     -0.621266    23A     -0.591454    24A     -0.584153
      25A     -0.546743    26A     -0.544211    27A     -0.527410
      28A     -0.519499    29A     -0.501834    30A     -0.491564
      31A     -0.479527    32A     -0.468854    33A     -0.450948
      34A     -0.418429    35A     -0.298174

  @DF-RHF Final Energy:  -386.06284756799027

   => Energetics <=

    Nuclear Repulsion Energy =            417.9319874187632422
    One-Electron Energy =               -1351.7523170294164174
    Two-Electron Energy =                 547.7574820426629003
    Total Energy =                       -386.0628475679902749
  Basis Set: (AUG-CC-PVTZ AUX)
    Blend: AUG-CC-PVTZ-RI
    Molecular point group: c1

    Geometry (in Angstrom), charge = 0, multiplicity = 1:

       Center              X                  Y                   Z               Mass
    ------------   -----------------  -----------------  -----------------  -----------------
         O           -2.817398727200    -0.958545100386    -0.708356707352    15.994914619570
         C           -2.765071927200    -0.037125600386     0.381212192648    12.000000000000
         C           -1.339782927200     0.200438399614     0.767178192648    12.000000000000
         C            3.592189072800    -0.222616600386     0.217229192648    12.000000000000
         C           -3.470743927200     1.276687399614     0.060011192648    12.000000000000
         C           -0.275402927200    -0.287957600386     0.107472192648    12.000000000000
         C            2.170842072800    -0.506492600386    -0.152564807352    12.000000000000
         C            1.097093072800    -0.020000600386     0.497182192648    12.000000000000
         C            4.329264072800     0.541056399614    -0.885354807352    12.000000000000
         H           -3.291298727200    -0.566304500386     1.194683992648     1.007825032230
         H           -1.192214927200     0.832720399614     1.643805192648     1.007825032230
         H            3.617974072800     0.352801399614     1.149820192648     1.007825032230
         H            4.119068072800    -1.165478600386     0.413895192648     1.007825032230
         H           -2.976482927200     1.747998399614    -0.792506807352     1.007825032230
         H           -4.522889927200     1.102345399614    -0.191442807352     1.007825032230
         H           -3.438745927200     1.960869399614     0.912687192648     1.007825032230
         H           -0.442181927200    -0.920558600386    -0.761392807352     1.007825032230
         H            2.011164072800    -1.137377600386    -1.029428807352     1.007825032230
         H            1.251962072800     0.613305399614     1.373113192648     1.007825032230
         H            4.319106072800    -0.022442600386    -1.822764807352     1.007825032230
         H            5.372760072800     0.721786399614    -0.611668807352     1.007825032230
         H            3.849101072800     1.505721399614    -1.068364807352     1.007825032230
         H           -3.712755927200    -1.052497600386    -0.984226807352     1.007825032230

  Basis Set: AUG-CC-PVTZ
    Blend: AUG-CC-PVTZ
  Basis Set: (AUG-CC-PVTZ AUX)
    Blend: AUG-CC-PVTZ-JKFIT
	 Reference Energy          =    -386.0628475679902749 [Eh]
	 Singles Energy            =      -0.0000000000000000 [Eh]
	 Same-Spin Energy          =      -0.3997670125521556 [Eh]
	 Opposite-Spin Energy      =      -1.3770580565977539 [Eh]
	 Correlation Energy        =      -1.7768250691499095 [Eh]
	 Total Energy              =    -387.8396726371402110 [Eh]

	 ================> DF-SCS-MP2 Energies <==================
	-----------------------------------------------------------
	 SCS Same-Spin Scale       =       0.3333333333333333 [-]
	 SCS Opposite-Spin Scale   =       1.2000000000000000 [-]
	 SCS Same-Spin Energy      =      -0.1332556708507185 [Eh]
	 SCS Opposite-Spin Energy  =      -1.6524696679173048 [Eh]
	 SCS Correlation Energy    =      -1.7857253387680232 [Eh]
	 SCS Total Energy          =    -387.8485729067583065 [Eh]
	-----------------------------------------------------------

  Dipole Moment: [D]
     X:    -1.0752      Y:     0.7853      Z:     0.5053     Total:     1.4241

*** Psi4 exiting successfully. Buy a developer a beer!
