                               Psi4 1.3.2 release

  ==> Input File <==

--------------------------------------------------------------------------
#psi4
#
memory 32 gb

molecule  {
0 1
  O       -2.7786158    -0.9239837    -0.7381488
  C       -2.7698910    -0.0438090     0.3861860
  C       -1.3446020     0.1937550     0.7721520
  C        3.5873700    -0.2293000     0.2222030
  C       -3.4730556     1.2743021     0.0773328
  C       -0.2802220    -0.2946410     0.1124460
  C        2.1660230    -0.5131760    -0.1475910
  C        1.0922740    -0.0266840     0.5021560
  C        4.3244450     0.5343730    -0.8803810
  H       -3.2865450    -0.5271910     1.2335890
  H       -1.1970340     0.8260370     1.6487790
  H        3.6131550     0.3461180     1.1547940
  H        4.1142490    -1.1721620     0.4188690
  H       -2.9813020     1.7413150    -0.7875330
  H       -4.5277090     1.0956620    -0.1864690
  H       -3.4435650     1.9541860     0.9176610
  H       -0.4470010    -0.9272420    -0.7564190
  H        2.0063450    -1.1440610    -1.0244550
  H        1.2471430     0.6066220     1.3780870
  H        4.3142870    -0.0291260    -1.8177910
  H        5.3679410     0.7151030    -0.6066950
  H        3.8442820     1.4990380    -1.0633910
  H       -3.7175750    -1.0591810    -0.9792530
units angstrom
no_reorient  #important for SAPT in psi4, default
symmetry c1  #important for SAPT in psi4, default
}

set PROPERTIES_ORIGIN ["COM"]
properties('MP2/aug-cc-pvtz', properties = ['dipole'])
--------------------------------------------------------------------------

    Molecular point group: c1
  Charge       = 0
  Multiplicity = 1
  Basis Set: AUG-CC-PVTZ
    Blend: AUG-CC-PVTZ
  Basis Set: (AUG-CC-PVTZ AUX)
    Blend: AUG-CC-PVTZ-JKFIT

    Orbital Energies [Eh]
    ---------------------

    Doubly Occupied:

       1A    -20.560063     2A    -11.286435     3A    -11.225741
       4A    -11.223431     5A    -11.223106     6A    -11.222815
       7A    -11.221494     8A    -11.221190     9A    -11.212787
      10A     -1.359920    11A     -1.097631    12A     -1.061226
      13A     -1.016249    14A     -0.962437    15A     -0.876444
      16A     -0.828417    17A     -0.752314    18A     -0.747476
      19A     -0.694245    20A     -0.637317    21A     -0.627039
      22A     -0.618771    23A     -0.590209    24A     -0.582607
      25A     -0.545367    26A     -0.543159    27A     -0.528635
      28A     -0.518785    29A     -0.500585    30A     -0.492668
      31A     -0.478998    32A     -0.467655    33A     -0.452919
      34A     -0.418096    35A     -0.297243

  @DF-RHF Final Energy:  -386.06178077811956

   => Energetics <=

    Nuclear Repulsion Energy =            418.2567215509976108
    One-Electron Energy =               -1352.4500557008730084
    Two-Electron Energy =                 548.1315533717558992
    Total Energy =                       -386.0617807781195552
  Basis Set: (AUG-CC-PVTZ AUX)
    Blend: AUG-CC-PVTZ-RI
    Molecular point group: c1

    Geometry (in Angstrom), charge = 0, multiplicity = 1:

       Center              X                  Y                   Z               Mass
    ------------   -----------------  -----------------  -----------------  -----------------
         O           -2.779642251974    -0.923306745251    -0.740159133464    15.994914619570
         C           -2.770917451974    -0.043132045251     0.384175666536    12.000000000000
         C           -1.345628451974     0.194431954749     0.770141666536    12.000000000000
         C            3.586343548026    -0.228623045251     0.220192666536    12.000000000000
         C           -3.474082051974     1.274979054749     0.075322466536    12.000000000000
         C           -0.281248451974    -0.293964045251     0.110435666536    12.000000000000
         C            2.164996548026    -0.512499045251    -0.149601333464    12.000000000000
         C            1.091247548026    -0.026007045251     0.500145666536    12.000000000000
         C            4.323418548026     0.535049954749    -0.882391333464    12.000000000000
         H           -3.287571451974    -0.526514045251     1.231578666536     1.007825032230
         H           -1.198060451974     0.826713954749     1.646768666536     1.007825032230
         H            3.612128548026     0.346794954749     1.152783666536     1.007825032230
         H            4.113222548026    -1.171485045251     0.416858666536     1.007825032230
         H           -2.982328451974     1.741991954749    -0.789543333464     1.007825032230
         H           -4.528735451974     1.096338954749    -0.188479333464     1.007825032230
         H           -3.444591451974     1.954862954749     0.915650666536     1.007825032230
         H           -0.448027451974    -0.926565045251    -0.758429333464     1.007825032230
         H            2.005318548026    -1.143384045251    -1.026465333464     1.007825032230
         H            1.246116548026     0.607298954749     1.376076666536     1.007825032230
         H            4.313260548026    -0.028449045251    -1.819801333464     1.007825032230
         H            5.366914548026     0.715779954749    -0.608705333464     1.007825032230
         H            3.843255548026     1.499714954749    -1.065401333464     1.007825032230
         H           -3.718601451974    -1.058504045251    -0.981263333464     1.007825032230

  Basis Set: AUG-CC-PVTZ
    Blend: AUG-CC-PVTZ
  Basis Set: (AUG-CC-PVTZ AUX)
    Blend: AUG-CC-PVTZ-JKFIT
	 Reference Energy          =    -386.0617807781195552 [Eh]
	 Singles Energy            =      -0.0000000000000000 [Eh]
	 Same-Spin Energy          =      -0.4004734161983006 [Eh]
	 Opposite-Spin Energy      =      -1.3785903359762330 [Eh]
	 Correlation Energy        =      -1.7790637521745336 [Eh]
	 Total Energy              =    -387.8408445302940777 [Eh]

	 ================> DF-SCS-MP2 Energies <==================
	-----------------------------------------------------------
	 SCS Same-Spin Scale       =       0.3333333333333333 [-]
	 SCS Opposite-Spin Scale   =       1.2000000000000000 [-]
	 SCS Same-Spin Energy      =      -0.1334911387327669 [Eh]
	 SCS Opposite-Spin Energy  =      -1.6543084031714796 [Eh]
	 SCS Correlation Energy    =      -1.7877995419042465 [Eh]
	 SCS Total Energy          =    -387.8495803200237901 [Eh]
	-----------------------------------------------------------

  Dipole Moment: [D]
     X:    -1.1798      Y:     0.6642      Z:     0.5654     Total:     1.4672

*** Psi4 exiting successfully. Buy a developer a beer!
