                               Psi4 1.3.2 release

  ==> Input File <==

--------------------------------------------------------------------------
#psi4
#
memory 32 gb

molecule  {
0 1
  O       -2.7848290    -0.9154220    -0.7447340
  C       -2.7698910    -0.0438090     0.3861860
  C       -1.3153101     0.2150443     0.8019828
  C        3.5873700    -0.2293000     0.2222030
  C       -3.4755630     1.2700040     0.0649850
  C       -0.2802220    -0.2946410     0.1124460
  C        2.1660230    -0.5131760    -0.1475910
  C        1.0749378     0.0013486     0.5406423
  C        4.3244450     0.5343730    -0.8803810
  H       -3.2865450    -0.5271910     1.2335890
  H       -1.1970340     0.8260370     1.6487790
  H        3.6131550     0.3461180     1.1547940
  H        4.1142490    -1.1721620     0.4188690
  H       -2.9813020     1.7413150    -0.7875330
  H       -4.5277090     1.0956620    -0.1864690
  H       -3.4435650     1.9541860     0.9176610
  H       -0.4470010    -0.9272420    -0.7564190
  H        2.0063450    -1.1440610    -1.0244550
  H        1.2471430     0.6066220     1.3780870
  H        4.3142870    -0.0291260    -1.8177910
  H        5.3679410     0.7151030    -0.6066950
  H        3.8442820     1.4990380    -1.0633910
  H       -3.7175750    -1.0591810    -0.9792530
units angstrom
no_reorient  #important for SAPT in psi4, default
symmetry c1  #important for SAPT in psi4, default
}

set PROPERTIES_ORIGIN ["COM"]
properties('MP2/aug-cc-pvtz', properties = ['dipole'])
--------------------------------------------------------------------------

    Molecular point group: c1
  Charge       = 0
  Multiplicity = 1
  Basis Set: AUG-CC-PVTZ
    Blend: AUG-CC-PVTZ
  Basis Set: (AUG-CC-PVTZ AUX)
    Blend: AUG-CC-PVTZ-JKFIT

    Orbital Energies [Eh]
    ---------------------

    Doubly Occupied:

       1A    -20.558886     2A    -11.286797     3A    -11.230951
       4A    -11.224837     5A    -11.223579     6A    -11.222612
       7A    -11.219961     8A    -11.219392     9A    -11.212489
      10A     -1.359683    11A     -1.094884    12A     -1.057882
      13A     -1.014083    14A     -0.957511    15A     -0.873591
      16A     -0.824581    17A     -0.758832    18A     -0.753700
      19A     -0.693360    20A     -0.636710    21A     -0.625274
      22A     -0.616153    23A     -0.592689    24A     -0.580877
      25A     -0.550555    26A     -0.543654    27A     -0.528894
      28A     -0.517617    29A     -0.508386    30A     -0.491658
      31A     -0.479637    32A     -0.461110    33A     -0.451016
      34A     -0.416081    35A     -0.290933

  @DF-RHF Final Energy:  -386.05509217421798

   => Energetics <=

    Nuclear Repulsion Energy =            417.5011803688004193
    One-Electron Energy =               -1350.9548326368724247
    Two-Electron Energy =                 547.3985600938540301
    Total Energy =                       -386.0550921742179753
  Basis Set: (AUG-CC-PVTZ AUX)
    Blend: AUG-CC-PVTZ-RI
    Molecular point group: c1

    Geometry (in Angstrom), charge = 0, multiplicity = 1:

       Center              X                  Y                   Z               Mass
    ------------   -----------------  -----------------  -----------------  -----------------
         O           -2.785966471013    -0.920115428132    -0.751235069679    15.994914619570
         C           -2.771028471013    -0.048502428132     0.379684930321    12.000000000000
         C           -1.316447571013     0.210350871868     0.795481730321    12.000000000000
         C            3.586232528987    -0.233993428132     0.215701930321    12.000000000000
         C           -3.476700471013     1.265310571868     0.058483930321    12.000000000000
         C           -0.281359471013    -0.299334428132     0.105944930321    12.000000000000
         C            2.164885528987    -0.517869428132    -0.154092069679    12.000000000000
         C            1.073800328987    -0.003344828132     0.534141230321    12.000000000000
         C            4.323307528987     0.529679571868    -0.886882069679    12.000000000000
         H           -3.287682471013    -0.531884428132     1.227087930321     1.007825032230
         H           -1.198171471013     0.821343571868     1.642277930321     1.007825032230
         H            3.612017528987     0.341424571868     1.148292930321     1.007825032230
         H            4.113111528987    -1.176855428132     0.412367930321     1.007825032230
         H           -2.982439471013     1.736621571868    -0.794034069679     1.007825032230
         H           -4.528846471013     1.090968571868    -0.192970069679     1.007825032230
         H           -3.444702471013     1.949492571868     0.911159930321     1.007825032230
         H           -0.448138471013    -0.931935428132    -0.762920069679     1.007825032230
         H            2.005207528987    -1.148754428132    -1.030956069679     1.007825032230
         H            1.246005528987     0.601928571868     1.371585930321     1.007825032230
         H            4.313149528987    -0.033819428132    -1.824292069679     1.007825032230
         H            5.366803528987     0.710409571868    -0.613196069679     1.007825032230
         H            3.843144528987     1.494344571868    -1.069892069679     1.007825032230
         H           -3.718712471013    -1.063874428132    -0.985754069679     1.007825032230

  Basis Set: AUG-CC-PVTZ
    Blend: AUG-CC-PVTZ
  Basis Set: (AUG-CC-PVTZ AUX)
    Blend: AUG-CC-PVTZ-JKFIT
	 Reference Energy          =    -386.0550921742179753 [Eh]
	 Singles Energy            =      -0.0000000000000000 [Eh]
	 Same-Spin Energy          =      -0.4005293743542078 [Eh]
	 Opposite-Spin Energy      =      -1.3792231531032417 [Eh]
	 Correlation Energy        =      -1.7797525274574495 [Eh]
	 Total Energy              =    -387.8348447016754221 [Eh]

	 ================> DF-SCS-MP2 Energies <==================
	-----------------------------------------------------------
	 SCS Same-Spin Scale       =       0.3333333333333333 [-]
	 SCS Opposite-Spin Scale   =       1.2000000000000000 [-]
	 SCS Same-Spin Energy      =      -0.1335097914514026 [Eh]
	 SCS Opposite-Spin Energy  =      -1.6550677837238901 [Eh]
	 SCS Correlation Energy    =      -1.7885775751752926 [Eh]
	 SCS Total Energy          =    -387.8436697493932570 [Eh]
	-----------------------------------------------------------

  Dipole Moment: [D]
     X:    -1.1358      Y:     0.6461      Z:     0.6063     Total:     1.4405

*** Psi4 exiting successfully. Buy a developer a beer!
