                               Psi4 1.3.2 release

  ==> Input File <==

--------------------------------------------------------------------------
#psi4
#
memory 32 gb

molecule  {
0 1
  O       -2.7848290    -0.9154220    -0.7447340
  C       -2.7677987     0.0782738     0.5445887
  C       -1.3446020     0.1937550     0.7721520
  C        3.5873700    -0.2293000     0.2222030
  C       -3.4755630     1.2700040     0.0649850
  C       -0.2802220    -0.2946410     0.1124460
  C        2.1660230    -0.5131760    -0.1475910
  C        1.0922740    -0.0266840     0.5021560
  C        4.3244450     0.5343730    -0.8803810
  H       -3.2865450    -0.5271910     1.2335890
  H       -1.1970340     0.8260370     1.6487790
  H        3.6131550     0.3461180     1.1547940
  H        4.1142490    -1.1721620     0.4188690
  H       -2.9813020     1.7413150    -0.7875330
  H       -4.5277090     1.0956620    -0.1864690
  H       -3.4435650     1.9541860     0.9176610
  H       -0.4470010    -0.9272420    -0.7564190
  H        2.0063450    -1.1440610    -1.0244550
  H        1.2471430     0.6066220     1.3780870
  H        4.3142870    -0.0291260    -1.8177910
  H        5.3679410     0.7151030    -0.6066950
  H        3.8442820     1.4990380    -1.0633910
  H       -3.7175750    -1.0591810    -0.9792530
units angstrom
no_reorient  #important for SAPT in psi4, default
symmetry c1  #important for SAPT in psi4, default
}

set PROPERTIES_ORIGIN ["COM"]
properties('MP2/aug-cc-pvtz', properties = ['dipole'])
--------------------------------------------------------------------------

    Molecular point group: c1
  Charge       = 0
  Multiplicity = 1
  Basis Set: AUG-CC-PVTZ
    Blend: AUG-CC-PVTZ
  Basis Set: (AUG-CC-PVTZ AUX)
    Blend: AUG-CC-PVTZ-JKFIT

    Orbital Energies [Eh]
    ---------------------

    Doubly Occupied:

       1A    -20.530039     2A    -11.292050     3A    -11.230834
       4A    -11.229885     5A    -11.226339     6A    -11.226069
       7A    -11.225488     8A    -11.224840     9A    -11.214635
      10A     -1.292885    11A     -1.103608    12A     -1.074219
      13A     -1.028547    14A     -0.969337    15A     -0.885531
      16A     -0.833551    17A     -0.756383    18A     -0.746543
      19A     -0.678528    20A     -0.639865    21A     -0.624564
      22A     -0.604202    23A     -0.592292    24A     -0.577076
      25A     -0.561493    26A     -0.544700    27A     -0.521278
      28A     -0.520266    29A     -0.503389    30A     -0.482413
      31A     -0.476625    32A     -0.457234    33A     -0.444324
      34A     -0.424791    35A     -0.302702

  @DF-RHF Final Energy:  -386.02875890612830

   => Energetics <=

    Nuclear Repulsion Energy =            417.0558576561502377
    One-Electron Energy =               -1350.0761841364364955
    Two-Electron Energy =                 546.9915675741580117
    Total Energy =                       -386.0287589061282461
  Basis Set: (AUG-CC-PVTZ AUX)
    Blend: AUG-CC-PVTZ-RI
    Molecular point group: c1

    Geometry (in Angstrom), charge = 0, multiplicity = 1:

       Center              X                  Y                   Z               Mass
    ------------   -----------------  -----------------  -----------------  -----------------
         O           -2.785027877761    -0.927039297160    -0.759807543298    15.994914619570
         C           -2.767997577761     0.066656502840     0.529515156702    12.000000000000
         C           -1.344800877761     0.182137702840     0.757078456702    12.000000000000
         C            3.587171122239    -0.240917297160     0.207129456702    12.000000000000
         C           -3.475761877761     1.258386702840     0.049911456702    12.000000000000
         C           -0.280420877761    -0.306258297160     0.097372456702    12.000000000000
         C            2.165824122239    -0.524793297160    -0.162664543298    12.000000000000
         C            1.092075122239    -0.038301297160     0.487082456702    12.000000000000
         C            4.324246122239     0.522755702840    -0.895454543298    12.000000000000
         H           -3.286743877761    -0.538808297160     1.218515456702     1.007825032230
         H           -1.197232877761     0.814419702840     1.633705456702     1.007825032230
         H            3.612956122239     0.334500702840     1.139720456702     1.007825032230
         H            4.114050122239    -1.183779297160     0.403795456702     1.007825032230
         H           -2.981500877761     1.729697702840    -0.802606543298     1.007825032230
         H           -4.527907877761     1.084044702840    -0.201542543298     1.007825032230
         H           -3.443763877761     1.942568702840     0.902587456702     1.007825032230
         H           -0.447199877761    -0.938859297160    -0.771492543298     1.007825032230
         H            2.006146122239    -1.155678297160    -1.039528543298     1.007825032230
         H            1.246944122239     0.595004702840     1.363013456702     1.007825032230
         H            4.314088122239    -0.040743297160    -1.832864543298     1.007825032230
         H            5.367742122239     0.703485702840    -0.621768543298     1.007825032230
         H            3.844083122239     1.487420702840    -1.078464543298     1.007825032230
         H           -3.717773877761    -1.070798297160    -0.994326543298     1.007825032230

  Basis Set: AUG-CC-PVTZ
    Blend: AUG-CC-PVTZ
  Basis Set: (AUG-CC-PVTZ AUX)
    Blend: AUG-CC-PVTZ-JKFIT
	 Reference Energy          =    -386.0287589061283029 [Eh]
	 Singles Energy            =      -0.0000000000000000 [Eh]
	 Same-Spin Energy          =      -0.4022023640613268 [Eh]
	 Opposite-Spin Energy      =      -1.3837825215979962 [Eh]
	 Correlation Energy        =      -1.7859848856593230 [Eh]
	 Total Energy              =    -387.8147437917876346 [Eh]

	 ================> DF-SCS-MP2 Energies <==================
	-----------------------------------------------------------
	 SCS Same-Spin Scale       =       0.3333333333333333 [-]
	 SCS Opposite-Spin Scale   =       1.2000000000000000 [-]
	 SCS Same-Spin Energy      =      -0.1340674546871089 [Eh]
	 SCS Opposite-Spin Energy  =      -1.6605390259175954 [Eh]
	 SCS Correlation Energy    =      -1.7946064806047044 [Eh]
	 SCS Total Energy          =    -387.8233653867330304 [Eh]
	-----------------------------------------------------------

  Dipole Moment: [D]
     X:    -0.9204      Y:     1.0725      Z:     0.9801     Total:     1.7199

*** Psi4 exiting successfully. Buy a developer a beer!
