                               Psi4 1.4a3.dev225

  ==> Input File <==

--------------------------------------------------------------------------
#psi4
#
memory 32 gb

molecule  {
0 1
  O       -2.7624640     1.3159430     0.2248240
  C       -2.8209640    -0.0168770    -0.2887760
  C       -1.4198970    -0.4865040    -0.5315690
  C        3.5469730    -0.0618850    -0.4287090
  C       -3.5485140    -0.9406360     0.6857820
  C       -0.3124200     0.2274490    -0.2577540
  C        2.1505970     0.4383770    -0.2221580
  C        1.0805994    -0.2860126    -0.4940243
  C        4.3265940    -0.1505530     0.8872490
  H       -3.3622360    -0.0200820    -1.2509840
  H       -1.3293920    -1.4912640    -0.9473420
  H        3.5136740    -1.0471260    -0.9088000
  H        4.0812660     0.6062640    -1.1173180
  H       -3.0279280    -0.9272120     1.6463760
  H       -4.5820380    -0.6089360     0.8383050
  H       -3.5770120    -1.9680220     0.3103630
  H       -0.4219900     1.2292040     0.1523950
  H        2.0485920     1.4434520     0.1930580
  H        1.1311650    -1.2755230    -0.8987060
  H        4.3778580     0.8269450     1.3761990
  H        5.3504770    -0.4972710     0.7173650
  H        3.8373540    -0.8453320     1.5752720
  H       -3.6799020     1.6047450     0.3678300
units angstrom
no_reorient  #important for SAPT in psi4, default
symmetry c1  #important for SAPT in psi4, default
}

set PROPERTIES_ORIGIN ["COM"]
properties('MP2/aug-cc-pvtz', properties = ['dipole'])
--------------------------------------------------------------------------

    Molecular point group: c1
  Charge       = 0
  Multiplicity = 1
  Basis Set: AUG-CC-PVTZ
    Blend: AUG-CC-PVTZ
  Basis Set: (AUG-CC-PVTZ AUX)
    Blend: AUG-CC-PVTZ-JKFIT

    Orbital Energies [Eh]
    ---------------------

    Doubly Occupied:

       1A    -20.558494     2A    -11.286711     3A    -11.225972
       4A    -11.223208     5A    -11.222315     6A    -11.222238
       7A    -11.221216     8A    -11.220663     9A    -11.212727
      10A     -1.359796    11A     -1.096480    12A     -1.060645
      13A     -1.012653    14A     -0.964583    15A     -0.872958
      16A     -0.828776    17A     -0.754103    18A     -0.746217
      19A     -0.694284    20A     -0.636962    21A     -0.625068
      22A     -0.616828    23A     -0.592892    24A     -0.579910
      25A     -0.546431    26A     -0.543488    27A     -0.531128
      28A     -0.518359    29A     -0.501472    30A     -0.492695
      31A     -0.480607    32A     -0.460018    33A     -0.451987
      34A     -0.414650    35A     -0.304237

  @DF-RHF Final Energy:  -386.06161708505795

   => Energetics <=

    Nuclear Repulsion Energy =            417.5434367629467260
    One-Electron Energy =               -1351.0485658214286104
    Two-Electron Energy =                 547.4435119734239379
    Total Energy =                       -386.0616170850579465
  Basis Set: (AUG-CC-PVTZ AUX)
    Blend: AUG-CC-PVTZ-RI
    Molecular point group: c1

    Geometry (in Angstrom), charge = 0, multiplicity = 1:

       Center              X                  Y                   Z               Mass
    ------------   -----------------  -----------------  -----------------  -----------------
         O           -2.732681146923     1.294252275999     0.241741602374    15.994914619570
         C           -2.791181146923    -0.038567724001    -0.271858397626    12.000000000000
         C           -1.390114146923    -0.508194724001    -0.514651397626    12.000000000000
         C            3.576755853077    -0.083575724001    -0.411791397626    12.000000000000
         C           -3.518731146923    -0.962326724001     0.702699602374    12.000000000000
         C           -0.282637146923     0.205758275999    -0.240836397626    12.000000000000
         C            2.180379853077     0.416686275999    -0.205240397626    12.000000000000
         C            1.110382253077    -0.307703324001    -0.477106697626    12.000000000000
         C            4.356376853077    -0.172243724001     0.904166602374    12.000000000000
         H           -3.332453146923    -0.041772724001    -1.234066397626     1.007825032230
         H           -1.299609146923    -1.512954724001    -0.930424397626     1.007825032230
         H            3.543456853077    -1.068816724001    -0.891882397626     1.007825032230
         H            4.111048853077     0.584573275999    -1.100400397626     1.007825032230
         H           -2.998145146923    -0.948902724001     1.663293602374     1.007825032230
         H           -4.552255146923    -0.630626724001     0.855222602374     1.007825032230
         H           -3.547229146923    -1.989712724001     0.327280602374     1.007825032230
         H           -0.392207146923     1.207513275999     0.169312602374     1.007825032230
         H            2.078374853077     1.421761275999     0.209975602374     1.007825032230
         H            1.160947853077    -1.297213724001    -0.881788397626     1.007825032230
         H            4.407640853077     0.805254275999     1.393116602374     1.007825032230
         H            5.380259853077    -0.518961724001     0.734282602374     1.007825032230
         H            3.867136853077    -0.867022724001     1.592189602374     1.007825032230
         H           -3.650119146923     1.583054275999     0.384747602374     1.007825032230

  Basis Set: AUG-CC-PVTZ
    Blend: AUG-CC-PVTZ
  Basis Set: (AUG-CC-PVTZ AUX)
    Blend: AUG-CC-PVTZ-JKFIT
	 Reference Energy          =    -386.0616170850579465 [Eh]
	 Singles Energy            =      -0.0000000000000000 [Eh]
	 Same-Spin Energy          =      -0.3993836588702502 [Eh]
	 Opposite-Spin Energy      =      -1.3772614525406419 [Eh]
	 Correlation Energy        =      -1.7766451114108921 [Eh]
	 Total Energy              =    -387.8382621964688610 [Eh]

	 ================> DF-SCS-MP2 Energies <==================
	-----------------------------------------------------------
	 SCS Same-Spin Scale       =       0.3333333333333333 [-]
	 SCS Opposite-Spin Scale   =       1.2000000000000000 [-]
	 SCS Same-Spin Energy      =      -0.1331278862900834 [Eh]
	 SCS Opposite-Spin Energy  =      -1.6527137430487702 [Eh]
	 SCS Correlation Energy    =      -1.7858416293388535 [Eh]
	 SCS Total Energy          =    -387.8474587143967938 [Eh]
	-----------------------------------------------------------

  Dipole Moment: [D]
     X:    -1.1788      Y:    -0.7952      Z:    -0.1505     Total:     1.4298

*** Psi4 exiting successfully. Buy a developer a beer!
