                               Psi4 1.3.2 release

  ==> Input File <==

--------------------------------------------------------------------------
#psi4
#
memory 32 gb

molecule  {
0 1
  O       -2.7848290    -0.9154220    -0.7447340
  C       -2.7698910    -0.0438090     0.3861860
  C       -1.3446020     0.1937550     0.7721520
  C        3.5873700    -0.2293000     0.2222030
  C       -3.4755630     1.2700040     0.0649850
  C       -0.2802220    -0.2946410     0.1124460
  C        2.1660230    -0.5131760    -0.1475910
  C        1.0880965    -0.0195967     0.5117896
  C        4.3244450     0.5343730    -0.8803810
  H       -3.2865450    -0.5271910     1.2335890
  H       -1.1970340     0.8260370     1.6487790
  H        3.6131550     0.3461180     1.1547940
  H        4.1142490    -1.1721620     0.4188690
  H       -2.9813020     1.7413150    -0.7875330
  H       -4.5277090     1.0956620    -0.1864690
  H       -3.4435650     1.9541860     0.9176610
  H       -0.4563731    -0.9262851    -0.7552649
  H        2.0063450    -1.1440610    -1.0244550
  H        1.2471430     0.6066220     1.3780870
  H        4.3142870    -0.0291260    -1.8177910
  H        5.3679410     0.7151030    -0.6066950
  H        3.8442820     1.4990380    -1.0633910
  H       -3.7175750    -1.0591810    -0.9792530
units angstrom
no_reorient  #important for SAPT in psi4, default
symmetry c1  #important for SAPT in psi4, default
}

set PROPERTIES_ORIGIN ["COM"]
properties('MP2/aug-cc-pvtz', properties = ['dipole'])
--------------------------------------------------------------------------

    Molecular point group: c1
  Charge       = 0
  Multiplicity = 1
  Basis Set: AUG-CC-PVTZ
    Blend: AUG-CC-PVTZ
  Basis Set: (AUG-CC-PVTZ AUX)
    Blend: AUG-CC-PVTZ-JKFIT

    Orbital Energies [Eh]
    ---------------------

    Doubly Occupied:

       1A    -20.558765     2A    -11.286273     3A    -11.227365
       4A    -11.224025     5A    -11.223156     6A    -11.223008
       7A    -11.221424     8A    -11.220531     9A    -11.212843
      10A     -1.360804    11A     -1.097015    12A     -1.061017
      13A     -1.015962    14A     -0.961418    15A     -0.876574
      16A     -0.828194    17A     -0.753566    18A     -0.748049
      19A     -0.695272    20A     -0.637256    21A     -0.627094
      22A     -0.617367    23A     -0.590194    24A     -0.582731
      25A     -0.546476    26A     -0.543515    27A     -0.528017
      28A     -0.518450    29A     -0.501071    30A     -0.492987
      31A     -0.479259    32A     -0.468550    33A     -0.452798
      34A     -0.417439    35A     -0.295798

  @DF-RHF Final Energy:  -386.06192160331392

   => Energetics <=

    Nuclear Repulsion Energy =            418.1851580785241822
    One-Electron Energy =               -1352.3056340584271311
    Two-Electron Energy =                 548.0585543765889724
    Total Energy =                       -386.0619216033139764
  Basis Set: (AUG-CC-PVTZ AUX)
    Blend: AUG-CC-PVTZ-RI
    Molecular point group: c1

    Geometry (in Angstrom), charge = 0, multiplicity = 1:

       Center              X                  Y                   Z               Mass
    ------------   -----------------  -----------------  -----------------  -----------------
         O           -2.784356346924    -0.916104064919    -0.745660018322    15.994914619570
         C           -2.769418346924    -0.044491064919     0.385259981678    12.000000000000
         C           -1.344129346924     0.193072935081     0.771225981678    12.000000000000
         C            3.587842653076    -0.229982064919     0.221276981678    12.000000000000
         C           -3.475090346924     1.269321935081     0.064058981678    12.000000000000
         C           -0.279749346924    -0.295323064919     0.111519981678    12.000000000000
         C            2.166495653076    -0.513858064919    -0.148517018322    12.000000000000
         C            1.088569153076    -0.020278764919     0.510863581678    12.000000000000
         C            4.324917653076     0.533690935081    -0.881307018322    12.000000000000
         H           -3.286072346924    -0.527873064919     1.232662981678     1.007825032230
         H           -1.196561346924     0.825354935081     1.647852981678     1.007825032230
         H            3.613627653076     0.345435935081     1.153867981678     1.007825032230
         H            4.114721653076    -1.172844064919     0.417942981678     1.007825032230
         H           -2.980829346924     1.740632935081    -0.788459018322     1.007825032230
         H           -4.527236346924     1.094979935081    -0.187395018322     1.007825032230
         H           -3.443092346924     1.953503935081     0.916734981678     1.007825032230
         H           -0.455900446924    -0.926967164919    -0.756190918322     1.007825032230
         H            2.006817653076    -1.144743064919    -1.025381018322     1.007825032230
         H            1.247615653076     0.605939935081     1.377160981678     1.007825032230
         H            4.314759653076    -0.029808064919    -1.818717018322     1.007825032230
         H            5.368413653076     0.714420935081    -0.607621018322     1.007825032230
         H            3.844754653076     1.498355935081    -1.064317018322     1.007825032230
         H           -3.717102346924    -1.059863064919    -0.980179018322     1.007825032230

  Basis Set: AUG-CC-PVTZ
    Blend: AUG-CC-PVTZ
  Basis Set: (AUG-CC-PVTZ AUX)
    Blend: AUG-CC-PVTZ-JKFIT
	 Reference Energy          =    -386.0619216033139196 [Eh]
	 Singles Energy            =      -0.0000000000000000 [Eh]
	 Same-Spin Energy          =      -0.4004667042122924 [Eh]
	 Opposite-Spin Energy      =      -1.3785643052010639 [Eh]
	 Correlation Energy        =      -1.7790310094133561 [Eh]
	 Total Energy              =    -387.8409526127272784 [Eh]

	 ================> DF-SCS-MP2 Energies <==================
	-----------------------------------------------------------
	 SCS Same-Spin Scale       =       0.3333333333333333 [-]
	 SCS Opposite-Spin Scale   =       1.2000000000000000 [-]
	 SCS Same-Spin Energy      =      -0.1334889014040974 [Eh]
	 SCS Opposite-Spin Energy  =      -1.6542771662412765 [Eh]
	 SCS Correlation Energy    =      -1.7877660676453739 [Eh]
	 SCS Total Energy          =    -387.8496876709592698 [Eh]
	-----------------------------------------------------------

  Dipole Moment: [D]
     X:    -1.1594      Y:     0.6433      Z:     0.5814     Total:     1.4478

*** Psi4 exiting successfully. Buy a developer a beer!
