                               Psi4 1.4a3.dev225

  ==> Input File <==

--------------------------------------------------------------------------
#psi4
#
memory 32 gb

molecule  {
0 1
  O       -2.7624640     1.3159430     0.2248240
  C       -2.8209640    -0.0168770    -0.2887760
  C       -1.4198970    -0.4865040    -0.5315690
  C        3.5469730    -0.0618850    -0.4287090
  C       -3.5485140    -0.9406360     0.6857820
  C       -0.3124200     0.2274490    -0.2577540
  C        2.1505970     0.4383770    -0.2221580
  C        1.0342680    -0.2689350    -0.4861660
  C        4.3265940    -0.1505530     0.8872490
  H       -3.3622360    -0.0200820    -1.2509840
  H       -1.3277331    -1.5096806    -0.9549628
  H        3.5136740    -1.0471260    -0.9088000
  H        4.0812660     0.6062640    -1.1173180
  H       -3.0279280    -0.9272120     1.6463760
  H       -4.5820380    -0.6089360     0.8383050
  H       -3.5770120    -1.9680220     0.3103630
  H       -0.4219900     1.2292040     0.1523950
  H        2.0485920     1.4434520     0.1930580
  H        1.1311650    -1.2755230    -0.8987060
  H        4.3778580     0.8269450     1.3761990
  H        5.3504770    -0.4972710     0.7173650
  H        3.8373540    -0.8453320     1.5752720
  H       -3.6799020     1.6047450     0.3678300
units angstrom
no_reorient  #important for SAPT in psi4, default
symmetry c1  #important for SAPT in psi4, default
}

set PROPERTIES_ORIGIN ["COM"]
properties('MP2/aug-cc-pvtz', properties = ['dipole'])
--------------------------------------------------------------------------

    Molecular point group: c1
  Charge       = 0
  Multiplicity = 1
  Basis Set: AUG-CC-PVTZ
    Blend: AUG-CC-PVTZ
  Basis Set: (AUG-CC-PVTZ AUX)
    Blend: AUG-CC-PVTZ-JKFIT

    Orbital Energies [Eh]
    ---------------------

    Doubly Occupied:

       1A    -20.558993     2A    -11.287286     3A    -11.226546
       4A    -11.225989     5A    -11.224051     6A    -11.223690
       7A    -11.223076     8A    -11.220968     9A    -11.213240
      10A     -1.360320    11A     -1.096944    12A     -1.060359
      13A     -1.015690    14A     -0.961888    15A     -0.876338
      16A     -0.828499    17A     -0.752321    18A     -0.745461
      19A     -0.694945    20A     -0.636976    21A     -0.626866
      22A     -0.616740    23A     -0.589728    24A     -0.582230
      25A     -0.546049    26A     -0.542866    27A     -0.527241
      28A     -0.518355    29A     -0.500206    30A     -0.492564
      31A     -0.479301    32A     -0.467772    33A     -0.452967
      34A     -0.417985    35A     -0.297443

  @DF-RHF Final Energy:  -386.06173598330747

   => Energetics <=

    Nuclear Repulsion Energy =            417.6538956726703304
    One-Electron Energy =               -1351.2474779873775788
    Two-Electron Energy =                 547.5318463313997199
    Total Energy =                       -386.0617359833074715
  Basis Set: (AUG-CC-PVTZ AUX)
    Blend: AUG-CC-PVTZ-RI
    Molecular point group: c1

    Geometry (in Angstrom), charge = 0, multiplicity = 1:

       Center              X                  Y                   Z               Mass
    ------------   -----------------  -----------------  -----------------  -----------------
         O           -2.728285545873     1.292774370443     0.241054718155    15.994914619570
         C           -2.786785545873    -0.040045629557    -0.272545281845    12.000000000000
         C           -1.385718545873    -0.509672629557    -0.515338281845    12.000000000000
         C            3.581151454127    -0.085053629557    -0.412478281845    12.000000000000
         C           -3.514335545873    -0.963804629557     0.702012718155    12.000000000000
         C           -0.278241545873     0.204280370443    -0.241523281845    12.000000000000
         C            2.184775454127     0.415208370443    -0.205927281845    12.000000000000
         C            1.068446454127    -0.292103629557    -0.469935281845    12.000000000000
         C            4.360772454127    -0.173721629557     0.903479718155    12.000000000000
         H           -3.328057545873    -0.043250629557    -1.234753281845     1.007825032230
         H           -1.293554645873    -1.532849229557    -0.938732081845     1.007825032230
         H            3.547852454127    -1.070294629557    -0.892569281845     1.007825032230
         H            4.115444454127     0.583095370443    -1.101087281845     1.007825032230
         H           -2.993749545873    -0.950380629557     1.662606718155     1.007825032230
         H           -4.547859545873    -0.632104629557     0.854535718155     1.007825032230
         H           -3.542833545873    -1.991190629557     0.326593718155     1.007825032230
         H           -0.387811545873     1.206035370443     0.168625718155     1.007825032230
         H            2.082770454127     1.420283370443     0.209288718155     1.007825032230
         H            1.165343454127    -1.298691629557    -0.882475281845     1.007825032230
         H            4.412036454127     0.803776370443     1.392429718155     1.007825032230
         H            5.384655454127    -0.520439629557     0.733595718155     1.007825032230
         H            3.871532454127    -0.868500629557     1.591502718155     1.007825032230
         H           -3.645723545873     1.581576370443     0.384060718155     1.007825032230

  Basis Set: AUG-CC-PVTZ
    Blend: AUG-CC-PVTZ
  Basis Set: (AUG-CC-PVTZ AUX)
    Blend: AUG-CC-PVTZ-JKFIT
	 Reference Energy          =    -386.0617359833074715 [Eh]
	 Singles Energy            =      -0.0000000000000000 [Eh]
	 Same-Spin Energy          =      -0.4003093403987986 [Eh]
	 Opposite-Spin Energy      =      -1.3785586648356591 [Eh]
	 Correlation Energy        =      -1.7788680052344579 [Eh]
	 Total Energy              =    -387.8406039885419432 [Eh]

	 ================> DF-SCS-MP2 Energies <==================
	-----------------------------------------------------------
	 SCS Same-Spin Scale       =       0.3333333333333333 [-]
	 SCS Opposite-Spin Scale   =       1.2000000000000000 [-]
	 SCS Same-Spin Energy      =      -0.1334364467995995 [Eh]
	 SCS Opposite-Spin Energy  =      -1.6542703978027908 [Eh]
	 SCS Correlation Energy    =      -1.7877068446023903 [Eh]
	 SCS Total Energy          =    -387.8494428279098543 [Eh]
	-----------------------------------------------------------

  Dipole Moment: [D]
     X:    -1.2011      Y:    -0.7862      Z:    -0.1397     Total:     1.4423

*** Psi4 exiting successfully. Buy a developer a beer!
