                               Psi4 1.3.2 release

  ==> Input File <==

--------------------------------------------------------------------------
#psi4
#
memory 32 gb

molecule  {
0 1
  O       -2.7848290    -0.9154220    -0.7447340
  C       -2.7737838    -0.0365876     0.3963370
  C       -1.3446020     0.1937550     0.7721520
  C        3.5873700    -0.2293000     0.2222030
  C       -3.4755630     1.2700040     0.0649850
  C       -0.2731032    -0.2893956     0.1201526
  C        2.1660230    -0.5131760    -0.1475910
  C        1.0922740    -0.0266840     0.5021560
  C        4.3244450     0.5343730    -0.8803810
  H       -3.2865450    -0.5271910     1.2335890
  H       -1.1970340     0.8260370     1.6487790
  H        3.6131550     0.3461180     1.1547940
  H        4.1142490    -1.1721620     0.4188690
  H       -2.9813020     1.7413150    -0.7875330
  H       -4.5277090     1.0956620    -0.1864690
  H       -3.4435650     1.9541860     0.9176610
  H       -0.4470010    -0.9272420    -0.7564190
  H        2.0063450    -1.1440610    -1.0244550
  H        1.2471430     0.6066220     1.3780870
  H        4.3142870    -0.0291260    -1.8177910
  H        5.3679410     0.7151030    -0.6066950
  H        3.8442820     1.4990380    -1.0633910
  H       -3.7175750    -1.0591810    -0.9792530
units angstrom
no_reorient  #important for SAPT in psi4, default
symmetry c1  #important for SAPT in psi4, default
}

set PROPERTIES_ORIGIN ["COM"]
properties('MP2/aug-cc-pvtz', properties = ['dipole'])
--------------------------------------------------------------------------

    Molecular point group: c1
  Charge       = 0
  Multiplicity = 1
  Basis Set: AUG-CC-PVTZ
    Blend: AUG-CC-PVTZ
  Basis Set: (AUG-CC-PVTZ AUX)
    Blend: AUG-CC-PVTZ-JKFIT

    Orbital Energies [Eh]
    ---------------------

    Doubly Occupied:

       1A    -20.557279     2A    -11.286617     3A    -11.226447
       4A    -11.223845     5A    -11.223487     6A    -11.222792
       7A    -11.221963     8A    -11.220967     9A    -11.213075
      10A     -1.355828    11A     -1.098800    12A     -1.061793
      13A     -1.017811    14A     -0.962921    15A     -0.877503
      16A     -0.828986    17A     -0.753516    18A     -0.745827
      19A     -0.694304    20A     -0.635923    21A     -0.628608
      22A     -0.616422    23A     -0.590212    24A     -0.582992
      25A     -0.546171    26A     -0.544085    27A     -0.526158
      28A     -0.518914    29A     -0.498482    30A     -0.492146
      31A     -0.479437    32A     -0.469299    33A     -0.453804
      34A     -0.420098    35A     -0.297249

  @DF-RHF Final Energy:  -386.06177156129201

   => Energetics <=

    Nuclear Repulsion Energy =            418.1995222790642401
    One-Electron Energy =               -1352.3350703404641990
    Two-Electron Energy =                 548.0737765001080106
    Total Energy =                       -386.0617715612919483
  Basis Set: (AUG-CC-PVTZ AUX)
    Blend: AUG-CC-PVTZ-RI
    Molecular point group: c1

    Geometry (in Angstrom), charge = 0, multiplicity = 1:

       Center              X                  Y                   Z               Mass
    ------------   -----------------  -----------------  -----------------  -----------------
         O           -2.785135759746    -0.916608326304    -0.746433384032    15.994914619570
         C           -2.774090559746    -0.037773926304     0.394637615968    12.000000000000
         C           -1.344908759746     0.192568673696     0.770452615968    12.000000000000
         C            3.587063240254    -0.230486326304     0.220503615968    12.000000000000
         C           -3.475869759746     1.268817673696     0.063285615968    12.000000000000
         C           -0.273409959746    -0.290581926304     0.118453215968    12.000000000000
         C            2.165716240254    -0.514362326304    -0.149290384032    12.000000000000
         C            1.091967240254    -0.027870326304     0.500456615968    12.000000000000
         C            4.324138240254     0.533186673696    -0.882080384032    12.000000000000
         H           -3.286851759746    -0.528377326304     1.231889615968     1.007825032230
         H           -1.197340759746     0.824850673696     1.647079615968     1.007825032230
         H            3.612848240254     0.344931673696     1.153094615968     1.007825032230
         H            4.113942240254    -1.173348326304     0.417169615968     1.007825032230
         H           -2.981608759746     1.740128673696    -0.789232384032     1.007825032230
         H           -4.528015759746     1.094475673696    -0.188168384032     1.007825032230
         H           -3.443871759746     1.952999673696     0.915961615968     1.007825032230
         H           -0.447307759746    -0.928428326304    -0.758118384032     1.007825032230
         H            2.006038240254    -1.145247326304    -1.026154384032     1.007825032230
         H            1.246836240254     0.605435673696     1.376387615968     1.007825032230
         H            4.313980240254    -0.030312326304    -1.819490384032     1.007825032230
         H            5.367634240254     0.713916673696    -0.608394384032     1.007825032230
         H            3.843975240254     1.497851673696    -1.065090384032     1.007825032230
         H           -3.717881759746    -1.060367326304    -0.980952384032     1.007825032230

  Basis Set: AUG-CC-PVTZ
    Blend: AUG-CC-PVTZ
  Basis Set: (AUG-CC-PVTZ AUX)
    Blend: AUG-CC-PVTZ-JKFIT
	 Reference Energy          =    -386.0617715612920051 [Eh]
	 Singles Energy            =      -0.0000000000000000 [Eh]
	 Same-Spin Energy          =      -0.4005276176890626 [Eh]
	 Opposite-Spin Energy      =      -1.3786933339244236 [Eh]
	 Correlation Energy        =      -1.7792209516134863 [Eh]
	 Total Energy              =    -387.8409925129054727 [Eh]

	 ================> DF-SCS-MP2 Energies <==================
	-----------------------------------------------------------
	 SCS Same-Spin Scale       =       0.3333333333333333 [-]
	 SCS Opposite-Spin Scale   =       1.2000000000000000 [-]
	 SCS Same-Spin Energy      =      -0.1335092058963542 [Eh]
	 SCS Opposite-Spin Energy  =      -1.6544320007093083 [Eh]
	 SCS Correlation Energy    =      -1.7879412066056626 [Eh]
	 SCS Total Energy          =    -387.8497127678976426 [Eh]
	-----------------------------------------------------------

  Dipole Moment: [D]
     X:    -1.1464      Y:     0.6708      Z:     0.6042     Total:     1.4592

*** Psi4 exiting successfully. Buy a developer a beer!
