                               Psi4 1.3.2 release

  ==> Input File <==

--------------------------------------------------------------------------
#psi4
#
memory 32 gb

molecule  {
0 1
  O       -2.7848290    -0.9154220    -0.7447340
  C       -2.7698910    -0.0438090     0.3861860
  C       -1.3446020     0.1937550     0.7721520
  C        3.5873700    -0.2293000     0.2222030
  C       -3.5098370     1.2601851     0.1045359
  C       -0.2802220    -0.2946410     0.1124460
  C        2.1660230    -0.5131760    -0.1475910
  C        1.0922740    -0.0266840     0.5021560
  C        4.3244450     0.5343730    -0.8803810
  H       -3.3111936    -0.4975893     1.2345705
  H       -1.1970340     0.8260370     1.6487790
  H        3.6131550     0.3461180     1.1547940
  H        4.1142490    -1.1721620     0.4188690
  H       -2.9813020     1.7413150    -0.7875330
  H       -4.5277090     1.0956620    -0.1864690
  H       -3.4435650     1.9541860     0.9176610
  H       -0.4470010    -0.9272420    -0.7564190
  H        2.0063450    -1.1440610    -1.0244550
  H        1.2471430     0.6066220     1.3780870
  H        4.3142870    -0.0291260    -1.8177910
  H        5.3679410     0.7151030    -0.6066950
  H        3.8442820     1.4990380    -1.0633910
  H       -3.7175750    -1.0591810    -0.9792530
units angstrom
no_reorient  #important for SAPT in psi4, default
symmetry c1  #important for SAPT in psi4, default
}

set PROPERTIES_ORIGIN ["COM"]
properties('MP2/aug-cc-pvtz', properties = ['dipole'])
--------------------------------------------------------------------------

    Molecular point group: c1
  Charge       = 0
  Multiplicity = 1
  Basis Set: AUG-CC-PVTZ
    Blend: AUG-CC-PVTZ
  Basis Set: (AUG-CC-PVTZ AUX)
    Blend: AUG-CC-PVTZ-JKFIT

    Orbital Energies [Eh]
    ---------------------

    Doubly Occupied:

       1A    -20.560268     2A    -11.286851     3A    -11.226230
       4A    -11.224180     5A    -11.223476     6A    -11.223276
       7A    -11.222346     8A    -11.220429     9A    -11.212982
      10A     -1.361328    11A     -1.098033    12A     -1.061468
      13A     -1.016840    14A     -0.963204    15A     -0.876589
      16A     -0.828405    17A     -0.752659    18A     -0.748391
      19A     -0.695509    20A     -0.638959    21A     -0.627896
      22A     -0.618304    23A     -0.592905    24A     -0.583230
      25A     -0.551456    26A     -0.534874    27A     -0.527147
      28A     -0.518277    29A     -0.501144    30A     -0.493468
      31A     -0.479470    32A     -0.469339    33A     -0.450249
      34A     -0.417607    35A     -0.297673

  @DF-RHF Final Energy:  -386.05906681110861

   => Energetics <=

    Nuclear Repulsion Energy =            418.0405419020164004
    One-Electron Energy =               -1351.9902900348633921
    Two-Electron Energy =                 547.8906813217382705
    Total Energy =                       -386.0590668111086643
  Basis Set: (AUG-CC-PVTZ AUX)
    Blend: AUG-CC-PVTZ-RI
    Molecular point group: c1

    Geometry (in Angstrom), charge = 0, multiplicity = 1:

       Center              X                  Y                   Z               Mass
    ------------   -----------------  -----------------  -----------------  -----------------
         O           -2.781370298500    -0.914724213274    -0.748505545237    15.994914619570
         C           -2.766432298500    -0.043111213274     0.382414454763    12.000000000000
         C           -1.341143298500     0.194452786726     0.768380454763    12.000000000000
         C            3.590828701500    -0.228602213274     0.218431454763    12.000000000000
         C           -3.506378298500     1.260882886726     0.100764354763    12.000000000000
         C           -0.276763298500    -0.293943213274     0.108674454763    12.000000000000
         C            2.169481701500    -0.512478213274    -0.151362545237    12.000000000000
         C            1.095732701500    -0.025986213274     0.498384454763    12.000000000000
         C            4.327903701500     0.535070786726    -0.884152545237    12.000000000000
         H           -3.307734898500    -0.496891513274     1.230798954763     1.007825032230
         H           -1.193575298500     0.826734786726     1.645007454763     1.007825032230
         H            3.616613701500     0.346815786726     1.151022454763     1.007825032230
         H            4.117707701500    -1.171464213274     0.415097454763     1.007825032230
         H           -2.977843298500     1.742012786726    -0.791304545237     1.007825032230
         H           -4.524250298500     1.096359786726    -0.190240545237     1.007825032230
         H           -3.440106298500     1.954883786726     0.913889454763     1.007825032230
         H           -0.443542298500    -0.926544213274    -0.760190545237     1.007825032230
         H            2.009803701500    -1.143363213274    -1.028226545237     1.007825032230
         H            1.250601701500     0.607319786726     1.374315454763     1.007825032230
         H            4.317745701500    -0.028428213274    -1.821562545237     1.007825032230
         H            5.371399701500     0.715800786726    -0.610466545237     1.007825032230
         H            3.847740701500     1.499735786726    -1.067162545237     1.007825032230
         H           -3.714116298500    -1.058483213274    -0.983024545237     1.007825032230

  Basis Set: AUG-CC-PVTZ
    Blend: AUG-CC-PVTZ
  Basis Set: (AUG-CC-PVTZ AUX)
    Blend: AUG-CC-PVTZ-JKFIT
	 Reference Energy          =    -386.0590668111086075 [Eh]
	 Singles Energy            =      -0.0000000000000000 [Eh]
	 Same-Spin Energy          =      -0.4004483851161021 [Eh]
	 Opposite-Spin Energy      =      -1.3784956721200201 [Eh]
	 Correlation Energy        =      -1.7789440572361221 [Eh]
	 Total Energy              =    -387.8380108683447247 [Eh]

	 ================> DF-SCS-MP2 Energies <==================
	-----------------------------------------------------------
	 SCS Same-Spin Scale       =       0.3333333333333333 [-]
	 SCS Opposite-Spin Scale   =       1.2000000000000000 [-]
	 SCS Same-Spin Energy      =      -0.1334827950387007 [Eh]
	 SCS Opposite-Spin Energy  =      -1.6541948065440242 [Eh]
	 SCS Correlation Energy    =      -1.7876776015827249 [Eh]
	 SCS Total Energy          =    -387.8467444126913506 [Eh]
	-----------------------------------------------------------

  Dipole Moment: [D]
     X:    -1.1612      Y:     0.6266      Z:     0.5837     Total:     1.4428

*** Psi4 exiting successfully. Buy a developer a beer!
