                               Psi4 1.3.2 release

  ==> Input File <==

--------------------------------------------------------------------------
#psi4
#
memory 32 gb

molecule  {
0 1
  O       -2.7848290    -0.9154220    -0.7447340
  C       -2.8197058    -0.0427789     0.3849518
  C       -1.3446020     0.1937550     0.7721520
  C        3.5873700    -0.2293000     0.2222030
  C       -3.4755630     1.2700040     0.0649850
  C       -0.2802220    -0.2946410     0.1124460
  C        2.1660230    -0.5131760    -0.1475910
  C        1.0922740    -0.0266840     0.5021560
  C        4.3244450     0.5343730    -0.8803810
  H       -3.2865450    -0.5271910     1.2335890
  H       -1.1970340     0.8260370     1.6487790
  H        3.6131550     0.3461180     1.1547940
  H        4.1142490    -1.1721620     0.4188690
  H       -2.9813020     1.7413150    -0.7875330
  H       -4.5277090     1.0956620    -0.1864690
  H       -3.4435650     1.9541860     0.9176610
  H       -0.4470010    -0.9272420    -0.7564190
  H        2.0063450    -1.1440610    -1.0244550
  H        1.2471430     0.6066220     1.3780870
  H        4.3142870    -0.0291260    -1.8177910
  H        5.3679410     0.7151030    -0.6066950
  H        3.8442820     1.4990380    -1.0633910
  H       -3.7265471    -1.0389656    -0.9535041
units angstrom
no_reorient  #important for SAPT in psi4, default
symmetry c1  #important for SAPT in psi4, default
}

set PROPERTIES_ORIGIN ["COM"]
properties('MP2/aug-cc-pvtz', properties = ['dipole'])
--------------------------------------------------------------------------

    Molecular point group: c1
  Charge       = 0
  Multiplicity = 1
  Basis Set: AUG-CC-PVTZ
    Blend: AUG-CC-PVTZ
  Basis Set: (AUG-CC-PVTZ AUX)
    Blend: AUG-CC-PVTZ-JKFIT

    Orbital Energies [Eh]
    ---------------------

    Doubly Occupied:

       1A    -20.561325     2A    -11.286196     3A    -11.225138
       4A    -11.223751     5A    -11.222818     6A    -11.222565
       7A    -11.221157     8A    -11.220991     9A    -11.212466
      10A     -1.364027    11A     -1.095875    12A     -1.058421
      13A     -1.018558    14A     -0.962436    15A     -0.873356
      16A     -0.828327    17A     -0.752584    18A     -0.744960
      19A     -0.697619    20A     -0.636279    21A     -0.627233
      22A     -0.620424    23A     -0.590115    24A     -0.581485
      25A     -0.551243    26A     -0.543951    27A     -0.526964
      28A     -0.517849    29A     -0.500543    30A     -0.490671
      31A     -0.478112    32A     -0.461900    33A     -0.456540
      34A     -0.419743    35A     -0.297436

  @DF-RHF Final Energy:  -386.05931846962312

   => Energetics <=

    Nuclear Repulsion Energy =            417.8835983863548904
    One-Electron Energy =               -1351.6997108609523366
    Two-Electron Energy =                 547.7567940049743811
    Total Energy =                       -386.0593184696231219
  Basis Set: (AUG-CC-PVTZ AUX)
    Blend: AUG-CC-PVTZ-RI
    Molecular point group: c1

    Geometry (in Angstrom), charge = 0, multiplicity = 1:

       Center              X                  Y                   Z               Mass
    ------------   -----------------  -----------------  -----------------  -----------------
         O           -2.780016734764    -0.915681580262    -0.744822408450    15.994914619570
         C           -2.814893534764    -0.043038480262     0.384863391550    12.000000000000
         C           -1.339789734764     0.193495419738     0.772063591550    12.000000000000
         C            3.592182265236    -0.229559580262     0.222114591550    12.000000000000
         C           -3.470750734764     1.269744419738     0.064896591550    12.000000000000
         C           -0.275409734764    -0.294900580262     0.112357591550    12.000000000000
         C            2.170835265236    -0.513435580262    -0.147679408450    12.000000000000
         C            1.097086265236    -0.026943580262     0.502067591550    12.000000000000
         C            4.329257265236     0.534113419738    -0.880469408450    12.000000000000
         H           -3.281732734764    -0.527450580262     1.233500591550     1.007825032230
         H           -1.192221734764     0.825777419738     1.648690591550     1.007825032230
         H            3.617967265236     0.345858419738     1.154705591550     1.007825032230
         H            4.119061265236    -1.172421580262     0.418780591550     1.007825032230
         H           -2.976489734764     1.741055419738    -0.787621408450     1.007825032230
         H           -4.522896734764     1.095402419738    -0.186557408450     1.007825032230
         H           -3.438752734764     1.953926419738     0.917572591550     1.007825032230
         H           -0.442188734764    -0.927501580262    -0.756507408450     1.007825032230
         H            2.011157265236    -1.144320580262    -1.024543408450     1.007825032230
         H            1.251955265236     0.606362419738     1.377998591550     1.007825032230
         H            4.319099265236    -0.029385580262    -1.817879408450     1.007825032230
         H            5.372753265236     0.714843419738    -0.606783408450     1.007825032230
         H            3.849094265236     1.498778419738    -1.063479408450     1.007825032230
         H           -3.721734834764    -1.039225180262    -0.953592508450     1.007825032230

  Basis Set: AUG-CC-PVTZ
    Blend: AUG-CC-PVTZ
  Basis Set: (AUG-CC-PVTZ AUX)
    Blend: AUG-CC-PVTZ-JKFIT
	 Reference Energy          =    -386.0593184696231219 [Eh]
	 Singles Energy            =      -0.0000000000000000 [Eh]
	 Same-Spin Energy          =      -0.4003929744757959 [Eh]
	 Opposite-Spin Energy      =      -1.3787542400244914 [Eh]
	 Correlation Energy        =      -1.7791472145002873 [Eh]
	 Total Energy              =    -387.8384656841234346 [Eh]

	 ================> DF-SCS-MP2 Energies <==================
	-----------------------------------------------------------
	 SCS Same-Spin Scale       =       0.3333333333333333 [-]
	 SCS Opposite-Spin Scale   =       1.2000000000000000 [-]
	 SCS Same-Spin Energy      =      -0.1334643248252653 [Eh]
	 SCS Opposite-Spin Energy  =      -1.6545050880293897 [Eh]
	 SCS Correlation Energy    =      -1.7879694128546550 [Eh]
	 SCS Total Energy          =    -387.8472878824777581 [Eh]
	-----------------------------------------------------------

  Dipole Moment: [D]
     X:    -1.2459      Y:     0.6800      Z:     0.6005     Total:     1.5412

*** Psi4 exiting successfully. Buy a developer a beer!
