                               Psi4 1.3.2 release

  ==> Input File <==

--------------------------------------------------------------------------
#psi4
#
memory 32 gb

molecule  {
0 1
  O       -2.7848290    -0.9154220    -0.7447340
  C       -2.7698910    -0.0438090     0.3861860
  C       -1.4399000     0.1778709     0.7463454
  C        3.5873700    -0.2293000     0.2222030
  C       -3.4755630     1.2700040     0.0649850
  C       -0.2802220    -0.2946410     0.1124460
  C        2.1660230    -0.5131760    -0.1475910
  C        1.0922740    -0.0266840     0.5021560
  C        4.3244450     0.5343730    -0.8803810
  H       -3.2865450    -0.5271910     1.2335890
  H       -1.1970340     0.8260370     1.6487790
  H        3.6131550     0.3461180     1.1547940
  H        4.1142490    -1.1721620     0.4188690
  H       -2.9813020     1.7413150    -0.7875330
  H       -4.5277090     1.0956620    -0.1864690
  H       -3.4435650     1.9541860     0.9176610
  H       -0.4470010    -0.9272420    -0.7564190
  H        2.0063450    -1.1440610    -1.0244550
  H        1.2471430     0.6066220     1.3780870
  H        4.3142870    -0.0291260    -1.8177910
  H        5.3679410     0.7151030    -0.6066950
  H        3.8442820     1.4990380    -1.0633910
  H       -3.7175750    -1.0591810    -0.9792530
units angstrom
no_reorient  #important for SAPT in psi4, default
symmetry c1  #important for SAPT in psi4, default
}

set PROPERTIES_ORIGIN ["COM"]
properties('MP2/aug-cc-pvtz', properties = ['dipole'])
--------------------------------------------------------------------------

    Molecular point group: c1
  Charge       = 0
  Multiplicity = 1
  Basis Set: AUG-CC-PVTZ
    Blend: AUG-CC-PVTZ
  Basis Set: (AUG-CC-PVTZ AUX)
    Blend: AUG-CC-PVTZ-JKFIT

    Orbital Energies [Eh]
    ---------------------

    Doubly Occupied:

       1A    -20.559386     2A    -11.282074     3A    -11.230847
       4A    -11.228987     5A    -11.227928     6A    -11.225523
       7A    -11.224166     8A    -11.222056     9A    -11.213491
      10A     -1.363808    11A     -1.096987    12A     -1.069532
      13A     -1.017893    14A     -0.959210    15A     -0.885834
      16A     -0.830069    17A     -0.753367    18A     -0.741976
      19A     -0.700406    20A     -0.638938    21A     -0.629113
      22A     -0.619480    23A     -0.591898    24A     -0.579365
      25A     -0.548282    26A     -0.538811    27A     -0.531605
      28A     -0.518676    29A     -0.504798    30A     -0.484389
      31A     -0.481577    32A     -0.475049    33A     -0.455988
      34A     -0.412196    35A     -0.288522

  @DF-RHF Final Energy:  -386.04491877391490

   => Energetics <=

    Nuclear Repulsion Energy =            418.6680578304880669
    One-Electron Energy =               -1353.1614989099025479
    Two-Electron Energy =                 548.4485223054995231
    Total Energy =                       -386.0449187739149011
  Basis Set: (AUG-CC-PVTZ AUX)
    Blend: AUG-CC-PVTZ-RI
    Molecular point group: c1

    Geometry (in Angstrom), charge = 0, multiplicity = 1:

       Center              X                  Y                   Z               Mass
    ------------   -----------------  -----------------  -----------------  -----------------
         O           -2.775760294735    -0.913910477344    -0.742278333696    15.994914619570
         C           -2.760822294735    -0.042297477344     0.388641666304    12.000000000000
         C           -1.430831294735     0.179382422656     0.748801066304    12.000000000000
         C            3.596438705265    -0.227788477344     0.224658666304    12.000000000000
         C           -3.466494294735     1.271515522656     0.067440666304    12.000000000000
         C           -0.271153294735    -0.293129477344     0.114901666304    12.000000000000
         C            2.175091705265    -0.511664477344    -0.145135333696    12.000000000000
         C            1.101342705265    -0.025172477344     0.504611666304    12.000000000000
         C            4.333513705265     0.535884522656    -0.877925333696    12.000000000000
         H           -3.277476294735    -0.525679477344     1.236044666304     1.007825032230
         H           -1.187965294735     0.827548522656     1.651234666304     1.007825032230
         H            3.622223705265     0.347629522656     1.157249666304     1.007825032230
         H            4.123317705265    -1.170650477344     0.421324666304     1.007825032230
         H           -2.972233294735     1.742826522656    -0.785077333696     1.007825032230
         H           -4.518640294735     1.097173522656    -0.184013333696     1.007825032230
         H           -3.434496294735     1.955697522656     0.920116666304     1.007825032230
         H           -0.437932294735    -0.925730477344    -0.753963333696     1.007825032230
         H            2.015413705265    -1.142549477344    -1.021999333696     1.007825032230
         H            1.256211705265     0.608133522656     1.380542666304     1.007825032230
         H            4.323355705265    -0.027614477344    -1.815335333696     1.007825032230
         H            5.377009705265     0.716614522656    -0.604239333696     1.007825032230
         H            3.853350705265     1.500549522656    -1.060935333696     1.007825032230
         H           -3.708506294735    -1.057669477344    -0.976797333696     1.007825032230

  Basis Set: AUG-CC-PVTZ
    Blend: AUG-CC-PVTZ
  Basis Set: (AUG-CC-PVTZ AUX)
    Blend: AUG-CC-PVTZ-JKFIT
	 Reference Energy          =    -386.0449187739149011 [Eh]
	 Singles Energy            =      -0.0000000000000000 [Eh]
	 Same-Spin Energy          =      -0.4025771189904596 [Eh]
	 Opposite-Spin Energy      =      -1.3816437010891283 [Eh]
	 Correlation Energy        =      -1.7842208200795877 [Eh]
	 Total Energy              =    -387.8291395939945119 [Eh]

	 ================> DF-SCS-MP2 Energies <==================
	-----------------------------------------------------------
	 SCS Same-Spin Scale       =       0.3333333333333333 [-]
	 SCS Opposite-Spin Scale   =       1.2000000000000000 [-]
	 SCS Same-Spin Energy      =      -0.1341923729968199 [Eh]
	 SCS Opposite-Spin Energy  =      -1.6579724413069539 [Eh]
	 SCS Correlation Energy    =      -1.7921648143037738 [Eh]
	 SCS Total Energy          =    -387.8370835882186611 [Eh]
	-----------------------------------------------------------

  Dipole Moment: [D]
     X:    -1.1790      Y:     0.6484      Z:     0.5706     Total:     1.4615

*** Psi4 exiting successfully. Buy a developer a beer!
