                               Psi4 1.3.2 release

  ==> Input File <==

--------------------------------------------------------------------------
#psi4
#
memory 32 gb

molecule  {
0 1
  O       -2.7848290    -0.9154220    -0.7447340
  C       -2.7698910    -0.0438090     0.3861860
  C       -1.3446020     0.1937550     0.7721520
  C        3.5873700    -0.2293000     0.2222030
  C       -3.4755630     1.2700040     0.0649850
  C       -0.2802220    -0.2946410     0.1124460
  C        2.1660230    -0.5131760    -0.1475910
  C        1.0922740    -0.0266840     0.5021560
  C        4.3244450     0.5343730    -0.8803810
  H       -3.2865450    -0.5271910     1.2335890
  H       -1.2240887     0.7101162     1.4880606
  H        3.6131550     0.3461180     1.1547940
  H        4.1142490    -1.1721620     0.4188690
  H       -2.9813020     1.7413150    -0.7875330
  H       -4.5277090     1.0956620    -0.1864690
  H       -3.4435650     1.9541860     0.9176610
  H       -0.4470010    -0.9272420    -0.7564190
  H        2.0063450    -1.1440610    -1.0244550
  H        1.2471430     0.6066220     1.3780870
  H        4.3142870    -0.0291260    -1.8177910
  H        5.3679410     0.7151030    -0.6066950
  H        3.8442820     1.4990380    -1.0633910
  H       -3.7175750    -1.0591810    -0.9792530
units angstrom
no_reorient  #important for SAPT in psi4, default
symmetry c1  #important for SAPT in psi4, default
}

set PROPERTIES_ORIGIN ["COM"]
properties('MP2/aug-cc-pvtz', properties = ['dipole'])
--------------------------------------------------------------------------

    Molecular point group: c1
  Charge       = 0
  Multiplicity = 1
  Basis Set: AUG-CC-PVTZ
    Blend: AUG-CC-PVTZ
  Basis Set: (AUG-CC-PVTZ AUX)
    Blend: AUG-CC-PVTZ-JKFIT

    Orbital Energies [Eh]
    ---------------------

    Doubly Occupied:

       1A    -20.557346     2A    -11.284461     3A    -11.226047
       4A    -11.223349     5A    -11.223124     6A    -11.221313
       7A    -11.220586     8A    -11.212922     9A    -11.197848
      10A     -1.359311    11A     -1.101117    12A     -1.066022
      13A     -1.015810    14A     -0.966190    15A     -0.878669
      16A     -0.828475    17A     -0.781281    18A     -0.751803
      19A     -0.694710    20A     -0.636885    21A     -0.630812
      22A     -0.616637    23A     -0.597556    24A     -0.585837
      25A     -0.553347    26A     -0.544134    27A     -0.527869
      28A     -0.520008    29A     -0.504545    30A     -0.491645
      31A     -0.479186    32A     -0.468299    33A     -0.451826
      34A     -0.417725    35A     -0.296964

  @DF-RHF Final Energy:  -386.02851270829490

   => Energetics <=

    Nuclear Repulsion Energy =            419.3700522223362555
    One-Electron Energy =               -1354.5298102082060723
    Two-Electron Energy =                 549.1312452775749762
    Total Energy =                       -386.0285127082948975
  Basis Set: (AUG-CC-PVTZ AUX)
    Blend: AUG-CC-PVTZ-RI
    Molecular point group: c1

    Geometry (in Angstrom), charge = 0, multiplicity = 1:

       Center              X                  Y                   Z               Mass
    ------------   -----------------  -----------------  -----------------  -----------------
         O           -2.784612555402    -0.914495558260    -0.743449610012    15.994914619570
         C           -2.769674555402    -0.042882558260     0.387470389988    12.000000000000
         C           -1.344385555402     0.194681441740     0.773436389988    12.000000000000
         C            3.587586444598    -0.228373558260     0.223487389988    12.000000000000
         C           -3.475346555402     1.270930441740     0.066269389988    12.000000000000
         C           -0.280005555402    -0.293714558260     0.113730389988    12.000000000000
         C            2.166239444598    -0.512249558260    -0.146306610012    12.000000000000
         C            1.092490444598    -0.025757558260     0.503440389988    12.000000000000
         C            4.324661444598     0.535299441740    -0.879096610012    12.000000000000
         H           -3.286328555402    -0.526264558260     1.234873389988     1.007825032230
         H           -1.223872255402     0.711042641740     1.489344989988     1.007825032230
         H            3.613371444598     0.347044441740     1.156078389988     1.007825032230
         H            4.114465444598    -1.171235558260     0.420153389988     1.007825032230
         H           -2.981085555402     1.742241441740    -0.786248610012     1.007825032230
         H           -4.527492555402     1.096588441740    -0.185184610012     1.007825032230
         H           -3.443348555402     1.955112441740     0.918945389988     1.007825032230
         H           -0.446784555402    -0.926315558260    -0.755134610012     1.007825032230
         H            2.006561444598    -1.143134558260    -1.023170610012     1.007825032230
         H            1.247359444598     0.607548441740     1.379371389988     1.007825032230
         H            4.314503444598    -0.028199558260    -1.816506610012     1.007825032230
         H            5.368157444598     0.716029441740    -0.605410610012     1.007825032230
         H            3.844498444598     1.499964441740    -1.062106610012     1.007825032230
         H           -3.717358555402    -1.058254558260    -0.977968610012     1.007825032230

  Basis Set: AUG-CC-PVTZ
    Blend: AUG-CC-PVTZ
  Basis Set: (AUG-CC-PVTZ AUX)
    Blend: AUG-CC-PVTZ-JKFIT
	 Reference Energy          =    -386.0285127082948975 [Eh]
	 Singles Energy            =      -0.0000000000000000 [Eh]
	 Same-Spin Energy          =      -0.4001323257323158 [Eh]
	 Opposite-Spin Energy      =      -1.3776406010175353 [Eh]
	 Correlation Energy        =      -1.7777729267498512 [Eh]
	 Total Energy              =    -387.8062856350447305 [Eh]

	 ================> DF-SCS-MP2 Energies <==================
	-----------------------------------------------------------
	 SCS Same-Spin Scale       =       0.3333333333333333 [-]
	 SCS Opposite-Spin Scale   =       1.2000000000000000 [-]
	 SCS Same-Spin Energy      =      -0.1333774419107719 [Eh]
	 SCS Opposite-Spin Energy  =      -1.6531687212210422 [Eh]
	 SCS Correlation Energy    =      -1.7865461631318142 [Eh]
	 SCS Total Energy          =    -387.8150588714266860 [Eh]
	-----------------------------------------------------------

  Dipole Moment: [D]
     X:    -1.1311      Y:     0.6762      Z:     0.6267     Total:     1.4592

*** Psi4 exiting successfully. Buy a developer a beer!
