                               Psi4 1.3.2 release

  ==> Input File <==

--------------------------------------------------------------------------
#psi4
#
memory 32 gb

molecule  {
0 1
  O       -2.7848290    -0.9154220    -0.7447340
  C       -2.7698910    -0.0438090     0.3861860
  C       -1.3446020     0.1937550     0.7721520
  C        3.5873700    -0.2293000     0.2222030
  C       -3.4755630     1.2700040     0.0649850
  C       -0.2802220    -0.2946410     0.1124460
  C        2.1660230    -0.5131760    -0.1475910
  C        1.0838147    -0.0125303     0.5213928
  C        4.3244450     0.5343730    -0.8803810
  H       -3.2865450    -0.5271910     1.2335890
  H       -1.1970340     0.8260370     1.6487790
  H        3.6131550     0.3461180     1.1547940
  H        4.1142490    -1.1721620     0.4188690
  H       -2.9813020     1.7413150    -0.7875330
  H       -4.5277090     1.0956620    -0.1864690
  H       -3.4435650     1.9541860     0.9176610
  H       -0.4657318    -0.9252800    -0.7540447
  H        2.0063450    -1.1440610    -1.0244550
  H        1.2471430     0.6066220     1.3780870
  H        4.3142870    -0.0291260    -1.8177910
  H        5.3679410     0.7151030    -0.6066950
  H        3.8442820     1.4990380    -1.0633910
  H       -3.7175750    -1.0591810    -0.9792530
units angstrom
no_reorient  #important for SAPT in psi4, default
symmetry c1  #important for SAPT in psi4, default
}

set PROPERTIES_ORIGIN ["COM"]
properties('MP2/aug-cc-pvtz', properties = ['dipole'])
--------------------------------------------------------------------------

    Molecular point group: c1
  Charge       = 0
  Multiplicity = 1
  Basis Set: AUG-CC-PVTZ
    Blend: AUG-CC-PVTZ
  Basis Set: (AUG-CC-PVTZ AUX)
    Blend: AUG-CC-PVTZ-JKFIT

    Orbital Energies [Eh]
    ---------------------

    Doubly Occupied:

       1A    -20.558804     2A    -11.286083     3A    -11.228857
       4A    -11.224656     5A    -11.223106     6A    -11.222792
       7A    -11.221023     8A    -11.220433     9A    -11.212817
      10A     -1.360845    11A     -1.096273    12A     -1.060722
      13A     -1.015816    14A     -0.960380    15A     -0.876499
      16A     -0.827791    17A     -0.755057    18A     -0.747740
      19A     -0.695357    20A     -0.637175    21A     -0.626744
      22A     -0.617401    23A     -0.590286    24A     -0.582394
      25A     -0.546447    26A     -0.543599    27A     -0.528727
      28A     -0.517931    29A     -0.501483    30A     -0.493474
      31A     -0.479456    32A     -0.468780    33A     -0.452742
      34A     -0.416652    35A     -0.294122

  @DF-RHF Final Energy:  -386.06073718707103

   => Energetics <=

    Nuclear Repulsion Energy =            418.1010006633212583
    One-Electron Energy =               -1352.1385482403691185
    Two-Electron Energy =                 547.9768103899768903
    Total Energy =                       -386.0607371870710267
  Basis Set: (AUG-CC-PVTZ AUX)
    Blend: AUG-CC-PVTZ-RI
    Molecular point group: c1

    Geometry (in Angstrom), charge = 0, multiplicity = 1:

       Center              X                  Y                   Z               Mass
    ------------   -----------------  -----------------  -----------------  -----------------
         O           -2.783874099669    -0.916784530634    -0.746583602971    15.994914619570
         C           -2.768936099669    -0.045171530634     0.384336397029    12.000000000000
         C           -1.343647099669     0.192392469366     0.770302397029    12.000000000000
         C            3.588324900331    -0.230662530634     0.220353397029    12.000000000000
         C           -3.474608099669     1.268641469366     0.063135397029    12.000000000000
         C           -0.279267099669    -0.296003530634     0.110596397029    12.000000000000
         C            2.166977900331    -0.514538530634    -0.149440602971    12.000000000000
         C            1.084769600331    -0.013892830634     0.519543197029    12.000000000000
         C            4.325399900331     0.533010469366    -0.882230602971    12.000000000000
         H           -3.285590099669    -0.528553530634     1.231739397029     1.007825032230
         H           -1.196079099669     0.824674469366     1.646929397029     1.007825032230
         H            3.614109900331     0.344755469366     1.152944397029     1.007825032230
         H            4.115203900331    -1.173524530634     0.417019397029     1.007825032230
         H           -2.980347099669     1.739952469366    -0.789382602971     1.007825032230
         H           -4.526754099669     1.094299469366    -0.188318602971     1.007825032230
         H           -3.442610099669     1.952823469366     0.915811397029     1.007825032230
         H           -0.464776899669    -0.926642530634    -0.755894302971     1.007825032230
         H            2.007299900331    -1.145423530634    -1.026304602971     1.007825032230
         H            1.248097900331     0.605259469366     1.376237397029     1.007825032230
         H            4.315241900331    -0.030488530634    -1.819640602971     1.007825032230
         H            5.368895900331     0.713740469366    -0.608544602971     1.007825032230
         H            3.845236900331     1.497675469366    -1.065240602971     1.007825032230
         H           -3.716620099669    -1.060543530634    -0.981102602971     1.007825032230

  Basis Set: AUG-CC-PVTZ
    Blend: AUG-CC-PVTZ
  Basis Set: (AUG-CC-PVTZ AUX)
    Blend: AUG-CC-PVTZ-JKFIT
	 Reference Energy          =    -386.0607371870710267 [Eh]
	 Singles Energy            =      -0.0000000000000000 [Eh]
	 Same-Spin Energy          =      -0.4005988215300784 [Eh]
	 Opposite-Spin Energy      =      -1.3788527876410384 [Eh]
	 Correlation Energy        =      -1.7794516091711168 [Eh]
	 Total Energy              =    -387.8401887962421597 [Eh]

	 ================> DF-SCS-MP2 Energies <==================
	-----------------------------------------------------------
	 SCS Same-Spin Scale       =       0.3333333333333333 [-]
	 SCS Opposite-Spin Scale   =       1.2000000000000000 [-]
	 SCS Same-Spin Energy      =      -0.1335329405100261 [Eh]
	 SCS Opposite-Spin Energy  =      -1.6546233451692460 [Eh]
	 SCS Correlation Energy    =      -1.7881562856792721 [Eh]
	 SCS Total Energy          =    -387.8488934727503192 [Eh]
	-----------------------------------------------------------

  Dipole Moment: [D]
     X:    -1.1593      Y:     0.6443      Z:     0.5848     Total:     1.4496

*** Psi4 exiting successfully. Buy a developer a beer!
