                               Psi4 1.3.2 release

  ==> Input File <==

--------------------------------------------------------------------------
#psi4
#
memory 32 gb

molecule  {
0 1
  O       -2.7848290    -0.9154220    -0.7447340
  C       -2.7698910    -0.0438090     0.3861860
  C       -1.3469338     0.1884134     0.7838300
  C        3.5873700    -0.2293000     0.2222030
  C       -3.4755630     1.2700040     0.0649850
  C       -0.2802220    -0.2946410     0.1124460
  C        2.1660230    -0.5131760    -0.1475910
  C        1.0922740    -0.0266840     0.5021560
  C        4.3244450     0.5343730    -0.8803810
  H       -3.2783533    -0.5269711     1.2386541
  H       -1.1970340     0.8260370     1.6487790
  H        3.6131550     0.3461180     1.1547940
  H        4.1142490    -1.1721620     0.4188690
  H       -2.9813020     1.7413150    -0.7875330
  H       -4.5277090     1.0956620    -0.1864690
  H       -3.4435650     1.9541860     0.9176610
  H       -0.4470010    -0.9272420    -0.7564190
  H        2.0063450    -1.1440610    -1.0244550
  H        1.2471430     0.6066220     1.3780870
  H        4.3142870    -0.0291260    -1.8177910
  H        5.3679410     0.7151030    -0.6066950
  H        3.8442820     1.4990380    -1.0633910
  H       -3.7175750    -1.0591810    -0.9792530
units angstrom
no_reorient  #important for SAPT in psi4, default
symmetry c1  #important for SAPT in psi4, default
}

set PROPERTIES_ORIGIN ["COM"]
properties('MP2/aug-cc-pvtz', properties = ['dipole'])
--------------------------------------------------------------------------

    Molecular point group: c1
  Charge       = 0
  Multiplicity = 1
  Basis Set: AUG-CC-PVTZ
    Blend: AUG-CC-PVTZ
  Basis Set: (AUG-CC-PVTZ AUX)
    Blend: AUG-CC-PVTZ-JKFIT

    Orbital Energies [Eh]
    ---------------------

    Doubly Occupied:

       1A    -20.559013     2A    -11.286446     3A    -11.225831
       4A    -11.224094     5A    -11.223225     6A    -11.222988
       7A    -11.222236     8A    -11.220858     9A    -11.212836
      10A     -1.360835    11A     -1.097432    12A     -1.061081
      13A     -1.015970    14A     -0.962041    15A     -0.876947
      16A     -0.828397    17A     -0.752302    18A     -0.748970
      19A     -0.694851    20A     -0.637394    21A     -0.626824
      22A     -0.617392    23A     -0.590529    24A     -0.582877
      25A     -0.546956    26A     -0.543623    27A     -0.527640
      28A     -0.518991    29A     -0.501468    30A     -0.491957
      31A     -0.479047    32A     -0.467949    33A     -0.453030
      34A     -0.417699    35A     -0.296609

  @DF-RHF Final Energy:  -386.06225162040914

   => Energetics <=

    Nuclear Repulsion Energy =            418.1733490726084028
    One-Electron Energy =               -1352.2785252344285709
    Two-Electron Energy =                 548.0429245414110255
    Total Energy =                       -386.0622516204091426
  Basis Set: (AUG-CC-PVTZ AUX)
    Blend: AUG-CC-PVTZ-RI
    Molecular point group: c1

    Geometry (in Angstrom), charge = 0, multiplicity = 1:

       Center              X                  Y                   Z               Mass
    ------------   -----------------  -----------------  -----------------  -----------------
         O           -2.784672351890    -0.914915450646    -0.745885818445    15.994914619570
         C           -2.769734351890    -0.043302450646     0.385034181555    12.000000000000
         C           -1.346777151890     0.188919949354     0.782678181555    12.000000000000
         C            3.587526648110    -0.228793450646     0.221051181555    12.000000000000
         C           -3.475406351890     1.270510549354     0.063833181555    12.000000000000
         C           -0.280065351890    -0.294134450646     0.111294181555    12.000000000000
         C            2.166179648110    -0.512669450646    -0.148742818445    12.000000000000
         C            1.092430648110    -0.026177450646     0.501004181555    12.000000000000
         C            4.324601648110     0.534879549354    -0.881532818445    12.000000000000
         H           -3.278196651890    -0.526464550646     1.237502281555     1.007825032230
         H           -1.196877351890     0.826543549354     1.647627181555     1.007825032230
         H            3.613311648110     0.346624549354     1.153642181555     1.007825032230
         H            4.114405648110    -1.171655450646     0.417717181555     1.007825032230
         H           -2.981145351890     1.741821549354    -0.788684818445     1.007825032230
         H           -4.527552351890     1.096168549354    -0.187620818445     1.007825032230
         H           -3.443408351890     1.954692549354     0.916509181555     1.007825032230
         H           -0.446844351890    -0.926735450646    -0.757570818445     1.007825032230
         H            2.006501648110    -1.143554450646    -1.025606818445     1.007825032230
         H            1.247299648110     0.607128549354     1.376935181555     1.007825032230
         H            4.314443648110    -0.028619450646    -1.818942818445     1.007825032230
         H            5.368097648110     0.715609549354    -0.607846818445     1.007825032230
         H            3.844438648110     1.499544549354    -1.064542818445     1.007825032230
         H           -3.717418351890    -1.058674450646    -0.980404818445     1.007825032230

  Basis Set: AUG-CC-PVTZ
    Blend: AUG-CC-PVTZ
  Basis Set: (AUG-CC-PVTZ AUX)
    Blend: AUG-CC-PVTZ-JKFIT
	 Reference Energy          =    -386.0622516204091426 [Eh]
	 Singles Energy            =      -0.0000000000000000 [Eh]
	 Same-Spin Energy          =      -0.4004078257807453 [Eh]
	 Opposite-Spin Energy      =      -1.3784245426450139 [Eh]
	 Correlation Energy        =      -1.7788323684257592 [Eh]
	 Total Energy              =    -387.8410839888348960 [Eh]

	 ================> DF-SCS-MP2 Energies <==================
	-----------------------------------------------------------
	 SCS Same-Spin Scale       =       0.3333333333333333 [-]
	 SCS Opposite-Spin Scale   =       1.2000000000000000 [-]
	 SCS Same-Spin Energy      =      -0.1334692752602484 [Eh]
	 SCS Opposite-Spin Energy  =      -1.6541094511740166 [Eh]
	 SCS Correlation Energy    =      -1.7875787264342651 [Eh]
	 SCS Total Energy          =    -387.8498303468434187 [Eh]
	-----------------------------------------------------------

  Dipole Moment: [D]
     X:    -1.1648      Y:     0.6537      Z:     0.5729     Total:     1.4533

*** Psi4 exiting successfully. Buy a developer a beer!
