                               Psi4 1.3.2 release

  ==> Input File <==

--------------------------------------------------------------------------
#psi4
#
memory 32 gb

molecule  {
0 1
  O       -2.7848290    -0.9154220    -0.7447340
  C       -2.7698910    -0.0438090     0.3861860
  C       -1.3446020     0.1937550     0.7721520
  C        3.5873700    -0.2293000     0.2222030
  C       -3.4755630     1.2700040     0.0649850
  C       -0.2802220    -0.2946410     0.1124460
  C        2.1660230    -0.5131760    -0.1475910
  C        1.1362165     0.0051138     0.5471441
  C        4.3244450     0.5343730    -0.8803810
  H       -3.2865450    -0.5271910     1.2335890
  H       -1.1970340     0.8260370     1.6487790
  H        3.6131550     0.3461180     1.1547940
  H        4.1142490    -1.1721620     0.4188690
  H       -2.9813020     1.7413150    -0.7875330
  H       -4.5277090     1.0956620    -0.1864690
  H       -3.4435650     1.9541860     0.9176610
  H       -0.4470010    -0.9272420    -0.7564190
  H        2.0630941    -1.1486829    -1.0296001
  H        1.2471430     0.6066220     1.3780870
  H        4.3142870    -0.0291260    -1.8177910
  H        5.3679410     0.7151030    -0.6066950
  H        3.8442820     1.4990380    -1.0633910
  H       -3.7175750    -1.0591810    -0.9792530
units angstrom
no_reorient  #important for SAPT in psi4, default
symmetry c1  #important for SAPT in psi4, default
}

set PROPERTIES_ORIGIN ["COM"]
properties('MP2/aug-cc-pvtz', properties = ['dipole'])
--------------------------------------------------------------------------

    Molecular point group: c1
  Charge       = 0
  Multiplicity = 1
  Basis Set: AUG-CC-PVTZ
    Blend: AUG-CC-PVTZ
  Basis Set: (AUG-CC-PVTZ AUX)
    Blend: AUG-CC-PVTZ-JKFIT

    Orbital Energies [Eh]
    ---------------------

    Doubly Occupied:

       1A    -20.558190     2A    -11.285458     3A    -11.226999
       4A    -11.225706     5A    -11.223589     6A    -11.220394
       7A    -11.220332     8A    -11.219941     9A    -11.212208
      10A     -1.360162    11A     -1.094300    12A     -1.060578
      13A     -1.012061    14A     -0.962042    15A     -0.873041
      16A     -0.827733    17A     -0.760693    18A     -0.744870
      19A     -0.694449    20A     -0.639148    21A     -0.623341
      22A     -0.617783    23A     -0.593910    24A     -0.577914
      25A     -0.547629    26A     -0.544645    27A     -0.533822
      28A     -0.517464    29A     -0.502678    30A     -0.493030
      31A     -0.479948    32A     -0.458589    33A     -0.451486
      34A     -0.411772    35A     -0.300983

  @DF-RHF Final Energy:  -386.05729027695679

   => Energetics <=

    Nuclear Repulsion Energy =            417.6959691128298573
    One-Electron Energy =               -1351.3527478175528813
    Two-Electron Energy =                 547.5994884277662322
    Total Energy =                       -386.0572902769567918
  Basis Set: (AUG-CC-PVTZ AUX)
    Blend: AUG-CC-PVTZ-RI
    Molecular point group: c1

    Geometry (in Angstrom), charge = 0, multiplicity = 1:

       Center              X                  Y                   Z               Mass
    ------------   -----------------  -----------------  -----------------  -----------------
         O           -2.789463847282    -0.918410910640    -0.748973981141    15.994914619570
         C           -2.774525847282    -0.046797910640     0.381946018859    12.000000000000
         C           -1.349236847282     0.190766089360     0.767912018859    12.000000000000
         C            3.582735152718    -0.232288910640     0.217963018859    12.000000000000
         C           -3.480197847282     1.267015089360     0.060745018859    12.000000000000
         C           -0.284856847282    -0.297629910640     0.108206018859    12.000000000000
         C            2.161388152718    -0.516164910640    -0.151830981141    12.000000000000
         C            1.131581652718     0.002124889360     0.542904118859    12.000000000000
         C            4.319810152718     0.531384089360    -0.884620981141    12.000000000000
         H           -3.291179847282    -0.530179910640     1.229349018859     1.007825032230
         H           -1.201668847282     0.823048089360     1.644539018859     1.007825032230
         H            3.608520152718     0.343129089360     1.150554018859     1.007825032230
         H            4.109614152718    -1.175150910640     0.414629018859     1.007825032230
         H           -2.985936847282     1.738326089360    -0.791772981141     1.007825032230
         H           -4.532343847282     1.092673089360    -0.190708981141     1.007825032230
         H           -3.448199847282     1.951197089360     0.913421018859     1.007825032230
         H           -0.451635847282    -0.930230910640    -0.760658981141     1.007825032230
         H            2.058459252718    -1.151671810640    -1.033840081141     1.007825032230
         H            1.242508152718     0.603633089360     1.373847018859     1.007825032230
         H            4.309652152718    -0.032114910640    -1.822030981141     1.007825032230
         H            5.363306152718     0.712114089360    -0.610934981141     1.007825032230
         H            3.839647152718     1.496049089360    -1.067630981141     1.007825032230
         H           -3.722209847282    -1.062169910640    -0.983492981141     1.007825032230

  Basis Set: AUG-CC-PVTZ
    Blend: AUG-CC-PVTZ
  Basis Set: (AUG-CC-PVTZ AUX)
    Blend: AUG-CC-PVTZ-JKFIT
	 Reference Energy          =    -386.0572902769567918 [Eh]
	 Singles Energy            =      -0.0000000000000000 [Eh]
	 Same-Spin Energy          =      -0.3996336906154159 [Eh]
	 Opposite-Spin Energy      =      -1.3778744795553028 [Eh]
	 Correlation Energy        =      -1.7775081701707187 [Eh]
	 Total Energy              =    -387.8347984471275254 [Eh]

	 ================> DF-SCS-MP2 Energies <==================
	-----------------------------------------------------------
	 SCS Same-Spin Scale       =       0.3333333333333333 [-]
	 SCS Opposite-Spin Scale   =       1.2000000000000000 [-]
	 SCS Same-Spin Energy      =      -0.1332112302051386 [Eh]
	 SCS Opposite-Spin Energy  =      -1.6534493754663633 [Eh]
	 SCS Correlation Energy    =      -1.7866606056715020 [Eh]
	 SCS Total Energy          =    -387.8439508826282918 [Eh]
	-----------------------------------------------------------

  Dipole Moment: [D]
     X:    -1.1199      Y:     0.6349      Z:     0.5866     Total:     1.4147

*** Psi4 exiting successfully. Buy a developer a beer!
