                               Psi4 1.3.2 release

  ==> Input File <==

--------------------------------------------------------------------------
#psi4
#
memory 32 gb

molecule  {
0 1
  O       -2.7848290    -0.9154220    -0.7447340
  C       -2.7698910    -0.0438090     0.3861860
  C       -1.3446020     0.1937550     0.7721520
  C        3.5873700    -0.2293000     0.2222030
  C       -3.4755630     1.2700040     0.0649850
  C       -0.2802220    -0.2946410     0.1124460
  C        2.1660230    -0.5131760    -0.1475910
  C        0.9031853    -0.0636004     0.4484657
  C        4.3244450     0.5343730    -0.8803810
  H       -3.2865450    -0.5271910     1.2335890
  H       -1.1970340     0.8260370     1.6487790
  H        3.6131550     0.3461180     1.1547940
  H        4.1142490    -1.1721620     0.4188690
  H       -2.9813020     1.7413150    -0.7875330
  H       -4.5277090     1.0956620    -0.1864690
  H       -3.4435650     1.9541860     0.9176610
  H       -0.4470010    -0.9272420    -0.7564190
  H        2.0063450    -1.1440610    -1.0244550
  H        1.2471430     0.6066220     1.3780870
  H        4.3142870    -0.0291260    -1.8177910
  H        5.3679410     0.7151030    -0.6066950
  H        3.8442820     1.4990380    -1.0633910
  H       -3.7175750    -1.0591810    -0.9792530
units angstrom
no_reorient  #important for SAPT in psi4, default
symmetry c1  #important for SAPT in psi4, default
}

set PROPERTIES_ORIGIN ["COM"]
properties('MP2/aug-cc-pvtz', properties = ['dipole'])
--------------------------------------------------------------------------

    Molecular point group: c1
  Charge       = 0
  Multiplicity = 1
  Basis Set: AUG-CC-PVTZ
    Blend: AUG-CC-PVTZ
  Basis Set: (AUG-CC-PVTZ AUX)
    Blend: AUG-CC-PVTZ-JKFIT

    Orbital Energies [Eh]
    ---------------------

    Doubly Occupied:

       1A    -20.560237     2A    -11.287931     3A    -11.242603
       4A    -11.231092     5A    -11.229348     6A    -11.227494
       7A    -11.222034     8A    -11.215003     9A    -11.206639
      10A     -1.362382    11A     -1.120601    12A     -1.059697
      13A     -1.029869    14A     -0.950680    15A     -0.891600
      16A     -0.825511    17A     -0.765009    18A     -0.742470
      19A     -0.693155    20A     -0.642485    21A     -0.635996
      22A     -0.618512    23A     -0.596097    24A     -0.580740
      25A     -0.548407    26A     -0.545713    27A     -0.523216
      28A     -0.519358    29A     -0.498817    30A     -0.488301
      31A     -0.484710    32A     -0.460313    33A     -0.449426
      34A     -0.438243    35A     -0.265420

  @DF-RHF Final Energy:  -385.99138384650354

   => Energetics <=

    Nuclear Repulsion Energy =            419.5849616913538966
    One-Electron Energy =               -1354.8344678293381094
    Two-Electron Energy =                 549.2581222914807313
    Total Energy =                       -385.9913838465034814
  Basis Set: (AUG-CC-PVTZ AUX)
    Blend: AUG-CC-PVTZ-RI
    Molecular point group: c1

    Geometry (in Angstrom), charge = 0, multiplicity = 1:

       Center              X                  Y                   Z               Mass
    ------------   -----------------  -----------------  -----------------  -----------------
         O           -2.766835246764    -0.911909060504    -0.739624943113    15.994914619570
         C           -2.751897246764    -0.040296060504     0.391295056887    12.000000000000
         C           -1.326608246764     0.197267939496     0.777261056887    12.000000000000
         C            3.605363753236    -0.225787060504     0.227312056887    12.000000000000
         C           -3.457569246764     1.273516939496     0.070094056887    12.000000000000
         C           -0.262228246764    -0.291128060504     0.117555056887    12.000000000000
         C            2.184016753236    -0.509663060504    -0.142481943113    12.000000000000
         C            0.921179053236    -0.060087460504     0.453574756887    12.000000000000
         C            4.342438753236     0.537885939496    -0.875271943113    12.000000000000
         H           -3.268551246764    -0.523678060504     1.238698056887     1.007825032230
         H           -1.179040246764     0.829549939496     1.653888056887     1.007825032230
         H            3.631148753236     0.349630939496     1.159903056887     1.007825032230
         H            4.132242753236    -1.168649060504     0.423978056887     1.007825032230
         H           -2.963308246764     1.744827939496    -0.782423943113     1.007825032230
         H           -4.509715246764     1.099174939496    -0.181359943113     1.007825032230
         H           -3.425571246764     1.957698939496     0.922770056887     1.007825032230
         H           -0.429007246764    -0.923729060504    -0.751309943113     1.007825032230
         H            2.024338753236    -1.140548060504    -1.019345943113     1.007825032230
         H            1.265136753236     0.610134939496     1.383196056887     1.007825032230
         H            4.332280753236    -0.025613060504    -1.812681943113     1.007825032230
         H            5.385934753236     0.718615939496    -0.601585943113     1.007825032230
         H            3.862275753236     1.502550939496    -1.058281943113     1.007825032230
         H           -3.699581246764    -1.055668060504    -0.974143943113     1.007825032230

  Basis Set: AUG-CC-PVTZ
    Blend: AUG-CC-PVTZ
  Basis Set: (AUG-CC-PVTZ AUX)
    Blend: AUG-CC-PVTZ-JKFIT
	 Reference Energy          =    -385.9913838465035383 [Eh]
	 Singles Energy            =      -0.0000000000000000 [Eh]
	 Same-Spin Energy          =      -0.4070316574383064 [Eh]
	 Opposite-Spin Energy      =      -1.3885582908943568 [Eh]
	 Correlation Energy        =      -1.7955899483326632 [Eh]
	 Total Energy              =    -387.7869737948362285 [Eh]

	 ================> DF-SCS-MP2 Energies <==================
	-----------------------------------------------------------
	 SCS Same-Spin Scale       =       0.3333333333333333 [-]
	 SCS Opposite-Spin Scale   =       1.2000000000000000 [-]
	 SCS Same-Spin Energy      =      -0.1356772191461021 [Eh]
	 SCS Opposite-Spin Energy  =      -1.6662699490732280 [Eh]
	 SCS Correlation Energy    =      -1.8019471682193302 [Eh]
	 SCS Total Energy          =    -387.7933310147228667 [Eh]
	-----------------------------------------------------------

  Dipole Moment: [D]
     X:    -1.2653      Y:     0.6405      Z:     0.5355     Total:     1.5160

*** Psi4 exiting successfully. Buy a developer a beer!
