                               Psi4 1.3.2 release

  ==> Input File <==

--------------------------------------------------------------------------
#psi4
#
memory 32 gb

molecule  {
0 1
  O       -2.7848290    -0.9154220    -0.7447340
  C       -2.7574378    -0.0442325     0.3862793
  C       -1.3446020     0.1937550     0.7721520
  C        3.5873700    -0.2293000     0.2222030
  C       -3.4755630     1.2700040     0.0649850
  C       -0.2802220    -0.2946410     0.1124460
  C        2.1660230    -0.5131760    -0.1475910
  C        1.0922740    -0.0266840     0.5021560
  C        4.3244450     0.5343730    -0.8803810
  H       -3.2865450    -0.5271910     1.2335890
  H       -1.1970340     0.8260370     1.6487790
  H        3.6131550     0.3461180     1.1547940
  H        4.1142490    -1.1721620     0.4188690
  H       -2.9813020     1.7413150    -0.7875330
  H       -4.5277090     1.0956620    -0.1864690
  H       -3.4435650     1.9541860     0.9176610
  H       -0.4470010    -0.9272420    -0.7564190
  H        2.0063450    -1.1440610    -1.0244550
  H        1.2471430     0.6066220     1.3780870
  H        4.3142870    -0.0291260    -1.8177910
  H        5.3679410     0.7151030    -0.6066950
  H        3.8442820     1.4990380    -1.0633910
  H       -3.7151540    -1.0642085    -0.9856468
units angstrom
no_reorient  #important for SAPT in psi4, default
symmetry c1  #important for SAPT in psi4, default
}

set PROPERTIES_ORIGIN ["COM"]
properties('MP2/aug-cc-pvtz', properties = ['dipole'])
--------------------------------------------------------------------------

    Molecular point group: c1
  Charge       = 0
  Multiplicity = 1
  Basis Set: AUG-CC-PVTZ
    Blend: AUG-CC-PVTZ
  Basis Set: (AUG-CC-PVTZ AUX)
    Blend: AUG-CC-PVTZ-JKFIT

    Orbital Energies [Eh]
    ---------------------

    Doubly Occupied:

       1A    -20.558104     2A    -11.286671     3A    -11.226113
       4A    -11.223772     5A    -11.223347     6A    -11.223060
       7A    -11.221762     8A    -11.220594     9A    -11.212972
      10A     -1.360015    11A     -1.098379    12A     -1.062161
      13A     -1.015609    14A     -0.962385    15A     -0.877519
      16A     -0.828732    17A     -0.752435    18A     -0.748875
      19A     -0.694484    20A     -0.637983    21A     -0.627438
      22A     -0.616408    23A     -0.590501    24A     -0.583238
      25A     -0.545867    26A     -0.542922    27A     -0.527743
      28A     -0.519252    29A     -0.501382    30A     -0.492147
      31A     -0.479362    32A     -0.469082    33A     -0.451926
      34A     -0.417694    35A     -0.297409

  @DF-RHF Final Energy:  -386.06244282645150

   => Energetics <=

    Nuclear Repulsion Energy =            418.3709017874529081
    One-Electron Energy =               -1352.6720007523217646
    Two-Electron Energy =                 548.2386561384173547
    Total Energy =                       -386.0624428264515018
  Basis Set: (AUG-CC-PVTZ AUX)
    Blend: AUG-CC-PVTZ-RI
    Molecular point group: c1

    Geometry (in Angstrom), charge = 0, multiplicity = 1:

       Center              X                  Y                   Z               Mass
    ------------   -----------------  -----------------  -----------------  -----------------
         O           -2.786033161311    -0.915341515964    -0.744691848301    15.994914619570
         C           -2.758641961311    -0.044152015964     0.386321451699    12.000000000000
         C           -1.345806161311     0.193835484036     0.772194151699    12.000000000000
         C            3.586165838689    -0.229219515964     0.222245151699    12.000000000000
         C           -3.476767161311     1.270084484036     0.065027151699    12.000000000000
         C           -0.281426161311    -0.294560515964     0.112488151699    12.000000000000
         C            2.164818838689    -0.513095515964    -0.147548848301    12.000000000000
         C            1.091069838689    -0.026603515964     0.502198151699    12.000000000000
         C            4.323240838689     0.534453484036    -0.880338848301    12.000000000000
         H           -3.287749161311    -0.527110515964     1.233631151699     1.007825032230
         H           -1.198238161311     0.826117484036     1.648821151699     1.007825032230
         H            3.611950838689     0.346198484036     1.154836151699     1.007825032230
         H            4.113044838689    -1.172081515964     0.418911151699     1.007825032230
         H           -2.982506161311     1.741395484036    -0.787490848301     1.007825032230
         H           -4.528913161311     1.095742484036    -0.186426848301     1.007825032230
         H           -3.444769161311     1.954266484036     0.917703151699     1.007825032230
         H           -0.448205161311    -0.927161515964    -0.756376848301     1.007825032230
         H            2.005140838689    -1.143980515964    -1.024412848301     1.007825032230
         H            1.245938838689     0.606702484036     1.378129151699     1.007825032230
         H            4.313082838689    -0.029045515964    -1.817748848301     1.007825032230
         H            5.366736838689     0.715183484036    -0.606652848301     1.007825032230
         H            3.843077838689     1.499118484036    -1.063348848301     1.007825032230
         H           -3.716358161311    -1.064128015964    -0.985604648301     1.007825032230

  Basis Set: AUG-CC-PVTZ
    Blend: AUG-CC-PVTZ
  Basis Set: (AUG-CC-PVTZ AUX)
    Blend: AUG-CC-PVTZ-JKFIT
	 Reference Energy          =    -386.0624428264515018 [Eh]
	 Singles Energy            =      -0.0000000000000000 [Eh]
	 Same-Spin Energy          =      -0.4003852015880015 [Eh]
	 Opposite-Spin Energy      =      -1.3782702181963824 [Eh]
	 Correlation Energy        =      -1.7786554197843838 [Eh]
	 Total Energy              =    -387.8410982462359016 [Eh]

	 ================> DF-SCS-MP2 Energies <==================
	-----------------------------------------------------------
	 SCS Same-Spin Scale       =       0.3333333333333333 [-]
	 SCS Opposite-Spin Scale   =       1.2000000000000000 [-]
	 SCS Same-Spin Energy      =      -0.1334617338626672 [Eh]
	 SCS Opposite-Spin Energy  =      -1.6539242618356589 [Eh]
	 SCS Correlation Energy    =      -1.7873859956983260 [Eh]
	 SCS Total Energy          =    -387.8498288221498456 [Eh]
	-----------------------------------------------------------

  Dipole Moment: [D]
     X:    -1.1387      Y:     0.6325      Z:     0.5712     Total:     1.4223

*** Psi4 exiting successfully. Buy a developer a beer!
