                               Psi4 1.3.2 release

  ==> Input File <==

--------------------------------------------------------------------------
#psi4
#
memory 32 gb

molecule  {
0 1
  O       -2.7848290    -0.9154220    -0.7447340
  C       -2.7698910    -0.0438090     0.3861860
  C       -1.3482038     0.2193891     0.7687921
  C        3.5873700    -0.2293000     0.2222030
  C       -3.4530056     1.2831354     0.0702417
  C       -0.2802220    -0.2946410     0.1124460
  C        2.1660230    -0.5131760    -0.1475910
  C        1.0922740    -0.0266840     0.5021560
  C        4.3244450     0.5343730    -0.8803810
  H       -3.2865450    -0.5271910     1.2335890
  H       -1.1970340     0.8260370     1.6487790
  H        3.6131550     0.3461180     1.1547940
  H        4.1142490    -1.1721620     0.4188690
  H       -2.9813020     1.7413150    -0.7875330
  H       -4.5277090     1.0956620    -0.1864690
  H       -3.4435650     1.9541860     0.9176610
  H       -0.4470010    -0.9272420    -0.7564190
  H        2.0063450    -1.1440610    -1.0244550
  H        1.2471430     0.6066220     1.3780870
  H        4.3142870    -0.0291260    -1.8177910
  H        5.3679410     0.7151030    -0.6066950
  H        3.8442820     1.4990380    -1.0633910
  H       -3.7175750    -1.0591810    -0.9792530
units angstrom
no_reorient  #important for SAPT in psi4, default
symmetry c1  #important for SAPT in psi4, default
}

set PROPERTIES_ORIGIN ["COM"]
properties('MP2/aug-cc-pvtz', properties = ['dipole'])
--------------------------------------------------------------------------

    Molecular point group: c1
  Charge       = 0
  Multiplicity = 1
  Basis Set: AUG-CC-PVTZ
    Blend: AUG-CC-PVTZ
  Basis Set: (AUG-CC-PVTZ AUX)
    Blend: AUG-CC-PVTZ-JKFIT

    Orbital Energies [Eh]
    ---------------------

    Doubly Occupied:

       1A    -20.559642     2A    -11.286597     3A    -11.225711
       4A    -11.224496     5A    -11.223168     6A    -11.222927
       7A    -11.222447     8A    -11.220435     9A    -11.212784
      10A     -1.361101    11A     -1.097203    12A     -1.061419
      13A     -1.016191    14A     -0.961090    15A     -0.876088
      16A     -0.827829    17A     -0.752849    18A     -0.749848
      19A     -0.695696    20A     -0.637311    21A     -0.626170
      22A     -0.618680    23A     -0.589731    24A     -0.582755
      25A     -0.548267    26A     -0.543465    27A     -0.527667
      28A     -0.519013    29A     -0.501924    30A     -0.491416
      31A     -0.478801    32A     -0.466747    33A     -0.454020
      34A     -0.417239    35A     -0.295754

  @DF-RHF Final Energy:  -386.06083393602029

   => Energetics <=

    Nuclear Repulsion Energy =            418.2516247066744768
    One-Electron Energy =               -1352.4319570279519667
    Two-Electron Energy =                 548.1194983852572022
    Total Energy =                       -386.0608339360203445
  Basis Set: (AUG-CC-PVTZ AUX)
    Blend: AUG-CC-PVTZ-RI
    Molecular point group: c1

    Geometry (in Angstrom), charge = 0, multiplicity = 1:

       Center              X                  Y                   Z               Mass
    ------------   -----------------  -----------------  -----------------  -----------------
         O           -2.786632575896    -0.919110889555    -0.744914567074    15.994914619570
         C           -2.771694575896    -0.047497889555     0.386005432926    12.000000000000
         C           -1.350007375896     0.215700210445     0.768611532926    12.000000000000
         C            3.585566424104    -0.232988889555     0.222022432926    12.000000000000
         C           -3.454809175896     1.279446510445     0.070061132926    12.000000000000
         C           -0.282025575896    -0.298329889555     0.112265432926    12.000000000000
         C            2.164219424104    -0.516864889555    -0.147771567074    12.000000000000
         C            1.090470424104    -0.030372889555     0.501975432926    12.000000000000
         C            4.322641424104     0.530684110445    -0.880561567074    12.000000000000
         H           -3.288348575896    -0.530879889555     1.233408432926     1.007825032230
         H           -1.198837575896     0.822348110445     1.648598432926     1.007825032230
         H            3.611351424104     0.342429110445     1.154613432926     1.007825032230
         H            4.112445424104    -1.175850889555     0.418688432926     1.007825032230
         H           -2.983105575896     1.737626110445    -0.787713567074     1.007825032230
         H           -4.529512575896     1.091973110445    -0.186649567074     1.007825032230
         H           -3.445368575896     1.950497110445     0.917480432926     1.007825032230
         H           -0.448804575896    -0.930930889555    -0.756599567074     1.007825032230
         H            2.004541424104    -1.147749889555    -1.024635567074     1.007825032230
         H            1.245339424104     0.602933110445     1.377906432926     1.007825032230
         H            4.312483424104    -0.032814889555    -1.817971567074     1.007825032230
         H            5.366137424104     0.711414110445    -0.606875567074     1.007825032230
         H            3.842478424104     1.495349110445    -1.063571567074     1.007825032230
         H           -3.719378575896    -1.062869889555    -0.979433567074     1.007825032230

  Basis Set: AUG-CC-PVTZ
    Blend: AUG-CC-PVTZ
  Basis Set: (AUG-CC-PVTZ AUX)
    Blend: AUG-CC-PVTZ-JKFIT
	 Reference Energy          =    -386.0608339360202876 [Eh]
	 Singles Energy            =      -0.0000000000000000 [Eh]
	 Same-Spin Energy          =      -0.4005397275056498 [Eh]
	 Opposite-Spin Energy      =      -1.3787064752674716 [Eh]
	 Correlation Energy        =      -1.7792462027731215 [Eh]
	 Total Energy              =    -387.8400801387933825 [Eh]

	 ================> DF-SCS-MP2 Energies <==================
	-----------------------------------------------------------
	 SCS Same-Spin Scale       =       0.3333333333333333 [-]
	 SCS Opposite-Spin Scale   =       1.2000000000000000 [-]
	 SCS Same-Spin Energy      =      -0.1335132425018833 [Eh]
	 SCS Opposite-Spin Energy  =      -1.6544477703209659 [Eh]
	 SCS Correlation Energy    =      -1.7879610128228491 [Eh]
	 SCS Total Energy          =    -387.8487949488431354 [Eh]
	-----------------------------------------------------------

  Dipole Moment: [D]
     X:    -1.1557      Y:     0.6267      Z:     0.6024     Total:     1.4461

*** Psi4 exiting successfully. Buy a developer a beer!
