                               Psi4 1.3.2 release

  ==> Input File <==

--------------------------------------------------------------------------
#psi4
#
memory 32 gb

molecule  {
0 1
  O       -2.7848290    -0.9154220    -0.7447340
  C       -2.7698910    -0.0438090     0.3861860
  C       -1.3446020     0.1937550     0.7721520
  C        3.5873700    -0.2293000     0.2222030
  C       -3.4755630     1.2700040     0.0649850
  C       -0.2802220    -0.2946410     0.1124460
  C        2.1660230    -0.5131760    -0.1475910
  C        1.0852332    -0.0321157     0.4944814
  C        4.3244450     0.5343730    -0.8803810
  H       -3.2865450    -0.5271910     1.2335890
  H       -1.1970340     0.8260370     1.6487790
  H        3.6131550     0.3461180     1.1547940
  H        4.1142490    -1.1721620     0.4188690
  H       -2.9813020     1.7413150    -0.7875330
  H       -4.5277090     1.0956620    -0.1864690
  H       -3.4435650     1.9541860     0.9176610
  H       -0.4470010    -0.9272420    -0.7564190
  H        1.9969252    -1.1431222    -1.0233633
  H        1.2471430     0.6066220     1.3780870
  H        4.3142870    -0.0291260    -1.8177910
  H        5.3679410     0.7151030    -0.6066950
  H        3.8442820     1.4990380    -1.0633910
  H       -3.7175750    -1.0591810    -0.9792530
units angstrom
no_reorient  #important for SAPT in psi4, default
symmetry c1  #important for SAPT in psi4, default
}

set PROPERTIES_ORIGIN ["COM"]
properties('MP2/aug-cc-pvtz', properties = ['dipole'])
--------------------------------------------------------------------------

    Molecular point group: c1
  Charge       = 0
  Multiplicity = 1
  Basis Set: AUG-CC-PVTZ
    Blend: AUG-CC-PVTZ
  Basis Set: (AUG-CC-PVTZ AUX)
    Blend: AUG-CC-PVTZ-JKFIT

    Orbital Energies [Eh]
    ---------------------

    Doubly Occupied:

       1A    -20.558823     2A    -11.286640     3A    -11.225870
       4A    -11.223761     5A    -11.223604     6A    -11.223127
       7A    -11.221561     8A    -11.220751     9A    -11.213006
      10A     -1.360873    11A     -1.098569    12A     -1.061447
      13A     -1.016836    14A     -0.962583    15A     -0.877356
      16A     -0.828862    17A     -0.752278    18A     -0.747670
      19A     -0.695211    20A     -0.637226    21A     -0.628157
      22A     -0.617322    23A     -0.590250    24A     -0.583467
      25A     -0.546561    26A     -0.543340    27A     -0.526135
      28A     -0.519278    29A     -0.500431    30A     -0.491956
      31A     -0.478767    32A     -0.469069    33A     -0.453095
      34A     -0.419411    35A     -0.296911

  @DF-RHF Final Energy:  -386.06214151506845

   => Energetics <=

    Nuclear Repulsion Energy =            418.3701475104229530
    One-Electron Energy =               -1352.6641656922477068
    Two-Electron Energy =                 548.2318766667563068
    Total Energy =                       -386.0621415150684470
  Basis Set: (AUG-CC-PVTZ AUX)
    Blend: AUG-CC-PVTZ-RI
    Molecular point group: c1

    Geometry (in Angstrom), charge = 0, multiplicity = 1:

       Center              X                  Y                   Z               Mass
    ------------   -----------------  -----------------  -----------------  -----------------
         O           -2.784083496369    -0.914912622241    -0.744012485158    15.994914619570
         C           -2.769145496369    -0.043299622241     0.386907514842    12.000000000000
         C           -1.343856496369     0.194264377759     0.772873514842    12.000000000000
         C            3.588115503631    -0.228790622241     0.222924514842    12.000000000000
         C           -3.474817496369     1.270513377759     0.065706514842    12.000000000000
         C           -0.279476496369    -0.294131622241     0.113167514842    12.000000000000
         C            2.166768503631    -0.512666622241    -0.146869485158    12.000000000000
         C            1.085978703631    -0.031606322241     0.495202914842    12.000000000000
         C            4.325190503631     0.534882377759    -0.879659485158    12.000000000000
         H           -3.285799496369    -0.526681622241     1.234310514842     1.007825032230
         H           -1.196288496369     0.826546377759     1.649500514842     1.007825032230
         H            3.613900503631     0.346627377759     1.155515514842     1.007825032230
         H            4.114994503631    -1.171652622241     0.419590514842     1.007825032230
         H           -2.980556496369     1.741824377759    -0.786811485158     1.007825032230
         H           -4.526963496369     1.096171377759    -0.185747485158     1.007825032230
         H           -3.442819496369     1.954695377759     0.918382514842     1.007825032230
         H           -0.446255496369    -0.926732622241    -0.755697485158     1.007825032230
         H            1.997670703631    -1.142612822241    -1.022641785158     1.007825032230
         H            1.247888503631     0.607131377759     1.378808514842     1.007825032230
         H            4.315032503631    -0.028616622241    -1.817069485158     1.007825032230
         H            5.368686503631     0.715612377759    -0.605973485158     1.007825032230
         H            3.845027503631     1.499547377759    -1.062669485158     1.007825032230
         H           -3.716829496369    -1.058671622241    -0.978531485158     1.007825032230

  Basis Set: AUG-CC-PVTZ
    Blend: AUG-CC-PVTZ
  Basis Set: (AUG-CC-PVTZ AUX)
    Blend: AUG-CC-PVTZ-JKFIT
	 Reference Energy          =    -386.0621415150684470 [Eh]
	 Singles Energy            =      -0.0000000000000000 [Eh]
	 Same-Spin Energy          =      -0.4005110798916806 [Eh]
	 Opposite-Spin Energy      =      -1.3784740531599273 [Eh]
	 Correlation Energy        =      -1.7789851330516080 [Eh]
	 Total Energy              =    -387.8411266481200528 [Eh]

	 ================> DF-SCS-MP2 Energies <==================
	-----------------------------------------------------------
	 SCS Same-Spin Scale       =       0.3333333333333333 [-]
	 SCS Opposite-Spin Scale   =       1.2000000000000000 [-]
	 SCS Same-Spin Energy      =      -0.1335036932972269 [Eh]
	 SCS Opposite-Spin Energy  =      -1.6541688637919127 [Eh]
	 SCS Correlation Energy    =      -1.7876725570891396 [Eh]
	 SCS Total Energy          =    -387.8498140721575851 [Eh]
	-----------------------------------------------------------

  Dipole Moment: [D]
     X:    -1.1661      Y:     0.6424      Z:     0.5745     Total:     1.4500

*** Psi4 exiting successfully. Buy a developer a beer!
