                               Psi4 1.3.2 release

  ==> Input File <==

--------------------------------------------------------------------------
#psi4
#
memory 32 gb

molecule  {
0 1
  O       -2.7848290    -0.9154220    -0.7447340
  C       -2.7698910    -0.0438090     0.3861860
  C       -1.3446020     0.1937550     0.7721520
  C        3.5873700    -0.2293000     0.2222030
  C       -3.4842138     1.2676989     0.0748379
  C       -0.2802220    -0.2946410     0.1124460
  C        2.1660230    -0.5131760    -0.1475910
  C        1.0922740    -0.0266840     0.5021560
  C        4.3244450     0.5343730    -0.8803810
  H       -3.2927673    -0.5198444     1.2339312
  H       -1.1970340     0.8260370     1.6487790
  H        3.6131550     0.3461180     1.1547940
  H        4.1142490    -1.1721620     0.4188690
  H       -2.9813020     1.7413150    -0.7875330
  H       -4.5277090     1.0956620    -0.1864690
  H       -3.4435650     1.9541860     0.9176610
  H       -0.4470010    -0.9272420    -0.7564190
  H        2.0063450    -1.1440610    -1.0244550
  H        1.2471430     0.6066220     1.3780870
  H        4.3142870    -0.0291260    -1.8177910
  H        5.3679410     0.7151030    -0.6066950
  H        3.8442820     1.4990380    -1.0633910
  H       -3.7175750    -1.0591810    -0.9792530
units angstrom
no_reorient  #important for SAPT in psi4, default
symmetry c1  #important for SAPT in psi4, default
}

set PROPERTIES_ORIGIN ["COM"]
properties('MP2/aug-cc-pvtz', properties = ['dipole'])
--------------------------------------------------------------------------

    Molecular point group: c1
  Charge       = 0
  Multiplicity = 1
  Basis Set: AUG-CC-PVTZ
    Blend: AUG-CC-PVTZ
  Basis Set: (AUG-CC-PVTZ AUX)
    Blend: AUG-CC-PVTZ-JKFIT

    Orbital Energies [Eh]
    ---------------------

    Doubly Occupied:

       1A    -20.559105     2A    -11.286520     3A    -11.225996
       4A    -11.223777     5A    -11.223295     6A    -11.223071
       7A    -11.221908     8A    -11.220476     9A    -11.212899
      10A     -1.360892    11A     -1.097865    12A     -1.061336
      13A     -1.016268    14A     -0.962627    15A     -0.876607
      16A     -0.828539    17A     -0.752483    18A     -0.748115
      19A     -0.695219    20A     -0.637671    21A     -0.627575
      22A     -0.617621    23A     -0.590940    24A     -0.582966
      25A     -0.546785    26A     -0.541045    27A     -0.528138
      28A     -0.518923    29A     -0.500865    30A     -0.492864
      31A     -0.479220    32A     -0.468339    33A     -0.452357
      34A     -0.418139    35A     -0.297523

  @DF-RHF Final Energy:  -386.06233593406949

   => Energetics <=

    Nuclear Repulsion Energy =            418.2118004006553633
    One-Electron Energy =               -1352.3523348882356458
    Two-Electron Energy =                 548.0781985535107879
    Total Energy =                       -386.0623359340694378
  Basis Set: (AUG-CC-PVTZ AUX)
    Blend: AUG-CC-PVTZ-RI
    Molecular point group: c1

    Geometry (in Angstrom), charge = 0, multiplicity = 1:

       Center              X                  Y                   Z               Mass
    ------------   -----------------  -----------------  -----------------  -----------------
         O           -2.783955844430    -0.915261358038    -0.745674398042    15.994914619570
         C           -2.769017844430    -0.043648358038     0.385245601958    12.000000000000
         C           -1.343728844430     0.193915641962     0.771211601958    12.000000000000
         C            3.588243155570    -0.229139358038     0.221262601958    12.000000000000
         C           -3.483340644430     1.267859541962     0.073897501958    12.000000000000
         C           -0.279348844430    -0.294480358038     0.111505601958    12.000000000000
         C            2.166896155570    -0.513015358038    -0.148531398042    12.000000000000
         C            1.093147155570    -0.026523358038     0.501215601958    12.000000000000
         C            4.325318155570     0.534533641962    -0.881321398042    12.000000000000
         H           -3.291894144430    -0.519683758038     1.232990801958     1.007825032230
         H           -1.196160844430     0.826197641962     1.647838601958     1.007825032230
         H            3.614028155570     0.346278641962     1.153853601958     1.007825032230
         H            4.115122155570    -1.172001358038     0.417928601958     1.007825032230
         H           -2.980428844430     1.741475641962    -0.788473398042     1.007825032230
         H           -4.526835844430     1.095822641962    -0.187409398042     1.007825032230
         H           -3.442691844430     1.954346641962     0.916720601958     1.007825032230
         H           -0.446127844430    -0.927081358038    -0.757359398042     1.007825032230
         H            2.007218155570    -1.143900358038    -1.025395398042     1.007825032230
         H            1.248016155570     0.606782641962     1.377146601958     1.007825032230
         H            4.315160155570    -0.028965358038    -1.818731398042     1.007825032230
         H            5.368814155570     0.715263641962    -0.607635398042     1.007825032230
         H            3.845155155570     1.499198641962    -1.064331398042     1.007825032230
         H           -3.716701844430    -1.059020358038    -0.980193398042     1.007825032230

  Basis Set: AUG-CC-PVTZ
    Blend: AUG-CC-PVTZ
  Basis Set: (AUG-CC-PVTZ AUX)
    Blend: AUG-CC-PVTZ-JKFIT
	 Reference Energy          =    -386.0623359340694947 [Eh]
	 Singles Energy            =      -0.0000000000000000 [Eh]
	 Same-Spin Energy          =      -0.4003610354131593 [Eh]
	 Opposite-Spin Energy      =      -1.3783230773523032 [Eh]
	 Correlation Energy        =      -1.7786841127654625 [Eh]
	 Total Energy              =    -387.8410200468349558 [Eh]

	 ================> DF-SCS-MP2 Energies <==================
	-----------------------------------------------------------
	 SCS Same-Spin Scale       =       0.3333333333333333 [-]
	 SCS Opposite-Spin Scale   =       1.2000000000000000 [-]
	 SCS Same-Spin Energy      =      -0.1334536784710531 [Eh]
	 SCS Opposite-Spin Energy  =      -1.6539876928227637 [Eh]
	 SCS Correlation Energy    =      -1.7874413712938169 [Eh]
	 SCS Total Energy          =    -387.8497773053633182 [Eh]
	-----------------------------------------------------------

  Dipole Moment: [D]
     X:    -1.1606      Y:     0.6390      Z:     0.5785     Total:     1.4457

*** Psi4 exiting successfully. Buy a developer a beer!
