                               Psi4 1.3.2 release

  ==> Input File <==

--------------------------------------------------------------------------
#psi4
#
memory 32 gb

molecule  {
0 1
  O       -2.7848290    -0.9154220    -0.7447340
  C       -2.7698910    -0.0438090     0.3861860
  C       -1.2493040     0.2096391     0.7979586
  C        3.5873700    -0.2293000     0.2222030
  C       -3.4755630     1.2700040     0.0649850
  C       -0.2802220    -0.2946410     0.1124460
  C        2.1660230    -0.5131760    -0.1475910
  C        1.0922740    -0.0266840     0.5021560
  C        4.3244450     0.5343730    -0.8803810
  H       -3.2865450    -0.5271910     1.2335890
  H       -1.1970340     0.8260370     1.6487790
  H        3.6131550     0.3461180     1.1547940
  H        4.1142490    -1.1721620     0.4188690
  H       -2.9813020     1.7413150    -0.7875330
  H       -4.5277090     1.0956620    -0.1864690
  H       -3.4435650     1.9541860     0.9176610
  H       -0.4470010    -0.9272420    -0.7564190
  H        2.0063450    -1.1440610    -1.0244550
  H        1.2471430     0.6066220     1.3780870
  H        4.3142870    -0.0291260    -1.8177910
  H        5.3679410     0.7151030    -0.6066950
  H        3.8442820     1.4990380    -1.0633910
  H       -3.7175750    -1.0591810    -0.9792530
units angstrom
no_reorient  #important for SAPT in psi4, default
symmetry c1  #important for SAPT in psi4, default
}

set PROPERTIES_ORIGIN ["COM"]
properties('MP2/aug-cc-pvtz', properties = ['dipole'])
--------------------------------------------------------------------------

    Molecular point group: c1
  Charge       = 0
  Multiplicity = 1
  Basis Set: AUG-CC-PVTZ
    Blend: AUG-CC-PVTZ
  Basis Set: (AUG-CC-PVTZ AUX)
    Blend: AUG-CC-PVTZ-JKFIT

    Orbital Energies [Eh]
    ---------------------

    Doubly Occupied:

       1A    -20.558191     2A    -11.288948     3A    -11.223770
       4A    -11.222180     5A    -11.221005     6A    -11.219604
       7A    -11.218093     8A    -11.215041     9A    -11.212193
      10A     -1.358395    11A     -1.101751    12A     -1.059180
      13A     -1.012600    14A     -0.965226    15A     -0.868887
      16A     -0.826012    17A     -0.754906    18A     -0.751198
      19A     -0.690890    20A     -0.637458    21A     -0.630889
      22A     -0.614540    23A     -0.588593    24A     -0.585996
      25A     -0.553083    26A     -0.543190    27A     -0.524512
      28A     -0.518817    29A     -0.505465    30A     -0.488447
      31A     -0.477485    32A     -0.452659    33A     -0.447067
      34A     -0.425521    35A     -0.304611

  @DF-RHF Final Energy:  -386.05479481046615

   => Energetics <=

    Nuclear Repulsion Energy =            418.0405294799497256
    One-Electron Energy =               -1352.0578413231869490
    Two-Electron Energy =                 547.9625170327709611
    Total Energy =                       -386.0547948104662055
  Basis Set: (AUG-CC-PVTZ AUX)
    Blend: AUG-CC-PVTZ-RI
    Molecular point group: c1

    Geometry (in Angstrom), charge = 0, multiplicity = 1:

       Center              X                  Y                   Z               Mass
    ------------   -----------------  -----------------  -----------------  -----------------
         O           -2.793897257599    -0.916933513838    -0.747189804512    15.994914619570
         C           -2.778959257599    -0.045320513838     0.383730195488    12.000000000000
         C           -1.258372257599     0.208127586162     0.795502795488    12.000000000000
         C            3.578301742401    -0.230811513838     0.219747195488    12.000000000000
         C           -3.484631257599     1.268492486162     0.062529195488    12.000000000000
         C           -0.289290257599    -0.296152513838     0.109990195488    12.000000000000
         C            2.156954742401    -0.514687513838    -0.150046804512    12.000000000000
         C            1.083205742401    -0.028195513838     0.499700195488    12.000000000000
         C            4.315376742401     0.532861486162    -0.882836804512    12.000000000000
         H           -3.295613257599    -0.528702513838     1.231133195488     1.007825032230
         H           -1.206102257599     0.824525486162     1.646323195488     1.007825032230
         H            3.604086742401     0.344606486162     1.152338195488     1.007825032230
         H            4.105180742401    -1.173673513838     0.416413195488     1.007825032230
         H           -2.990370257599     1.739803486162    -0.789988804512     1.007825032230
         H           -4.536777257599     1.094150486162    -0.188924804512     1.007825032230
         H           -3.452633257599     1.952674486162     0.915205195488     1.007825032230
         H           -0.456069257599    -0.928753513838    -0.758874804512     1.007825032230
         H            1.997276742401    -1.145572513838    -1.026910804512     1.007825032230
         H            1.238074742401     0.605110486162     1.375631195488     1.007825032230
         H            4.305218742401    -0.030637513838    -1.820246804512     1.007825032230
         H            5.358872742401     0.713591486162    -0.609150804512     1.007825032230
         H            3.835213742401     1.497526486162    -1.065846804512     1.007825032230
         H           -3.726643257599    -1.060692513838    -0.981708804512     1.007825032230

  Basis Set: AUG-CC-PVTZ
    Blend: AUG-CC-PVTZ
  Basis Set: (AUG-CC-PVTZ AUX)
    Blend: AUG-CC-PVTZ-JKFIT
	 Reference Energy          =    -386.0547948104661486 [Eh]
	 Singles Energy            =      -0.0000000000000000 [Eh]
	 Same-Spin Energy          =      -0.3992733012665706 [Eh]
	 Opposite-Spin Energy      =      -1.3768334323197968 [Eh]
	 Correlation Energy        =      -1.7761067335863674 [Eh]
	 Total Energy              =    -387.8309015440524945 [Eh]

	 ================> DF-SCS-MP2 Energies <==================
	-----------------------------------------------------------
	 SCS Same-Spin Scale       =       0.3333333333333333 [-]
	 SCS Opposite-Spin Scale   =       1.2000000000000000 [-]
	 SCS Same-Spin Energy      =      -0.1330911004221902 [Eh]
	 SCS Opposite-Spin Energy  =      -1.6522001187837561 [Eh]
	 SCS Correlation Energy    =      -1.7852912192059462 [Eh]
	 SCS Total Energy          =    -387.8400860296720793 [Eh]
	-----------------------------------------------------------

  Dipole Moment: [D]
     X:    -1.1539      Y:     0.6418      Z:     0.5923     Total:     1.4471

*** Psi4 exiting successfully. Buy a developer a beer!
