                               Psi4 1.3.2 release

  ==> Input File <==

--------------------------------------------------------------------------
#psi4
#
memory 32 gb

molecule  {
0 1
  O       -2.7848290    -0.9154220    -0.7447340
  C       -2.8446011    -0.0426625     0.3838184
  C       -1.3446020     0.1937550     0.7721520
  C        3.5873700    -0.2293000     0.2222030
  C       -3.4755630     1.2700040     0.0649850
  C       -0.2802220    -0.2946410     0.1124460
  C        2.1660230    -0.5131760    -0.1475910
  C        1.0922740    -0.0266840     0.5021560
  C        4.3244450     0.5343730    -0.8803810
  H       -3.2865450    -0.5271910     1.2335890
  H       -1.1970340     0.8260370     1.6487790
  H        3.6131550     0.3461180     1.1547940
  H        4.1142490    -1.1721620     0.4188690
  H       -2.9813020     1.7413150    -0.7875330
  H       -4.5277090     1.0956620    -0.1864690
  H       -3.4435650     1.9541860     0.9176610
  H       -0.4470010    -0.9272420    -0.7564190
  H        2.0063450    -1.1440610    -1.0244550
  H        1.2471430     0.6066220     1.3780870
  H        4.3142870    -0.0291260    -1.8177910
  H        5.3679410     0.7151030    -0.6066950
  H        3.8442820     1.4990380    -1.0633910
  H       -3.7306035    -1.0287998    -0.9405323
units angstrom
no_reorient  #important for SAPT in psi4, default
symmetry c1  #important for SAPT in psi4, default
}

set PROPERTIES_ORIGIN ["COM"]
properties('MP2/aug-cc-pvtz', properties = ['dipole'])
--------------------------------------------------------------------------

    Molecular point group: c1
  Charge       = 0
  Multiplicity = 1
  Basis Set: AUG-CC-PVTZ
    Blend: AUG-CC-PVTZ
  Basis Set: (AUG-CC-PVTZ AUX)
    Blend: AUG-CC-PVTZ-JKFIT

    Orbital Energies [Eh]
    ---------------------

    Doubly Occupied:

       1A    -20.562670     2A    -11.286406     3A    -11.224733
       4A    -11.223894     5A    -11.222552     6A    -11.222276
       7A    -11.221298     8A    -11.220683     9A    -11.212256
      10A     -1.365805    11A     -1.095039    12A     -1.057283
      13A     -1.019937    14A     -0.962226    15A     -0.871782
      16A     -0.828247    17A     -0.752682    18A     -0.743592
      19A     -0.698513    20A     -0.636976    21A     -0.626946
      22A     -0.621275    23A     -0.590097    24A     -0.580843
      25A     -0.554155    26A     -0.543863    27A     -0.527375
      28A     -0.517360    29A     -0.501082    30A     -0.489105
      31A     -0.477598    32A     -0.461219    33A     -0.454803
      34A     -0.420076    35A     -0.297271

  @DF-RHF Final Energy:  -386.05549252649070

   => Energetics <=

    Nuclear Repulsion Energy =            417.6968464929014999
    One-Electron Energy =               -1351.3208374707346593
    Two-Electron Energy =                 547.5684984513425206
    Total Energy =                       -386.0554925264906387
  Basis Set: (AUG-CC-PVTZ AUX)
    Blend: AUG-CC-PVTZ-RI
    Molecular point group: c1

    Geometry (in Angstrom), charge = 0, multiplicity = 1:

       Center              X                  Y                   Z               Mass
    ------------   -----------------  -----------------  -----------------  -----------------
         O           -2.777615299246    -0.915773901718    -0.744818225448    15.994914619570
         C           -2.837387399246    -0.043014401718     0.383734174552    12.000000000000
         C           -1.337388299246     0.193403098282     0.772067774552    12.000000000000
         C            3.594583700754    -0.229651901718     0.222118774552    12.000000000000
         C           -3.468349299246     1.269652098282     0.064900774552    12.000000000000
         C           -0.273008299246    -0.294992901718     0.112361774552    12.000000000000
         C            2.173236700754    -0.513527901718    -0.147675225448    12.000000000000
         C            1.099487700754    -0.027035901718     0.502071774552    12.000000000000
         C            4.331658700754     0.534021098282    -0.880465225448    12.000000000000
         H           -3.279331299246    -0.527542901718     1.233504774552     1.007825032230
         H           -1.189820299246     0.825685098282     1.648694774552     1.007825032230
         H            3.620368700754     0.345766098282     1.154709774552     1.007825032230
         H            4.121462700754    -1.172513901718     0.418784774552     1.007825032230
         H           -2.974088299246     1.740963098282    -0.787617225448     1.007825032230
         H           -4.520495299246     1.095310098282    -0.186553225448     1.007825032230
         H           -3.436351299246     1.953834098282     0.917576774552     1.007825032230
         H           -0.439787299246    -0.927593901718    -0.756503225448     1.007825032230
         H            2.013558700754    -1.144412901718    -1.024539225448     1.007825032230
         H            1.254356700754     0.606270098282     1.378002774552     1.007825032230
         H            4.321500700754    -0.029477901718    -1.817875225448     1.007825032230
         H            5.375154700754     0.714751098282    -0.606779225448     1.007825032230
         H            3.851495700754     1.498686098282    -1.063475225448     1.007825032230
         H           -3.723389799246    -1.029151701718    -0.940616525448     1.007825032230

  Basis Set: AUG-CC-PVTZ
    Blend: AUG-CC-PVTZ
  Basis Set: (AUG-CC-PVTZ AUX)
    Blend: AUG-CC-PVTZ-JKFIT
	 Reference Energy          =    -386.0554925264906956 [Eh]
	 Singles Energy            =      -0.0000000000000000 [Eh]
	 Same-Spin Energy          =      -0.4005252575884715 [Eh]
	 Opposite-Spin Energy      =      -1.3791516288430368 [Eh]
	 Correlation Energy        =      -1.7796768864315082 [Eh]
	 Total Energy              =    -387.8351694129221983 [Eh]

	 ================> DF-SCS-MP2 Energies <==================
	-----------------------------------------------------------
	 SCS Same-Spin Scale       =       0.3333333333333333 [-]
	 SCS Opposite-Spin Scale   =       1.2000000000000000 [-]
	 SCS Same-Spin Energy      =      -0.1335084191961572 [Eh]
	 SCS Opposite-Spin Energy  =      -1.6549819546116440 [Eh]
	 SCS Correlation Energy    =      -1.7884903738078011 [Eh]
	 SCS Total Energy          =    -387.8439829002984993 [Eh]
	-----------------------------------------------------------

  Dipole Moment: [D]
     X:    -1.2883      Y:     0.6987      Z:     0.6107     Total:     1.5877

*** Psi4 exiting successfully. Buy a developer a beer!
