                               Psi4 1.4a3.dev225

  ==> Input File <==

--------------------------------------------------------------------------
#psi4
#
memory 32 gb

molecule  {
0 1
  O       -2.7624640     1.3159430     0.2248240
  C       -2.8209640    -0.0168770    -0.2887760
  C       -1.4198970    -0.4865040    -0.5315690
  C        3.5469730    -0.0618850    -0.4287090
  C       -3.5485140    -0.9406360     0.6857820
  C       -0.3124200     0.2274490    -0.2577540
  C        2.1505970     0.4383770    -0.2221580
  C        1.0177010    -0.2794319    -0.4900840
  C        4.3265940    -0.1505530     0.8872490
  H       -3.3622360    -0.0200820    -1.2509840
  H       -1.3293920    -1.4912640    -0.9473420
  H        3.5136740    -1.0471260    -0.9088000
  H        4.0812660     0.6062640    -1.1173180
  H       -3.0279280    -0.9272120     1.6463760
  H       -4.5820380    -0.6089360     0.8383050
  H       -3.5770120    -1.9680220     0.3103630
  H       -0.4219900     1.2292040     0.1523950
  H        2.0485920     1.4434520     0.1930580
  H        1.1311650    -1.2755230    -0.8987060
  H        4.3778580     0.8269450     1.3761990
  H        5.3504770    -0.4972710     0.7173650
  H        3.8373540    -0.8453320     1.5752720
  H       -3.6799020     1.6047450     0.3678300
units angstrom
no_reorient  #important for SAPT in psi4, default
symmetry c1  #important for SAPT in psi4, default
}

set PROPERTIES_ORIGIN ["COM"]
properties('MP2/aug-cc-pvtz', properties = ['dipole'])
--------------------------------------------------------------------------

    Molecular point group: c1
  Charge       = 0
  Multiplicity = 1
  Basis Set: AUG-CC-PVTZ
    Blend: AUG-CC-PVTZ
  Basis Set: (AUG-CC-PVTZ AUX)
    Blend: AUG-CC-PVTZ-JKFIT

    Orbital Energies [Eh]
    ---------------------

    Doubly Occupied:

       1A    -20.558836     2A    -11.286837     3A    -11.229233
       4A    -11.225133     5A    -11.223964     6A    -11.223619
       7A    -11.221994     8A    -11.220889     9A    -11.213308
      10A     -1.360143    11A     -1.096547    12A     -1.060180
      13A     -1.016176    14A     -0.960053    15A     -0.877144
      16A     -0.827700    17A     -0.753503    18A     -0.748396
      19A     -0.695093    20A     -0.636942    21A     -0.627022
      22A     -0.616631    23A     -0.589196    24A     -0.583226
      25A     -0.546461    26A     -0.543522    27A     -0.527327
      28A     -0.517890    29A     -0.501267    30A     -0.493147
      31A     -0.479115    32A     -0.469826    33A     -0.452885
      34A     -0.417719    35A     -0.293581

  @DF-RHF Final Energy:  -386.06066666718652

   => Energetics <=

    Nuclear Repulsion Energy =            417.6824333852884479
    One-Electron Energy =               -1351.2971898362366119
    Two-Electron Energy =                 547.5540897837615830
    Total Energy =                       -386.0606666671865241
  Basis Set: (AUG-CC-PVTZ AUX)
    Blend: AUG-CC-PVTZ-RI
    Molecular point group: c1

    Geometry (in Angstrom), charge = 0, multiplicity = 1:

       Center              X                  Y                   Z               Mass
    ------------   -----------------  -----------------  -----------------  -----------------
         O           -2.726695785504     1.293626061852     0.241366646579    15.994914619570
         C           -2.785195785504    -0.039193938148    -0.272233353421    12.000000000000
         C           -1.384128785504    -0.508820938148    -0.515026353421    12.000000000000
         C            3.582741214496    -0.084201938148    -0.412166353421    12.000000000000
         C           -3.512745785504    -0.962952938148     0.702324646579    12.000000000000
         C           -0.276651785504     0.205132061852    -0.241211353421    12.000000000000
         C            2.186365214496     0.416060061852    -0.205615353421    12.000000000000
         C            1.053469214496    -0.301748838148    -0.473541353421    12.000000000000
         C            4.362362214496    -0.172869938148     0.903791646579    12.000000000000
         H           -3.326467785504    -0.042398938148    -1.234441353421     1.007825032230
         H           -1.293623785504    -1.513580938148    -0.930799353421     1.007825032230
         H            3.549442214496    -1.069442938148    -0.892257353421     1.007825032230
         H            4.117034214496     0.583947061852    -1.100775353421     1.007825032230
         H           -2.992159785504    -0.949528938148     1.662918646579     1.007825032230
         H           -4.546269785504    -0.631252938148     0.854847646579     1.007825032230
         H           -3.541243785504    -1.990338938148     0.326905646579     1.007825032230
         H           -0.386221785504     1.206887061852     0.168937646579     1.007825032230
         H            2.084360214496     1.421135061852     0.209600646579     1.007825032230
         H            1.166933214496    -1.297839938148    -0.882163353421     1.007825032230
         H            4.413626214496     0.804628061852     1.392741646579     1.007825032230
         H            5.386245214496    -0.519587938148     0.733907646579     1.007825032230
         H            3.873122214496    -0.867648938148     1.591814646579     1.007825032230
         H           -3.644133785504     1.582428061852     0.384372646579     1.007825032230

  Basis Set: AUG-CC-PVTZ
    Blend: AUG-CC-PVTZ
  Basis Set: (AUG-CC-PVTZ AUX)
    Blend: AUG-CC-PVTZ-JKFIT
	 Reference Energy          =    -386.0606666671865241 [Eh]
	 Singles Energy            =      -0.0000000000000000 [Eh]
	 Same-Spin Energy          =      -0.4006511725544008 [Eh]
	 Opposite-Spin Energy      =      -1.3790567539378764 [Eh]
	 Correlation Energy        =      -1.7797079264922773 [Eh]
	 Total Energy              =    -387.8403745936788027 [Eh]

	 ================> DF-SCS-MP2 Energies <==================
	-----------------------------------------------------------
	 SCS Same-Spin Scale       =       0.3333333333333333 [-]
	 SCS Opposite-Spin Scale   =       1.2000000000000000 [-]
	 SCS Same-Spin Energy      =      -0.1335503908514669 [Eh]
	 SCS Opposite-Spin Energy  =      -1.6548681047254516 [Eh]
	 SCS Correlation Energy    =      -1.7884184955769187 [Eh]
	 SCS Total Energy          =    -387.8490851627634584 [Eh]
	-----------------------------------------------------------

  Dipole Moment: [D]
     X:    -1.1991      Y:    -0.8000      Z:    -0.1461     Total:     1.4489

*** Psi4 exiting successfully. Buy a developer a beer!
