                               Psi4 1.4a3.dev225

  ==> Input File <==

--------------------------------------------------------------------------
#psi4
#
memory 32 gb

molecule  {
0 1
  O       -2.7624640     1.3159430     0.2248240
  C       -2.8209640    -0.0168770    -0.2887760
  C       -1.4198970    -0.4865040    -0.5315690
  C        3.5469730    -0.0618850    -0.4287090
  C       -3.5485140    -0.9406360     0.6857820
  C       -0.3124200     0.2274490    -0.2577540
  C        2.1505970     0.4383770    -0.2221580
  C        0.9928506    -0.2951773    -0.4959611
  C        4.3265940    -0.1505530     0.8872490
  H       -3.3622360    -0.0200820    -1.2509840
  H       -1.3293920    -1.4912640    -0.9473420
  H        3.5136740    -1.0471260    -0.9088000
  H        4.0812660     0.6062640    -1.1173180
  H       -3.0279280    -0.9272120     1.6463760
  H       -4.5820380    -0.6089360     0.8383050
  H       -3.5770120    -1.9680220     0.3103630
  H       -0.4219900     1.2292040     0.1523950
  H        2.0485920     1.4434520     0.1930580
  H        1.1311650    -1.2755230    -0.8987060
  H        4.3778580     0.8269450     1.3761990
  H        5.3504770    -0.4972710     0.7173650
  H        3.8373540    -0.8453320     1.5752720
  H       -3.6799020     1.6047450     0.3678300
units angstrom
no_reorient  #important for SAPT in psi4, default
symmetry c1  #important for SAPT in psi4, default
}

set PROPERTIES_ORIGIN ["COM"]
properties('MP2/aug-cc-pvtz', properties = ['dipole'])
--------------------------------------------------------------------------

    Molecular point group: c1
  Charge       = 0
  Multiplicity = 1
  Basis Set: AUG-CC-PVTZ
    Blend: AUG-CC-PVTZ
  Basis Set: (AUG-CC-PVTZ AUX)
    Blend: AUG-CC-PVTZ-JKFIT

    Orbital Energies [Eh]
    ---------------------

    Doubly Occupied:

       1A    -20.558867     2A    -11.286540     3A    -11.233242
       4A    -11.226799     5A    -11.224335     6A    -11.223024
       7A    -11.221246     8A    -11.220778     9A    -11.213422
      10A     -1.360153    11A     -1.096296    12A     -1.059457
      13A     -1.017026    14A     -0.957030    15A     -0.878189
      16A     -0.826619    17A     -0.755388    18A     -0.748886
      19A     -0.695504    20A     -0.636978    21A     -0.627031
      22A     -0.616593    23A     -0.588768    24A     -0.583382
      25A     -0.546461    26A     -0.543737    27A     -0.527396
      28A     -0.516828    29A     -0.502300    30A     -0.494136
      31A     -0.479252    32A     -0.471076    33A     -0.452979
      34A     -0.417758    35A     -0.287938

  @DF-RHF Final Energy:  -386.05600652824296

   => Energetics <=

    Nuclear Repulsion Energy =            417.5955513294745174
    One-Electron Energy =               -1351.1122921915623465
    Two-Electron Energy =                 547.4607343338448118
    Total Energy =                       -386.0560065282429605
  Basis Set: (AUG-CC-PVTZ AUX)
    Blend: AUG-CC-PVTZ-RI
    Molecular point group: c1

    Geometry (in Angstrom), charge = 0, multiplicity = 1:

       Center              X                  Y                   Z               Mass
    ------------   -----------------  -----------------  -----------------  -----------------
         O           -2.724331041323     1.295124381518     0.241925906712    15.994914619570
         C           -2.782831041323    -0.037695618482    -0.271674093288    12.000000000000
         C           -1.381764041323    -0.507322618482    -0.514467093288    12.000000000000
         C            3.585105958677    -0.082703618482    -0.411607093288    12.000000000000
         C           -3.510381041323    -0.961454618482     0.702883906712    12.000000000000
         C           -0.274287041323     0.206630381518    -0.240652093288    12.000000000000
         C            2.188729958677     0.417558381518    -0.205056093288    12.000000000000
         C            1.030983558677    -0.315995918482    -0.478859193288    12.000000000000
         C            4.364726958677    -0.171371618482     0.904350906712    12.000000000000
         H           -3.324103041323    -0.040900618482    -1.233882093288     1.007825032230
         H           -1.291259041323    -1.512082618482    -0.930240093288     1.007825032230
         H            3.551806958677    -1.067944618482    -0.891698093288     1.007825032230
         H            4.119398958677     0.585445381518    -1.100216093288     1.007825032230
         H           -2.989795041323    -0.948030618482     1.663477906712     1.007825032230
         H           -4.543905041323    -0.629754618482     0.855406906712     1.007825032230
         H           -3.538879041323    -1.988840618482     0.327464906712     1.007825032230
         H           -0.383857041323     1.208385381518     0.169496906712     1.007825032230
         H            2.086724958677     1.422633381518     0.210159906712     1.007825032230
         H            1.169297958677    -1.296341618482    -0.881604093288     1.007825032230
         H            4.415990958677     0.806126381518     1.393300906712     1.007825032230
         H            5.388609958677    -0.518089618482     0.734466906712     1.007825032230
         H            3.875486958677    -0.866150618482     1.592373906712     1.007825032230
         H           -3.641769041323     1.583926381518     0.384931906712     1.007825032230

  Basis Set: AUG-CC-PVTZ
    Blend: AUG-CC-PVTZ
  Basis Set: (AUG-CC-PVTZ AUX)
    Blend: AUG-CC-PVTZ-JKFIT
	 Reference Energy          =    -386.0560065282429605 [Eh]
	 Singles Energy            =      -0.0000000000000000 [Eh]
	 Same-Spin Energy          =      -0.4012948092520325 [Eh]
	 Opposite-Spin Energy      =      -1.3801716502997166 [Eh]
	 Correlation Energy        =      -1.7814664595517491 [Eh]
	 Total Energy              =    -387.8374729877946834 [Eh]

	 ================> DF-SCS-MP2 Energies <==================
	-----------------------------------------------------------
	 SCS Same-Spin Scale       =       0.3333333333333333 [-]
	 SCS Opposite-Spin Scale   =       1.2000000000000000 [-]
	 SCS Same-Spin Energy      =      -0.1337649364173442 [Eh]
	 SCS Opposite-Spin Energy  =      -1.6562059803596598 [Eh]
	 SCS Correlation Energy    =      -1.7899709167770039 [Eh]
	 SCS Total Energy          =    -387.8459774450199689 [Eh]
	-----------------------------------------------------------

  Dipole Moment: [D]
     X:    -1.2020      Y:    -0.8076      Z:    -0.1499     Total:     1.4559

*** Psi4 exiting successfully. Buy a developer a beer!
