                               Psi4 1.3.2 release

  ==> Input File <==

--------------------------------------------------------------------------
#psi4
#
memory 32 gb

molecule  {
0 1
  O       -2.7723519    -0.8982820    -0.7578342
  C       -2.7698910    -0.0438090     0.3861860
  C       -1.3446020     0.1937550     0.7721520
  C        3.5873700    -0.2293000     0.2222030
  C       -3.4755630     1.2700040     0.0649850
  C       -0.2802220    -0.2946410     0.1124460
  C        2.1660230    -0.5131760    -0.1475910
  C        1.0922740    -0.0266840     0.5021560
  C        4.3244450     0.5343730    -0.8803810
  H       -3.2830380    -0.5116246     1.2443877
  H       -1.1970340     0.8260370     1.6487790
  H        3.6131550     0.3461180     1.1547940
  H        4.1142490    -1.1721620     0.4188690
  H       -2.9813020     1.7413150    -0.7875330
  H       -4.5277090     1.0956620    -0.1864690
  H       -3.4435650     1.9541860     0.9176610
  H       -0.4470010    -0.9272420    -0.7564190
  H        2.0063450    -1.1440610    -1.0244550
  H        1.2471430     0.6066220     1.3780870
  H        4.3142870    -0.0291260    -1.8177910
  H        5.3679410     0.7151030    -0.6066950
  H        3.8442820     1.4990380    -1.0633910
  H       -3.7175750    -1.0591810    -0.9792530
units angstrom
no_reorient  #important for SAPT in psi4, default
symmetry c1  #important for SAPT in psi4, default
}

set PROPERTIES_ORIGIN ["COM"]
properties('MP2/aug-cc-pvtz', properties = ['dipole'])
--------------------------------------------------------------------------

    Molecular point group: c1
  Charge       = 0
  Multiplicity = 1
  Basis Set: AUG-CC-PVTZ
    Blend: AUG-CC-PVTZ
  Basis Set: (AUG-CC-PVTZ AUX)
    Blend: AUG-CC-PVTZ-JKFIT

    Orbital Energies [Eh]
    ---------------------

    Doubly Occupied:

       1A    -20.560903     2A    -11.286487     3A    -11.225706
       4A    -11.223368     5A    -11.223070     6A    -11.222752
       7A    -11.221404     8A    -11.220092     9A    -11.212751
      10A     -1.359395    11A     -1.097520    12A     -1.060922
      13A     -1.015900    14A     -0.962306    15A     -0.876287
      16A     -0.828127    17A     -0.752145    18A     -0.746816
      19A     -0.695566    20A     -0.637288    21A     -0.627240
      22A     -0.615919    23A     -0.589961    24A     -0.582275
      25A     -0.546452    26A     -0.543235    27A     -0.527356
      28A     -0.518765    29A     -0.500442    30A     -0.492693
      31A     -0.478988    32A     -0.467631    33A     -0.453163
      34A     -0.418120    35A     -0.297215

  @DF-RHF Final Energy:  -386.06123736463081

   => Energetics <=

    Nuclear Repulsion Energy =            418.3879805210293057
    One-Electron Energy =               -1352.7219150822445499
    Two-Electron Energy =                 548.2726971965844314
    Total Energy =                       -386.0612373646308697
  Basis Set: (AUG-CC-PVTZ AUX)
    Blend: AUG-CC-PVTZ-RI
    Molecular point group: c1

    Geometry (in Angstrom), charge = 0, multiplicity = 1:

       Center              X                  Y                   Z               Mass
    ------------   -----------------  -----------------  -----------------  -----------------
         O           -2.773962282036    -0.900580415746    -0.756258961043    15.994914619570
         C           -2.771501382036    -0.046107415746     0.387761238957    12.000000000000
         C           -1.346212382036     0.191456584254     0.773727238957    12.000000000000
         C            3.585759617964    -0.231598415746     0.223778238957    12.000000000000
         C           -3.477173382036     1.267705584254     0.066560238957    12.000000000000
         C           -0.281832382036    -0.296939415746     0.114021238957    12.000000000000
         C            2.164412617964    -0.515474415746    -0.146015761043    12.000000000000
         C            1.090663617964    -0.028982415746     0.503731238957    12.000000000000
         C            4.322834617964     0.532074584254    -0.878805761043    12.000000000000
         H           -3.284648382036    -0.513923015746     1.245962938957     1.007825032230
         H           -1.198644382036     0.823738584254     1.650354238957     1.007825032230
         H            3.611544617964     0.343819584254     1.156369238957     1.007825032230
         H            4.112638617964    -1.174460415746     0.420444238957     1.007825032230
         H           -2.982912382036     1.739016584254    -0.785957761043     1.007825032230
         H           -4.529319382036     1.093363584254    -0.184893761043     1.007825032230
         H           -3.445175382036     1.951887584254     0.919236238957     1.007825032230
         H           -0.448611382036    -0.929540415746    -0.754843761043     1.007825032230
         H            2.004734617964    -1.146359415746    -1.022879761043     1.007825032230
         H            1.245532617964     0.604323584254     1.379662238957     1.007825032230
         H            4.312676617964    -0.031424415746    -1.816215761043     1.007825032230
         H            5.366330617964     0.712804584254    -0.605119761043     1.007825032230
         H            3.842671617964     1.496739584254    -1.061815761043     1.007825032230
         H           -3.719185382036    -1.061479415746    -0.977677761043     1.007825032230

  Basis Set: AUG-CC-PVTZ
    Blend: AUG-CC-PVTZ
  Basis Set: (AUG-CC-PVTZ AUX)
    Blend: AUG-CC-PVTZ-JKFIT
	 Reference Energy          =    -386.0612373646308129 [Eh]
	 Singles Energy            =      -0.0000000000000000 [Eh]
	 Same-Spin Energy          =      -0.4005966470906910 [Eh]
	 Opposite-Spin Energy      =      -1.3788355612785068 [Eh]
	 Correlation Energy        =      -1.7794322083691978 [Eh]
	 Total Energy              =    -387.8406695730000138 [Eh]

	 ================> DF-SCS-MP2 Energies <==================
	-----------------------------------------------------------
	 SCS Same-Spin Scale       =       0.3333333333333333 [-]
	 SCS Opposite-Spin Scale   =       1.2000000000000000 [-]
	 SCS Same-Spin Energy      =      -0.1335322156968970 [Eh]
	 SCS Opposite-Spin Energy  =      -1.6546026735342081 [Eh]
	 SCS Correlation Energy    =      -1.7881348892311051 [Eh]
	 SCS Total Energy          =    -387.8493722538619295 [Eh]
	-----------------------------------------------------------

  Dipole Moment: [D]
     X:    -1.1874      Y:     0.5941      Z:     0.5982     Total:     1.4563

*** Psi4 exiting successfully. Buy a developer a beer!
