                               Psi4 1.4a3.dev225

  ==> Input File <==

--------------------------------------------------------------------------
#psi4
#
memory 32 gb

molecule  {
0 1
  O       -2.7624640     1.3159430     0.2248240
  C       -2.8201456     0.0017697    -0.2815905
  C       -1.4198970    -0.4865040    -0.5315690
  C        3.5469730    -0.0618850    -0.4287090
  C       -3.5485140    -0.9406360     0.6857820
  C       -0.3124200     0.2274490    -0.2577540
  C        2.1505970     0.4383770    -0.2221580
  C        1.0342680    -0.2689350    -0.4861660
  C        4.3265940    -0.1505530     0.8872490
  H       -3.3622360    -0.0200820    -1.2509840
  H       -1.3293920    -1.4912640    -0.9473420
  H        3.5136740    -1.0471260    -0.9088000
  H        4.0812660     0.6062640    -1.1173180
  H       -3.0279280    -0.9272120     1.6463760
  H       -4.5820380    -0.6089360     0.8383050
  H       -3.5770120    -1.9680220     0.3103630
  H       -0.4219900     1.2292040     0.1523950
  H        2.0485920     1.4434520     0.1930580
  H        1.1311650    -1.2755230    -0.8987060
  H        4.3778580     0.8269450     1.3761990
  H        5.3504770    -0.4972710     0.7173650
  H        3.8373540    -0.8453320     1.5752720
  H       -3.6799020     1.6047450     0.3678300
units angstrom
no_reorient  #important for SAPT in psi4, default
symmetry c1  #important for SAPT in psi4, default
}

set PROPERTIES_ORIGIN ["COM"]
properties('MP2/aug-cc-pvtz', properties = ['dipole'])
--------------------------------------------------------------------------

    Molecular point group: c1
  Charge       = 0
  Multiplicity = 1
  Basis Set: AUG-CC-PVTZ
    Blend: AUG-CC-PVTZ
  Basis Set: (AUG-CC-PVTZ AUX)
    Blend: AUG-CC-PVTZ-JKFIT

    Orbital Energies [Eh]
    ---------------------

    Doubly Occupied:

       1A    -20.561392     2A    -11.287341     3A    -11.226149
       4A    -11.223967     5A    -11.223572     6A    -11.223374
       7A    -11.221998     8A    -11.220530     9A    -11.213065
      10A     -1.368596    11A     -1.096612    12A     -1.059483
      13A     -1.014170    14A     -0.961402    15A     -0.875761
      16A     -0.828230    17A     -0.752330    18A     -0.748920
      19A     -0.696934    20A     -0.638585    21A     -0.626557
      22A     -0.618608    23A     -0.590472    24A     -0.583120
      25A     -0.547084    26A     -0.542429    27A     -0.529042
      28A     -0.518309    29A     -0.501686    30A     -0.491826
      31A     -0.478923    32A     -0.466296    33A     -0.451789
      34A     -0.416946    35A     -0.296794

  @DF-RHF Final Energy:  -386.06236530066360

   => Energetics <=

    Nuclear Repulsion Energy =            417.8783903193955211
    One-Electron Energy =               -1351.6769210424365610
    Two-Electron Energy =                 547.7361654223774394
    Total Energy =                       -386.0623653006636005
  Basis Set: (AUG-CC-PVTZ AUX)
    Blend: AUG-CC-PVTZ-RI
    Molecular point group: c1

    Geometry (in Angstrom), charge = 0, multiplicity = 1:

       Center              X                  Y                   Z               Mass
    ------------   -----------------  -----------------  -----------------  -----------------
         O           -2.728350166258     1.290852780194     0.240310046402    15.994914619570
         C           -2.786031766258    -0.023320519806    -0.266104453598    12.000000000000
         C           -1.385783166258    -0.511594219806    -0.516082953598    12.000000000000
         C            3.581086833742    -0.086975219806    -0.413222953598    12.000000000000
         C           -3.514400166258    -0.965726219806     0.701268046402    12.000000000000
         C           -0.278306166258     0.202358780194    -0.242267953598    12.000000000000
         C            2.184710833742     0.413286780194    -0.206671953598    12.000000000000
         C            1.068381833742    -0.294025219806    -0.470679953598    12.000000000000
         C            4.360707833742    -0.175643219806     0.902735046402    12.000000000000
         H           -3.328122166258    -0.045172219806    -1.235497953598     1.007825032230
         H           -1.295278166258    -1.516354219806    -0.931855953598     1.007825032230
         H            3.547787833742    -1.072216219806    -0.893313953598     1.007825032230
         H            4.115379833742     0.581173780194    -1.101831953598     1.007825032230
         H           -2.993814166258    -0.952302219806     1.661862046402     1.007825032230
         H           -4.547924166258    -0.634026219806     0.853791046402     1.007825032230
         H           -3.542898166258    -1.993112219806     0.325849046402     1.007825032230
         H           -0.387876166258     1.204113780194     0.167881046402     1.007825032230
         H            2.082705833742     1.418361780194     0.208544046402     1.007825032230
         H            1.165278833742    -1.300613219806    -0.883219953598     1.007825032230
         H            4.411971833742     0.801854780194     1.391685046402     1.007825032230
         H            5.384590833742    -0.522361219806     0.732851046402     1.007825032230
         H            3.871467833742    -0.870422219806     1.590758046402     1.007825032230
         H           -3.645788166258     1.579654780194     0.383316046402     1.007825032230

  Basis Set: AUG-CC-PVTZ
    Blend: AUG-CC-PVTZ
  Basis Set: (AUG-CC-PVTZ AUX)
    Blend: AUG-CC-PVTZ-JKFIT
	 Reference Energy          =    -386.0623653006636005 [Eh]
	 Singles Energy            =      -0.0000000000000000 [Eh]
	 Same-Spin Energy          =      -0.4002195567741676 [Eh]
	 Opposite-Spin Energy      =      -1.3780696880713892 [Eh]
	 Correlation Energy        =      -1.7782892448455567 [Eh]
	 Total Energy              =    -387.8406545455091532 [Eh]

	 ================> DF-SCS-MP2 Energies <==================
	-----------------------------------------------------------
	 SCS Same-Spin Scale       =       0.3333333333333333 [-]
	 SCS Opposite-Spin Scale   =       1.2000000000000000 [-]
	 SCS Same-Spin Energy      =      -0.1334065189247225 [Eh]
	 SCS Opposite-Spin Energy  =      -1.6536836256856671 [Eh]
	 SCS Correlation Energy    =      -1.7870901446103895 [Eh]
	 SCS Total Energy          =    -387.8494554452739749 [Eh]
	-----------------------------------------------------------

  Dipole Moment: [D]
     X:    -1.2192      Y:    -0.7304      Z:    -0.1265     Total:     1.4268

*** Psi4 exiting successfully. Buy a developer a beer!
