                               Psi4 1.3.2 release

  ==> Input File <==

--------------------------------------------------------------------------
#psi4
#
memory 32 gb

molecule  {
0 1
  O       -2.7848290    -0.9154220    -0.7447340
  C       -2.7698910    -0.0438090     0.3861860
  C       -1.3153086     0.2152207     0.8018546
  C        3.5873700    -0.2293000     0.2222030
  C       -3.4755630     1.2700040     0.0649850
  C       -0.2802220    -0.2946410     0.1124460
  C        2.1660230    -0.5131760    -0.1475910
  C        1.0922740    -0.0266840     0.5021560
  C        4.3244450     0.5343730    -0.8803810
  H       -3.2865450    -0.5271910     1.2335890
  H       -1.1970340     0.8260370     1.6487790
  H        3.6131550     0.3461180     1.1547940
  H        4.1142490    -1.1721620     0.4188690
  H       -2.9813020     1.7413150    -0.7875330
  H       -4.5277090     1.0956620    -0.1864690
  H       -3.4435650     1.9541860     0.9176610
  H       -0.4093914    -0.9304527    -0.7604712
  H        2.0063450    -1.1440610    -1.0244550
  H        1.2471430     0.6066220     1.3780870
  H        4.3142870    -0.0291260    -1.8177910
  H        5.3679410     0.7151030    -0.6066950
  H        3.8442820     1.4990380    -1.0633910
  H       -3.7175750    -1.0591810    -0.9792530
units angstrom
no_reorient  #important for SAPT in psi4, default
symmetry c1  #important for SAPT in psi4, default
}

set PROPERTIES_ORIGIN ["COM"]
properties('MP2/aug-cc-pvtz', properties = ['dipole'])
--------------------------------------------------------------------------

    Molecular point group: c1
  Charge       = 0
  Multiplicity = 1
  Basis Set: AUG-CC-PVTZ
    Blend: AUG-CC-PVTZ
  Basis Set: (AUG-CC-PVTZ AUX)
    Blend: AUG-CC-PVTZ-JKFIT

    Orbital Energies [Eh]
    ---------------------

    Doubly Occupied:

       1A    -20.558745     2A    -11.287593     3A    -11.225042
       4A    -11.224357     5A    -11.222843     6A    -11.222052
       7A    -11.221673     8A    -11.219775     9A    -11.212618
      10A     -1.359543    11A     -1.097795    12A     -1.058881
      13A     -1.014732    14A     -0.961802    15A     -0.873852
      16A     -0.826278    17A     -0.756653    18A     -0.750710
      19A     -0.693163    20A     -0.637077    21A     -0.626784
      22A     -0.616021    23A     -0.590661    24A     -0.584266
      25A     -0.550656    26A     -0.543553    27A     -0.525881
      28A     -0.519703    29A     -0.504792    30A     -0.490070
      31A     -0.478361    32A     -0.461828    33A     -0.451314
      34A     -0.419036    35A     -0.297749

  @DF-RHF Final Energy:  -386.06047210255161

   => Energetics <=

    Nuclear Repulsion Energy =            417.8371379875069920
    One-Electron Energy =               -1351.6235061986865276
    Two-Electron Energy =                 547.7258961086279214
    Total Energy =                       -386.0604721025515573
  Basis Set: (AUG-CC-PVTZ AUX)
    Blend: AUG-CC-PVTZ-RI
    Molecular point group: c1

    Geometry (in Angstrom), charge = 0, multiplicity = 1:

       Center              X                  Y                   Z               Mass
    ------------   -----------------  -----------------  -----------------  -----------------
         O           -2.787916888044    -0.917438994561    -0.747528159632    15.994914619570
         C           -2.772978888044    -0.045825994561     0.383391840368    12.000000000000
         C           -1.318396488044     0.213203705439     0.799060440368    12.000000000000
         C            3.584282111956    -0.231316994561     0.219408840368    12.000000000000
         C           -3.478650888044     1.267987005439     0.062190840368    12.000000000000
         C           -0.283309888044    -0.296657994561     0.109651840368    12.000000000000
         C            2.162935111956    -0.515192994561    -0.150385159632    12.000000000000
         C            1.089186111956    -0.028700994561     0.499361840368    12.000000000000
         C            4.321357111956     0.532356005439    -0.883175159632    12.000000000000
         H           -3.289632888044    -0.529207994561     1.230794840368     1.007825032230
         H           -1.200121888044     0.824020005439     1.645984840368     1.007825032230
         H            3.610067111956     0.344101005439     1.151999840368     1.007825032230
         H            4.111161111956    -1.174178994561     0.416074840368     1.007825032230
         H           -2.984389888044     1.739298005439    -0.790327159632     1.007825032230
         H           -4.530796888044     1.093645005439    -0.189263159632     1.007825032230
         H           -3.446652888044     1.952169005439     0.914866840368     1.007825032230
         H           -0.412479288044    -0.932469694561    -0.763265359632     1.007825032230
         H            2.003257111956    -1.146077994561    -1.027249159632     1.007825032230
         H            1.244055111956     0.604605005439     1.375292840368     1.007825032230
         H            4.311199111956    -0.031142994561    -1.820585159632     1.007825032230
         H            5.364853111956     0.713086005439    -0.609489159632     1.007825032230
         H            3.841194111956     1.497021005439    -1.066185159632     1.007825032230
         H           -3.720662888044    -1.061197994561    -0.982047159632     1.007825032230

  Basis Set: AUG-CC-PVTZ
    Blend: AUG-CC-PVTZ
  Basis Set: (AUG-CC-PVTZ AUX)
    Blend: AUG-CC-PVTZ-JKFIT
	 Reference Energy          =    -386.0604721025516142 [Eh]
	 Singles Energy            =      -0.0000000000000000 [Eh]
	 Same-Spin Energy          =      -0.3999925857804696 [Eh]
	 Opposite-Spin Energy      =      -1.3780382577626751 [Eh]
	 Correlation Energy        =      -1.7780308435431447 [Eh]
	 Total Energy              =    -387.8385029460947635 [Eh]

	 ================> DF-SCS-MP2 Energies <==================
	-----------------------------------------------------------
	 SCS Same-Spin Scale       =       0.3333333333333333 [-]
	 SCS Opposite-Spin Scale   =       1.2000000000000000 [-]
	 SCS Same-Spin Energy      =      -0.1333308619268232 [Eh]
	 SCS Opposite-Spin Energy  =      -1.6536459093152100 [Eh]
	 SCS Correlation Energy    =      -1.7869767712420332 [Eh]
	 SCS Total Energy          =    -387.8474488737936667 [Eh]
	-----------------------------------------------------------

  Dipole Moment: [D]
     X:    -1.1343      Y:     0.6427      Z:     0.5935     Total:     1.4324

*** Psi4 exiting successfully. Buy a developer a beer!
