                               Psi4 1.3.2 release

  ==> Input File <==

--------------------------------------------------------------------------
#psi4
#
memory 32 gb

molecule  {
0 1
  O       -2.7848290    -0.9154220    -0.7447340
  C       -2.7698910    -0.0438090     0.3861860
  C       -1.3446020     0.1937550     0.7721520
  C        3.5873700    -0.2293000     0.2222030
  C       -3.4755630     1.2700040     0.0649850
  C       -0.2802220    -0.2946410     0.1124460
  C        2.1660230    -0.5131760    -0.1475910
  C        1.0922740    -0.0266840     0.5021560
  C        4.3346220     0.5733439    -0.8452916
  H       -3.2865450    -0.5271910     1.2335890
  H       -1.1970340     0.8260370     1.6487790
  H        3.6330530     0.3733157     1.1366778
  H        4.1142490    -1.1721620     0.4188690
  H       -2.9813020     1.7413150    -0.7875330
  H       -4.5277090     1.0956620    -0.1864690
  H       -3.4435650     1.9541860     0.9176610
  H       -0.4470010    -0.9272420    -0.7564190
  H        2.0063450    -1.1440610    -1.0244550
  H        1.2471430     0.6066220     1.3780870
  H        4.3142870    -0.0291260    -1.8177910
  H        5.3679410     0.7151030    -0.6066950
  H        3.8442820     1.4990380    -1.0633910
  H       -3.7175750    -1.0591810    -0.9792530
units angstrom
no_reorient  #important for SAPT in psi4, default
symmetry c1  #important for SAPT in psi4, default
}

set PROPERTIES_ORIGIN ["COM"]
properties('MP2/aug-cc-pvtz', properties = ['dipole'])
--------------------------------------------------------------------------

    Molecular point group: c1
  Charge       = 0
  Multiplicity = 1
  Basis Set: AUG-CC-PVTZ
    Blend: AUG-CC-PVTZ
  Basis Set: (AUG-CC-PVTZ AUX)
    Blend: AUG-CC-PVTZ-JKFIT

    Orbital Energies [Eh]
    ---------------------

    Doubly Occupied:

       1A    -20.558910     2A    -11.286701     3A    -11.226404
       4A    -11.224075     5A    -11.223559     6A    -11.223201
       7A    -11.222103     8A    -11.220825     9A    -11.212860
      10A     -1.360957    11A     -1.097925    12A     -1.061360
      13A     -1.016432    14A     -0.963003    15A     -0.876868
      16A     -0.828475    17A     -0.752309    18A     -0.748318
      19A     -0.695395    20A     -0.637201    21A     -0.628891
      22A     -0.617429    23A     -0.593061    24A     -0.583145
      25A     -0.546318    26A     -0.542656    27A     -0.525602
      28A     -0.521487    29A     -0.505373    30A     -0.492566
      31A     -0.469988    32A     -0.468232    33A     -0.453099
      34A     -0.418768    35A     -0.298046

  @DF-RHF Final Energy:  -386.05930851342936

   => Energetics <=

    Nuclear Repulsion Energy =            418.1877912185113360
    One-Electron Energy =               -1352.2911090873012654
    Two-Electron Energy =                 548.0440093553604584
    Total Energy =                       -386.0593085134294142
  Basis Set: (AUG-CC-PVTZ AUX)
    Blend: AUG-CC-PVTZ-RI
    Molecular point group: c1

    Geometry (in Angstrom), charge = 0, multiplicity = 1:

       Center              X                  Y                   Z               Mass
    ------------   -----------------  -----------------  -----------------  -----------------
         O           -2.785956235868    -0.919347798873    -0.747928363928    15.994914619570
         C           -2.771018235868    -0.047734798873     0.382991636072    12.000000000000
         C           -1.345729235868     0.189829201127     0.768957636072    12.000000000000
         C            3.586242764132    -0.233225798873     0.219008636072    12.000000000000
         C           -3.476690235868     1.266078201127     0.061790636072    12.000000000000
         C           -0.281349235868    -0.298566798873     0.109251636072    12.000000000000
         C            2.164895764132    -0.517101798873    -0.150785363928    12.000000000000
         C            1.091146764132    -0.030609798873     0.498961636072    12.000000000000
         C            4.333494764132     0.569418101127    -0.848485963928    12.000000000000
         H           -3.287672235868    -0.531116798873     1.230394636072     1.007825032230
         H           -1.198161235868     0.822111201127     1.645584636072     1.007825032230
         H            3.631925764132     0.369389901127     1.133483436072     1.007825032230
         H            4.113121764132    -1.176087798873     0.415674636072     1.007825032230
         H           -2.982429235868     1.737389201127    -0.790727363928     1.007825032230
         H           -4.528836235868     1.091736201127    -0.189663363928     1.007825032230
         H           -3.444692235868     1.950260201127     0.914466636072     1.007825032230
         H           -0.448128235868    -0.931167798873    -0.759613363928     1.007825032230
         H            2.005217764132    -1.147986798873    -1.027649363928     1.007825032230
         H            1.246015764132     0.602696201127     1.374892636072     1.007825032230
         H            4.313159764132    -0.033051798873    -1.820985363928     1.007825032230
         H            5.366813764132     0.711177201127    -0.609889363928     1.007825032230
         H            3.843154764132     1.495112201127    -1.066585363928     1.007825032230
         H           -3.718702235868    -1.063106798873    -0.982447363928     1.007825032230

  Basis Set: AUG-CC-PVTZ
    Blend: AUG-CC-PVTZ
  Basis Set: (AUG-CC-PVTZ AUX)
    Blend: AUG-CC-PVTZ-JKFIT
	 Reference Energy          =    -386.0593085134293574 [Eh]
	 Singles Energy            =      -0.0000000000000000 [Eh]
	 Same-Spin Energy          =      -0.4003638428665733 [Eh]
	 Opposite-Spin Energy      =      -1.3784501433575045 [Eh]
	 Correlation Energy        =      -1.7788139862240779 [Eh]
	 Total Energy              =    -387.8381224996534229 [Eh]

	 ================> DF-SCS-MP2 Energies <==================
	-----------------------------------------------------------
	 SCS Same-Spin Scale       =       0.3333333333333333 [-]
	 SCS Opposite-Spin Scale   =       1.2000000000000000 [-]
	 SCS Same-Spin Energy      =      -0.1334546142888578 [Eh]
	 SCS Opposite-Spin Energy  =      -1.6541401720290054 [Eh]
	 SCS Correlation Energy    =      -1.7875947863178632 [Eh]
	 SCS Total Energy          =    -387.8469032997472254 [Eh]
	-----------------------------------------------------------

  Dipole Moment: [D]
     X:    -1.1861      Y:     0.6661      Z:     0.6067     Total:     1.4895

*** Psi4 exiting successfully. Buy a developer a beer!
