                               Psi4 1.3.2 release

  ==> Input File <==

--------------------------------------------------------------------------
#psi4
#
memory 32 gb

molecule  {
0 1
  O       -2.7848290    -0.9154220    -0.7447340
  C       -2.7698910    -0.0438090     0.3861860
  C       -1.3446020     0.1937550     0.7721520
  C        3.5873700    -0.2293000     0.2222030
  C       -3.4755630     1.2700040     0.0649850
  C       -0.2802220    -0.2946410     0.1124460
  C        2.1660230    -0.5131760    -0.1475910
  C        1.0922740    -0.0266840     0.5021560
  C        4.3244450     0.5343730    -0.8803810
  H       -3.2865450    -0.5271910     1.2335890
  H       -1.1970340     0.8260370     1.6487790
  H        3.6131550     0.3461180     1.1547940
  H        4.1142490    -1.1721620     0.4188690
  H       -2.9813020     1.7413150    -0.7875330
  H       -4.5277090     1.0956620    -0.1864690
  H       -3.4435650     1.9541860     0.9176610
  H       -0.4776695    -1.0435692    -0.9161921
  H        2.0063450    -1.1440610    -1.0244550
  H        1.2471430     0.6066220     1.3780870
  H        4.3142870    -0.0291260    -1.8177910
  H        5.3679410     0.7151030    -0.6066950
  H        3.8442820     1.4990380    -1.0633910
  H       -3.7175750    -1.0591810    -0.9792530
units angstrom
no_reorient  #important for SAPT in psi4, default
symmetry c1  #important for SAPT in psi4, default
}

set PROPERTIES_ORIGIN ["COM"]
properties('MP2/aug-cc-pvtz', properties = ['dipole'])
--------------------------------------------------------------------------

    Molecular point group: c1
  Charge       = 0
  Multiplicity = 1
  Basis Set: AUG-CC-PVTZ
    Blend: AUG-CC-PVTZ
  Basis Set: (AUG-CC-PVTZ AUX)
    Blend: AUG-CC-PVTZ-JKFIT

    Orbital Energies [Eh]
    ---------------------

    Doubly Occupied:

       1A    -20.558154     2A    -11.286712     3A    -11.242711
       4A    -11.226498     5A    -11.224486     6A    -11.223921
       7A    -11.223376     8A    -11.220634     9A    -11.213035
      10A     -1.360352    11A     -1.096140    12A     -1.060886
      13A     -1.015030    14A     -0.962089    15A     -0.875794
      16A     -0.828037    17A     -0.753026    18A     -0.732078
      19A     -0.694231    20A     -0.630775    21A     -0.626358
      22A     -0.615904    23A     -0.588867    24A     -0.582170
      25A     -0.545739    26A     -0.541044    27A     -0.527605
      28A     -0.518211    29A     -0.494886    30A     -0.480029
      31A     -0.479240    32A     -0.461209    33A     -0.452765
      34A     -0.418980    35A     -0.298066

  @DF-RHF Final Energy:  -386.04010488363122

   => Energetics <=

    Nuclear Repulsion Energy =            417.4704837527935979
    One-Electron Energy =               -1350.9031060352604072
    Two-Electron Energy =                 547.3925173988355937
    Total Energy =                       -386.0401048836312157
  Basis Set: (AUG-CC-PVTZ AUX)
    Blend: AUG-CC-PVTZ-RI
    Molecular point group: c1

    Geometry (in Angstrom), charge = 0, multiplicity = 1:

       Center              X                  Y                   Z               Mass
    ------------   -----------------  -----------------  -----------------  -----------------
         O           -2.784583673965    -0.914492310317    -0.743457164836    15.994914619570
         C           -2.769645673965    -0.042879310317     0.387462835164    12.000000000000
         C           -1.344356673965     0.194684689683     0.773428835164    12.000000000000
         C            3.587615326035    -0.228370310317     0.223479835164    12.000000000000
         C           -3.475317673965     1.270933689683     0.066261835164    12.000000000000
         C           -0.279976673965    -0.293711310317     0.113722835164    12.000000000000
         C            2.166268326035    -0.512246310317    -0.146314164836    12.000000000000
         C            1.092519326035    -0.025754310317     0.503432835164    12.000000000000
         C            4.324690326035     0.535302689683    -0.879104164836    12.000000000000
         H           -3.286299673965    -0.526261310317     1.234865835164     1.007825032230
         H           -1.196788673965     0.826966689683     1.650055835164     1.007825032230
         H            3.613400326035     0.347047689683     1.156070835164     1.007825032230
         H            4.114494326035    -1.171232310317     0.420145835164     1.007825032230
         H           -2.981056673965     1.742244689683    -0.786256164836     1.007825032230
         H           -4.527463673965     1.096591689683    -0.185192164836     1.007825032230
         H           -3.443319673965     1.955115689683     0.918937835164     1.007825032230
         H           -0.477424173965    -1.042639510317    -0.914915264836     1.007825032230
         H            2.006590326035    -1.143131310317    -1.023178164836     1.007825032230
         H            1.247388326035     0.607551689683     1.379363835164     1.007825032230
         H            4.314532326035    -0.028196310317    -1.816514164836     1.007825032230
         H            5.368186326035     0.716032689683    -0.605418164836     1.007825032230
         H            3.844527326035     1.499967689683    -1.062114164836     1.007825032230
         H           -3.717329673965    -1.058251310317    -0.977976164836     1.007825032230

  Basis Set: AUG-CC-PVTZ
    Blend: AUG-CC-PVTZ
  Basis Set: (AUG-CC-PVTZ AUX)
    Blend: AUG-CC-PVTZ-JKFIT
	 Reference Energy          =    -386.0401048836312157 [Eh]
	 Singles Energy            =      -0.0000000000000000 [Eh]
	 Same-Spin Energy          =      -0.4011903426998964 [Eh]
	 Opposite-Spin Energy      =      -1.3806634350205871 [Eh]
	 Correlation Energy        =      -1.7818537777204835 [Eh]
	 Total Energy              =    -387.8219586613516867 [Eh]

	 ================> DF-SCS-MP2 Energies <==================
	-----------------------------------------------------------
	 SCS Same-Spin Scale       =       0.3333333333333333 [-]
	 SCS Opposite-Spin Scale   =       1.2000000000000000 [-]
	 SCS Same-Spin Energy      =      -0.1337301142332988 [Eh]
	 SCS Opposite-Spin Energy  =      -1.6567961220247045 [Eh]
	 SCS Correlation Energy    =      -1.7905262362580032 [Eh]
	 SCS Total Energy          =    -387.8306311198892331 [Eh]
	-----------------------------------------------------------

  Dipole Moment: [D]
     X:    -1.1524      Y:     0.6642      Z:     0.6044     Total:     1.4610

*** Psi4 exiting successfully. Buy a developer a beer!
