                               Psi4 1.3.2 release

  ==> Input File <==

--------------------------------------------------------------------------
#psi4
#
memory 32 gb

molecule  {
0 1
  O       -2.7848290    -0.9154220    -0.7447340
  C       -2.7698910    -0.0438090     0.3861860
  C       -1.3517241     0.1882946     0.7645993
  C        3.5873700    -0.2293000     0.2222030
  C       -3.4755630     1.2700040     0.0649850
  C       -0.2802220    -0.2946410     0.1124460
  C        2.1660230    -0.5131760    -0.1475910
  C        1.0922740    -0.0266840     0.5021560
  C        4.3244450     0.5343730    -0.8803810
  H       -3.2865450    -0.5271910     1.2335890
  H       -1.1970340     0.8260370     1.6487790
  H        3.6131550     0.3461180     1.1547940
  H        4.1142490    -1.1721620     0.4188690
  H       -2.9813020     1.7413150    -0.7875330
  H       -4.5277090     1.0956620    -0.1864690
  H       -3.4435650     1.9541860     0.9176610
  H       -0.4563734    -0.9263187    -0.7552403
  H        2.0063450    -1.1440610    -1.0244550
  H        1.2471430     0.6066220     1.3780870
  H        4.3142870    -0.0291260    -1.8177910
  H        5.3679410     0.7151030    -0.6066950
  H        3.8442820     1.4990380    -1.0633910
  H       -3.7175750    -1.0591810    -0.9792530
units angstrom
no_reorient  #important for SAPT in psi4, default
symmetry c1  #important for SAPT in psi4, default
}

set PROPERTIES_ORIGIN ["COM"]
properties('MP2/aug-cc-pvtz', properties = ['dipole'])
--------------------------------------------------------------------------

    Molecular point group: c1
  Charge       = 0
  Multiplicity = 1
  Basis Set: AUG-CC-PVTZ
    Blend: AUG-CC-PVTZ
  Basis Set: (AUG-CC-PVTZ AUX)
    Blend: AUG-CC-PVTZ-JKFIT

    Orbital Energies [Eh]
    ---------------------

    Doubly Occupied:

       1A    -20.558732     2A    -11.286169     3A    -11.226165
       4A    -11.223774     5A    -11.223346     6A    -11.223207
       7A    -11.221698     8A    -11.220852     9A    -11.212945
      10A     -1.361113    11A     -1.097881    12A     -1.062006
      13A     -1.016462    14A     -0.962674    15A     -0.877455
      16A     -0.829233    17A     -0.752647    18A     -0.746235
      19A     -0.695767    20A     -0.637383    21A     -0.627866
      22A     -0.617666    23A     -0.590367    24A     -0.582591
      25A     -0.546223    26A     -0.542899    27A     -0.527660
      28A     -0.518796    29A     -0.499515    30A     -0.492885
      31A     -0.479356    32A     -0.469104    33A     -0.453228
      34A     -0.418107    35A     -0.297426

  @DF-RHF Final Energy:  -386.06220585277731

   => Energetics <=

    Nuclear Repulsion Energy =            418.3836079685949016
    One-Electron Energy =               -1352.6927681539004880
    Two-Electron Energy =                 548.2469543325282757
    Total Energy =                       -386.0622058527773106
  Basis Set: (AUG-CC-PVTZ AUX)
    Blend: AUG-CC-PVTZ-RI
    Molecular point group: c1

    Geometry (in Angstrom), charge = 0, multiplicity = 1:

       Center              X                  Y                   Z               Mass
    ------------   -----------------  -----------------  -----------------  -----------------
         O           -2.784076138746    -0.914909767296    -0.744024780368    15.994914619570
         C           -2.769138138746    -0.043296767296     0.386895219632    12.000000000000
         C           -1.350971238746     0.188806832704     0.765308519632    12.000000000000
         C            3.588122861254    -0.228787767296     0.222912219632    12.000000000000
         C           -3.474810138746     1.270516232704     0.065694219632    12.000000000000
         C           -0.279469138746    -0.294128767296     0.113155219632    12.000000000000
         C            2.166775861254    -0.512663767296    -0.146881780368    12.000000000000
         C            1.093026861254    -0.026171767296     0.502865219632    12.000000000000
         C            4.325197861254     0.534885232704    -0.879671780368    12.000000000000
         H           -3.285792138746    -0.526678767296     1.234298219632     1.007825032230
         H           -1.196281138746     0.826549232704     1.649488219632     1.007825032230
         H            3.613907861254     0.346630232704     1.155503219632     1.007825032230
         H            4.115001861254    -1.171649767296     0.419578219632     1.007825032230
         H           -2.980549138746     1.741827232704    -0.786823780368     1.007825032230
         H           -4.526956138746     1.096174232704    -0.185759780368     1.007825032230
         H           -3.442812138746     1.954698232704     0.918370219632     1.007825032230
         H           -0.455620538746    -0.925806467296    -0.754531080368     1.007825032230
         H            2.007097861254    -1.143548767296    -1.023745780368     1.007825032230
         H            1.247895861254     0.607134232704     1.378796219632     1.007825032230
         H            4.315039861254    -0.028613767296    -1.817081780368     1.007825032230
         H            5.368693861254     0.715615232704    -0.605985780368     1.007825032230
         H            3.845034861254     1.499550232704    -1.062681780368     1.007825032230
         H           -3.716822138746    -1.058668767296    -0.978543780368     1.007825032230

  Basis Set: AUG-CC-PVTZ
    Blend: AUG-CC-PVTZ
  Basis Set: (AUG-CC-PVTZ AUX)
    Blend: AUG-CC-PVTZ-JKFIT
	 Reference Energy          =    -386.0622058527773106 [Eh]
	 Singles Energy            =      -0.0000000000000000 [Eh]
	 Same-Spin Energy          =      -0.4004670223785924 [Eh]
	 Opposite-Spin Energy      =      -1.3784353870591652 [Eh]
	 Correlation Energy        =      -1.7789024094377577 [Eh]
	 Total Energy              =    -387.8411082622150730 [Eh]

	 ================> DF-SCS-MP2 Energies <==================
	-----------------------------------------------------------
	 SCS Same-Spin Scale       =       0.3333333333333333 [-]
	 SCS Opposite-Spin Scale   =       1.2000000000000000 [-]
	 SCS Same-Spin Energy      =      -0.1334890074595308 [Eh]
	 SCS Opposite-Spin Energy  =      -1.6541224644709982 [Eh]
	 SCS Correlation Energy    =      -1.7876114719305289 [Eh]
	 SCS Total Energy          =    -387.8498173247078284 [Eh]
	-----------------------------------------------------------

  Dipole Moment: [D]
     X:    -1.1659      Y:     0.6412      Z:     0.5725     Total:     1.4485

*** Psi4 exiting successfully. Buy a developer a beer!
