                               Psi4 1.3.2 release

  ==> Input File <==

--------------------------------------------------------------------------
#psi4
#
memory 32 gb

molecule  {
0 1
  O       -2.7848290    -0.9154220    -0.7447340
  C       -2.7449866    -0.0447224     0.3862864
  C       -1.3446020     0.1937550     0.7721520
  C        3.5873700    -0.2293000     0.2222030
  C       -3.4755630     1.2700040     0.0649850
  C       -0.2802220    -0.2946410     0.1124460
  C        2.1660230    -0.5131760    -0.1475910
  C        1.0922740    -0.0266840     0.5021560
  C        4.3244450     0.5343730    -0.8803810
  H       -3.2865450    -0.5271910     1.2335890
  H       -1.1970340     0.8260370     1.6487790
  H        3.6131550     0.3461180     1.1547940
  H        4.1142490    -1.1721620     0.4188690
  H       -2.9813020     1.7413150    -0.7875330
  H       -4.5277090     1.0956620    -0.1864690
  H       -3.4435650     1.9541860     0.9176610
  H       -0.4470010    -0.9272420    -0.7564190
  H        2.0063450    -1.1440610    -1.0244550
  H        1.2471430     0.6066220     1.3780870
  H        4.3142870    -0.0291260    -1.8177910
  H        5.3679410     0.7151030    -0.6066950
  H        3.8442820     1.4990380    -1.0633910
  H       -3.7126621    -1.0692246    -0.9920222
units angstrom
no_reorient  #important for SAPT in psi4, default
symmetry c1  #important for SAPT in psi4, default
}

set PROPERTIES_ORIGIN ["COM"]
properties('MP2/aug-cc-pvtz', properties = ['dipole'])
--------------------------------------------------------------------------

    Molecular point group: c1
  Charge       = 0
  Multiplicity = 1
  Basis Set: AUG-CC-PVTZ
    Blend: AUG-CC-PVTZ
  Basis Set: (AUG-CC-PVTZ AUX)
    Blend: AUG-CC-PVTZ-JKFIT

    Orbital Energies [Eh]
    ---------------------

    Doubly Occupied:

       1A    -20.557484     2A    -11.286926     3A    -11.226301
       4A    -11.223913     5A    -11.223463     6A    -11.223145
       7A    -11.221659     8A    -11.220574     9A    -11.213069
      10A     -1.359282    11A     -1.098977    12A     -1.063047
      13A     -1.015136    14A     -0.962259    15A     -0.878379
      16A     -0.828840    17A     -0.752438    18A     -0.749733
      19A     -0.693719    20A     -0.638761    21A     -0.627382
      22A     -0.615456    23A     -0.590659    24A     -0.583587
      25A     -0.545512    26A     -0.542151    27A     -0.528288
      28A     -0.519522    29A     -0.502166    30A     -0.491579
      31A     -0.479582    32A     -0.470053    33A     -0.451059
      34A     -0.417030    35A     -0.297313

  @DF-RHF Final Energy:  -386.06189889314970

   => Energetics <=

    Nuclear Repulsion Energy =            418.4722968491390702
    One-Electron Energy =               -1352.8715057299782529
    Two-Electron Energy =                 548.3373099876894230
    Total Energy =                       -386.0618988931497597
  Basis Set: (AUG-CC-PVTZ AUX)
    Blend: AUG-CC-PVTZ-RI
    Molecular point group: c1

    Geometry (in Angstrom), charge = 0, multiplicity = 1:

       Center              X                  Y                   Z               Mass
    ------------   -----------------  -----------------  -----------------  -----------------
         O           -2.787237922769    -0.915254808874    -0.744641571829    15.994914619570
         C           -2.747395522769    -0.044555208874     0.386378828171    12.000000000000
         C           -1.347010922769     0.193922191126     0.772244428171    12.000000000000
         C            3.584961077231    -0.229132808874     0.222295428171    12.000000000000
         C           -3.477971922769     1.270171191126     0.065077428171    12.000000000000
         C           -0.282630922769    -0.294473808874     0.112538428171    12.000000000000
         C            2.163614077231    -0.513008808874    -0.147498571829    12.000000000000
         C            1.089865077231    -0.026516808874     0.502248428171    12.000000000000
         C            4.322036077231     0.534540191126    -0.880288571829    12.000000000000
         H           -3.288953922769    -0.527023808874     1.233681428171     1.007825032230
         H           -1.199442922769     0.826204191126     1.648871428171     1.007825032230
         H            3.610746077231     0.346285191126     1.154886428171     1.007825032230
         H            4.111840077231    -1.171994808874     0.418961428171     1.007825032230
         H           -2.983710922769     1.741482191126    -0.787440571829     1.007825032230
         H           -4.530117922769     1.095829191126    -0.186376571829     1.007825032230
         H           -3.445973922769     1.954353191126     0.917753428171     1.007825032230
         H           -0.449409922769    -0.927074808874    -0.756326571829     1.007825032230
         H            2.003936077231    -1.143893808874    -1.024362571829     1.007825032230
         H            1.244734077231     0.606789191126     1.378179428171     1.007825032230
         H            4.311878077231    -0.028958808874    -1.817698571829     1.007825032230
         H            5.365532077231     0.715270191126    -0.606602571829     1.007825032230
         H            3.841873077231     1.499205191126    -1.063298571829     1.007825032230
         H           -3.715071022769    -1.069057408874    -0.991929771829     1.007825032230

  Basis Set: AUG-CC-PVTZ
    Blend: AUG-CC-PVTZ
  Basis Set: (AUG-CC-PVTZ AUX)
    Blend: AUG-CC-PVTZ-JKFIT
	 Reference Energy          =    -386.0618988931497029 [Eh]
	 Singles Energy            =      -0.0000000000000000 [Eh]
	 Same-Spin Energy          =      -0.4004404537348203 [Eh]
	 Opposite-Spin Energy      =      -1.3782626427851037 [Eh]
	 Correlation Energy        =      -1.7787030965199240 [Eh]
	 Total Energy              =    -387.8406019896696080 [Eh]

	 ================> DF-SCS-MP2 Energies <==================
	-----------------------------------------------------------
	 SCS Same-Spin Scale       =       0.3333333333333333 [-]
	 SCS Opposite-Spin Scale   =       1.2000000000000000 [-]
	 SCS Same-Spin Energy      =      -0.1334801512449401 [Eh]
	 SCS Opposite-Spin Energy  =      -1.6539151713421243 [Eh]
	 SCS Correlation Energy    =      -1.7873953225870645 [Eh]
	 SCS Total Energy          =    -387.8492942157367906 [Eh]
	-----------------------------------------------------------

  Dipole Moment: [D]
     X:    -1.1173      Y:     0.6230      Z:     0.5646     Total:     1.3983

*** Psi4 exiting successfully. Buy a developer a beer!
