                               Psi4 1.4a3.dev225

  ==> Input File <==

--------------------------------------------------------------------------
#psi4
#
memory 32 gb

molecule  {
0 1
  O       -2.7624640     1.3159430     0.2248240
  C       -2.8209640    -0.0168770    -0.2887760
  C       -1.4198970    -0.4865040    -0.5315690
  C        3.5469730    -0.0618850    -0.4287090
  C       -3.5485140    -0.9406360     0.6857820
  C       -0.3124200     0.2274490    -0.2577540
  C        2.1505970     0.4383770    -0.2221580
  C        1.0342680    -0.2689350    -0.4861660
  C        4.3265940    -0.1505530     0.8872490
  H       -3.3622360    -0.0200820    -1.2509840
  H       -1.3293920    -1.4912640    -0.9473420
  H        3.5136740    -1.0471260    -0.9088000
  H        4.0812660     0.6062640    -1.1173180
  H       -3.0279280    -0.9272120     1.6463760
  H       -4.5820380    -0.6089360     0.8383050
  H       -3.5770120    -1.9680220     0.3103630
  H       -0.4219900     1.2292040     0.1523950
  H        2.0485920     1.4434520     0.1930580
  H        1.1329394    -1.2939561    -0.9062606
  H        4.3778580     0.8269450     1.3761990
  H        5.3504770    -0.4972710     0.7173650
  H        3.8373540    -0.8453320     1.5752720
  H       -3.6799020     1.6047450     0.3678300
units angstrom
no_reorient  #important for SAPT in psi4, default
symmetry c1  #important for SAPT in psi4, default
}

set PROPERTIES_ORIGIN ["COM"]
properties('MP2/aug-cc-pvtz', properties = ['dipole'])
--------------------------------------------------------------------------

    Molecular point group: c1
  Charge       = 0
  Multiplicity = 1
  Basis Set: AUG-CC-PVTZ
    Blend: AUG-CC-PVTZ
  Basis Set: (AUG-CC-PVTZ AUX)
    Blend: AUG-CC-PVTZ-JKFIT

    Orbital Energies [Eh]
    ---------------------

    Doubly Occupied:

       1A    -20.558880     2A    -11.287093     3A    -11.227255
       4A    -11.225697     5A    -11.224259     6A    -11.223683
       7A    -11.222662     8A    -11.221010     9A    -11.213218
      10A     -1.360205    11A     -1.096797    12A     -1.060687
      13A     -1.015507    14A     -0.961989    15A     -0.876375
      16A     -0.828336    17A     -0.751423    18A     -0.746862
      19A     -0.694534    20A     -0.636675    21A     -0.627111
      22A     -0.616571    23A     -0.589443    24A     -0.582512
      25A     -0.546488    26A     -0.543233    27A     -0.526568
      28A     -0.518542    29A     -0.500648    30A     -0.492045
      31A     -0.479231    32A     -0.467639    33A     -0.452896
      34A     -0.418035    35A     -0.297441

  @DF-RHF Final Energy:  -386.06171637880590

   => Energetics <=

    Nuclear Repulsion Energy =            417.6579655680180281
    One-Electron Energy =               -1351.2562596719847079
    Two-Electron Energy =                 547.5365777251607824
    Total Energy =                       -386.0617163788059543
  Basis Set: (AUG-CC-PVTZ AUX)
    Blend: AUG-CC-PVTZ-RI
    Molecular point group: c1

    Geometry (in Angstrom), charge = 0, multiplicity = 1:

       Center              X                  Y                   Z               Mass
    ------------   -----------------  -----------------  -----------------  -----------------
         O           -2.728286468948     1.292774502311     0.241054189086    15.994914619570
         C           -2.786786468948    -0.040045497689    -0.272545810914    12.000000000000
         C           -1.385719468948    -0.509672497689    -0.515338810914    12.000000000000
         C            3.581150531052    -0.085053497689    -0.412478810914    12.000000000000
         C           -3.514336468948    -0.963804497689     0.702012189086    12.000000000000
         C           -0.278242468948     0.204280502311    -0.241523810914    12.000000000000
         C            2.184774531052     0.415208502311    -0.205927810914    12.000000000000
         C            1.068445531052    -0.292103497689    -0.469935810914    12.000000000000
         C            4.360771531052    -0.173721497689     0.903479189086    12.000000000000
         H           -3.328058468948    -0.043250497689    -1.234753810914     1.007825032230
         H           -1.295214468948    -1.514432497689    -0.931111810914     1.007825032230
         H            3.547851531052    -1.070294497689    -0.892569810914     1.007825032230
         H            4.115443531052     0.583095502311    -1.101087810914     1.007825032230
         H           -2.993750468948    -0.950380497689     1.662606189086     1.007825032230
         H           -4.547860468948    -0.632104497689     0.854535189086     1.007825032230
         H           -3.542834468948    -1.991190497689     0.326593189086     1.007825032230
         H           -0.387812468948     1.206035502311     0.168625189086     1.007825032230
         H            2.082769531052     1.420283502311     0.209288189086     1.007825032230
         H            1.167116931052    -1.317124597689    -0.890030410914     1.007825032230
         H            4.412035531052     0.803776502311     1.392429189086     1.007825032230
         H            5.384654531052    -0.520439497689     0.733595189086     1.007825032230
         H            3.871531531052    -0.868500497689     1.591502189086     1.007825032230
         H           -3.645724468948     1.581576502311     0.384060189086     1.007825032230

  Basis Set: AUG-CC-PVTZ
    Blend: AUG-CC-PVTZ
  Basis Set: (AUG-CC-PVTZ AUX)
    Blend: AUG-CC-PVTZ-JKFIT
	 Reference Energy          =    -386.0617163788058974 [Eh]
	 Singles Energy            =      -0.0000000000000000 [Eh]
	 Same-Spin Energy          =      -0.4003219217728798 [Eh]
	 Opposite-Spin Energy      =      -1.3785616887900303 [Eh]
	 Correlation Energy        =      -1.7788836105629100 [Eh]
	 Total Energy              =    -387.8405999893687977 [Eh]

	 ================> DF-SCS-MP2 Energies <==================
	-----------------------------------------------------------
	 SCS Same-Spin Scale       =       0.3333333333333333 [-]
	 SCS Opposite-Spin Scale   =       1.2000000000000000 [-]
	 SCS Same-Spin Energy      =      -0.1334406405909599 [Eh]
	 SCS Opposite-Spin Energy  =      -1.6542740265480362 [Eh]
	 SCS Correlation Energy    =      -1.7877146671389961 [Eh]
	 SCS Total Energy          =    -387.8494310459448684 [Eh]
	-----------------------------------------------------------

  Dipole Moment: [D]
     X:    -1.2051      Y:    -0.7858      Z:    -0.1395     Total:     1.4454

*** Psi4 exiting successfully. Buy a developer a beer!
