                               Psi4 1.3.2 release

  ==> Input File <==

--------------------------------------------------------------------------
#psi4
#
memory 32 gb

molecule  {
0 1
  O       -2.7848290    -0.9154220    -0.7447340
  C       -2.7698910    -0.0438090     0.3861860
  C       -1.3446020     0.1937550     0.7721520
  C        3.5873700    -0.2293000     0.2222030
  C       -3.4755630     1.2700040     0.0649850
  C       -0.2802220    -0.2946410     0.1124460
  C        2.1573312    -0.5489173    -0.0784534
  C        1.0922740    -0.0266840     0.5021560
  C        4.3899377     0.5335889    -0.8342311
  H       -3.2865450    -0.5271910     1.2335890
  H       -1.1970340     0.8260370     1.6487790
  H        3.6131550     0.3461180     1.1547940
  H        4.1142490    -1.1721620     0.4188690
  H       -2.9813020     1.7413150    -0.7875330
  H       -4.5277090     1.0956620    -0.1864690
  H       -3.4435650     1.9541860     0.9176610
  H       -0.4470010    -0.9272420    -0.7564190
  H        2.0063450    -1.1440610    -1.0244550
  H        1.2471430     0.6066220     1.3780870
  H        4.3142870    -0.0291260    -1.8177910
  H        5.3679410     0.7151030    -0.6066950
  H        3.8442820     1.4990380    -1.0633910
  H       -3.7175750    -1.0591810    -0.9792530
units angstrom
no_reorient  #important for SAPT in psi4, default
symmetry c1  #important for SAPT in psi4, default
}

set PROPERTIES_ORIGIN ["COM"]
properties('MP2/aug-cc-pvtz', properties = ['dipole'])
--------------------------------------------------------------------------

    Molecular point group: c1
  Charge       = 0
  Multiplicity = 1
  Basis Set: AUG-CC-PVTZ
    Blend: AUG-CC-PVTZ
  Basis Set: (AUG-CC-PVTZ AUX)
    Blend: AUG-CC-PVTZ-JKFIT

    Orbital Energies [Eh]
    ---------------------

    Doubly Occupied:

       1A    -20.559376     2A    -11.287376     3A    -11.226151
       4A    -11.224961     5A    -11.223299     6A    -11.223227
       7A    -11.221444     8A    -11.221367     9A    -11.215370
      10A     -1.361455    11A     -1.100512    12A     -1.061566
      13A     -1.017427    14A     -0.966701    15A     -0.878942
      16A     -0.831675    17A     -0.749881    18A     -0.745415
      19A     -0.695862    20A     -0.637492    21A     -0.626622
      22A     -0.617011    23A     -0.599664    24A     -0.580947
      25A     -0.547920    26A     -0.546738    27A     -0.529387
      28A     -0.520783    29A     -0.499304    30A     -0.489082
      31A     -0.470271    32A     -0.463208    33A     -0.453760
      34A     -0.420941    35A     -0.302452

  @DF-RHF Final Energy:  -386.05194499197898

   => Energetics <=

    Nuclear Repulsion Energy =            418.0540369981869162
    One-Electron Energy =               -1351.9767905653000071
    Two-Electron Energy =                 547.8708085751341059
    Total Energy =                       -386.0519449919789849
  Basis Set: (AUG-CC-PVTZ AUX)
    Blend: AUG-CC-PVTZ-RI
    Molecular point group: c1

    Geometry (in Angstrom), charge = 0, multiplicity = 1:

       Center              X                  Y                   Z               Mass
    ------------   -----------------  -----------------  -----------------  -----------------
         O           -2.790233904364    -0.911946267751    -0.755704735362    15.994914619570
         C           -2.775295904364    -0.040333267751     0.375215264638    12.000000000000
         C           -1.350006904364     0.197230732249     0.761181264638    12.000000000000
         C            3.581965095636    -0.225824267751     0.211232264638    12.000000000000
         C           -3.480967904364     1.273479732249     0.054014264638    12.000000000000
         C           -0.285626904364    -0.291165267751     0.101475264638    12.000000000000
         C            2.151926295636    -0.545441567751    -0.089424135362    12.000000000000
         C            1.086869095636    -0.023208267751     0.491185264638    12.000000000000
         C            4.384532795636     0.537064632249    -0.845201835362    12.000000000000
         H           -3.291949904364    -0.523715267751     1.222618264638     1.007825032230
         H           -1.202438904364     0.829512732249     1.637808264638     1.007825032230
         H            3.607750095636     0.349593732249     1.143823264638     1.007825032230
         H            4.108844095636    -1.168686267751     0.407898264638     1.007825032230
         H           -2.986706904364     1.744790732249    -0.798503735362     1.007825032230
         H           -4.533113904364     1.099137732249    -0.197439735362     1.007825032230
         H           -3.448969904364     1.957661732249     0.906690264638     1.007825032230
         H           -0.452405904364    -0.923766267751    -0.767389735362     1.007825032230
         H            2.000940095636    -1.140585267751    -1.035425735362     1.007825032230
         H            1.241738095636     0.610097732249     1.367116264638     1.007825032230
         H            4.308882095636    -0.025650267751    -1.828761735362     1.007825032230
         H            5.362536095636     0.718578732249    -0.617665735362     1.007825032230
         H            3.838877095636     1.502513732249    -1.074361735362     1.007825032230
         H           -3.722979904364    -1.055705267751    -0.990223735362     1.007825032230

  Basis Set: AUG-CC-PVTZ
    Blend: AUG-CC-PVTZ
  Basis Set: (AUG-CC-PVTZ AUX)
    Blend: AUG-CC-PVTZ-JKFIT
	 Reference Energy          =    -386.0519449919789849 [Eh]
	 Singles Energy            =      -0.0000000000000000 [Eh]
	 Same-Spin Energy          =      -0.4002847921314979 [Eh]
	 Opposite-Spin Energy      =      -1.3782920678781423 [Eh]
	 Correlation Energy        =      -1.7785768600096401 [Eh]
	 Total Energy              =    -387.8305218519886353 [Eh]

	 ================> DF-SCS-MP2 Energies <==================
	-----------------------------------------------------------
	 SCS Same-Spin Scale       =       0.3333333333333333 [-]
	 SCS Opposite-Spin Scale   =       1.2000000000000000 [-]
	 SCS Same-Spin Energy      =      -0.1334282640438326 [Eh]
	 SCS Opposite-Spin Energy  =      -1.6539504814537707 [Eh]
	 SCS Correlation Energy    =      -1.7873787454976033 [Eh]
	 SCS Total Energy          =    -387.8393237374766045 [Eh]
	-----------------------------------------------------------

  Dipole Moment: [D]
     X:    -1.2204      Y:     0.7266      Z:     0.5819     Total:     1.5349

*** Psi4 exiting successfully. Buy a developer a beer!
