                               Psi4 1.3.2 release

  ==> Input File <==

--------------------------------------------------------------------------
#psi4
#
memory 32 gb

molecule  {
0 1
  O       -2.7848290    -0.9154220    -0.7447340
  C       -2.7698910    -0.0438090     0.3861860
  C       -1.3414343     0.1680486     0.7753943
  C        3.5873700    -0.2293000     0.2222030
  C       -3.4979055     1.2564724     0.0598261
  C       -0.2802220    -0.2946410     0.1124460
  C        2.1660230    -0.5131760    -0.1475910
  C        1.0922740    -0.0266840     0.5021560
  C        4.3244450     0.5343730    -0.8803810
  H       -3.2865450    -0.5271910     1.2335890
  H       -1.1970340     0.8260370     1.6487790
  H        3.6131550     0.3461180     1.1547940
  H        4.1142490    -1.1721620     0.4188690
  H       -2.9813020     1.7413150    -0.7875330
  H       -4.5277090     1.0956620    -0.1864690
  H       -3.4435650     1.9541860     0.9176610
  H       -0.4470010    -0.9272420    -0.7564190
  H        2.0063450    -1.1440610    -1.0244550
  H        1.2471430     0.6066220     1.3780870
  H        4.3142870    -0.0291260    -1.8177910
  H        5.3679410     0.7151030    -0.6066950
  H        3.8442820     1.4990380    -1.0633910
  H       -3.7175750    -1.0591810    -0.9792530
units angstrom
no_reorient  #important for SAPT in psi4, default
symmetry c1  #important for SAPT in psi4, default
}

set PROPERTIES_ORIGIN ["COM"]
properties('MP2/aug-cc-pvtz', properties = ['dipole'])
--------------------------------------------------------------------------

    Molecular point group: c1
  Charge       = 0
  Multiplicity = 1
  Basis Set: AUG-CC-PVTZ
    Blend: AUG-CC-PVTZ
  Basis Set: (AUG-CC-PVTZ AUX)
    Blend: AUG-CC-PVTZ-JKFIT

    Orbital Energies [Eh]
    ---------------------

    Doubly Occupied:

       1A    -20.557834     2A    -11.286443     3A    -11.226261
       4A    -11.223580     5A    -11.223335     6A    -11.222963
       7A    -11.221091     8A    -11.220980     9A    -11.213019
      10A     -1.360474    11A     -1.098520    12A     -1.061359
      13A     -1.016120    14A     -0.963884    15A     -0.877395
      16A     -0.829558    17A     -0.752620    18A     -0.745753
      19A     -0.694760    20A     -0.637449    21A     -0.628919
      22A     -0.616536    23A     -0.591544    24A     -0.582785
      25A     -0.548412    26A     -0.540801    27A     -0.526504
      28A     -0.518729    29A     -0.499421    30A     -0.492637
      31A     -0.479432    32A     -0.468621    33A     -0.451736
      34A     -0.419123    35A     -0.299183

  @DF-RHF Final Energy:  -386.06174966368496

   => Energetics <=

    Nuclear Repulsion Energy =            418.2880333141729352
    One-Electron Energy =               -1352.5040035077965968
    Two-Electron Energy =                 548.1542205299386978
    Total Energy =                       -386.0617496636849637
  Basis Set: (AUG-CC-PVTZ AUX)
    Blend: AUG-CC-PVTZ-RI
    Molecular point group: c1

    Geometry (in Angstrom), charge = 0, multiplicity = 1:

       Center              X                  Y                   Z               Mass
    ------------   -----------------  -----------------  -----------------  -----------------
         O           -2.783004117540    -0.911688138905    -0.744551686981    15.994914619570
         C           -2.768066117540    -0.040075138905     0.386368313019    12.000000000000
         C           -1.339609417540     0.171782461095     0.775576613019    12.000000000000
         C            3.589194882460    -0.225566138905     0.222385313019    12.000000000000
         C           -3.496080617540     1.260206261095     0.060008413019    12.000000000000
         C           -0.278397117540    -0.290907138905     0.112628313019    12.000000000000
         C            2.167847882460    -0.509442138905    -0.147408686981    12.000000000000
         C            1.094098882460    -0.022950138905     0.502338313019    12.000000000000
         C            4.326269882460     0.538106861095    -0.880198686981    12.000000000000
         H           -3.284720117540    -0.523457138905     1.233771313019     1.007825032230
         H           -1.195209117540     0.829770861095     1.648961313019     1.007825032230
         H            3.614979882460     0.349851861095     1.154976313019     1.007825032230
         H            4.116073882460    -1.168428138905     0.419051313019     1.007825032230
         H           -2.979477117540     1.745048861095    -0.787350686981     1.007825032230
         H           -4.525884117540     1.099395861095    -0.186286686981     1.007825032230
         H           -3.441740117540     1.957919861095     0.917843313019     1.007825032230
         H           -0.445176117540    -0.923508138905    -0.756236686981     1.007825032230
         H            2.008169882460    -1.140327138905    -1.024272686981     1.007825032230
         H            1.248967882460     0.610355861095     1.378269313019     1.007825032230
         H            4.316111882460    -0.025392138905    -1.817608686981     1.007825032230
         H            5.369765882460     0.718836861095    -0.606512686981     1.007825032230
         H            3.846106882460     1.502771861095    -1.063208686981     1.007825032230
         H           -3.715750117540    -1.055447138905    -0.979070686981     1.007825032230

  Basis Set: AUG-CC-PVTZ
    Blend: AUG-CC-PVTZ
  Basis Set: (AUG-CC-PVTZ AUX)
    Blend: AUG-CC-PVTZ-JKFIT
	 Reference Energy          =    -386.0617496636849637 [Eh]
	 Singles Energy            =      -0.0000000000000000 [Eh]
	 Same-Spin Energy          =      -0.4002347602845550 [Eh]
	 Opposite-Spin Energy      =      -1.3780834282747230 [Eh]
	 Correlation Energy        =      -1.7783181885592780 [Eh]
	 Total Energy              =    -387.8400678522442604 [Eh]

	 ================> DF-SCS-MP2 Energies <==================
	-----------------------------------------------------------
	 SCS Same-Spin Scale       =       0.3333333333333333 [-]
	 SCS Opposite-Spin Scale   =       1.2000000000000000 [-]
	 SCS Same-Spin Energy      =      -0.1334115867615183 [Eh]
	 SCS Opposite-Spin Energy  =      -1.6537001139296674 [Eh]
	 SCS Correlation Energy    =      -1.7871117006911859 [Eh]
	 SCS Total Energy          =    -387.8488613643761482 [Eh]
	-----------------------------------------------------------

  Dipole Moment: [D]
     X:    -1.1550      Y:     0.6543      Z:     0.5512     Total:     1.4373

*** Psi4 exiting successfully. Buy a developer a beer!
