                               Psi4 1.3.2 release

  ==> Input File <==

--------------------------------------------------------------------------
#psi4
#
memory 32 gb

molecule  {
0 1
  O       -2.7848290    -0.9154220    -0.7447340
  C       -2.7698910    -0.0438090     0.3861860
  C       -1.3446020     0.1937550     0.7721520
  C        3.5873700    -0.2293000     0.2222030
  C       -3.4755630     1.2700040     0.0649850
  C       -0.2802220    -0.2946410     0.1124460
  C        2.1660230    -0.5131760    -0.1475910
  C        1.0125021     0.0094589     0.5504276
  C        4.3244450     0.5343730    -0.8803810
  H       -3.2865450    -0.5271910     1.2335890
  H       -1.1970340     0.8260370     1.6487790
  H        3.6131550     0.3461180     1.1547940
  H        4.1142490    -1.1721620     0.4188690
  H       -2.9813020     1.7413150    -0.7875330
  H       -4.5277090     1.0956620    -0.1864690
  H       -3.4435650     1.9541860     0.9176610
  H       -0.4470010    -0.9272420    -0.7564190
  H        2.0063450    -1.1440610    -1.0244550
  H        1.2471430     0.6066220     1.3780870
  H        4.3142870    -0.0291260    -1.8177910
  H        5.3679410     0.7151030    -0.6066950
  H        3.8442820     1.4990380    -1.0633910
  H       -3.7175750    -1.0591810    -0.9792530
units angstrom
no_reorient  #important for SAPT in psi4, default
symmetry c1  #important for SAPT in psi4, default
}

set PROPERTIES_ORIGIN ["COM"]
properties('MP2/aug-cc-pvtz', properties = ['dipole'])
--------------------------------------------------------------------------

    Molecular point group: c1
  Charge       = 0
  Multiplicity = 1
  Basis Set: AUG-CC-PVTZ
    Blend: AUG-CC-PVTZ
  Basis Set: (AUG-CC-PVTZ AUX)
    Blend: AUG-CC-PVTZ-JKFIT

    Orbital Energies [Eh]
    ---------------------

    Doubly Occupied:

       1A    -20.558865     2A    -11.285494     3A    -11.238853
       4A    -11.228919     5A    -11.224423     6A    -11.221496
       7A    -11.220280     8A    -11.219318     9A    -11.213235
      10A     -1.360830    11A     -1.097910    12A     -1.058938
      13A     -1.019002    14A     -0.952563    15A     -0.880033
      16A     -0.825123    17A     -0.758849    18A     -0.749413
      19A     -0.696802    20A     -0.637471    21A     -0.627717
      22A     -0.617204    23A     -0.590983    24A     -0.582211
      25A     -0.546544    26A     -0.544059    27A     -0.527648
      28A     -0.515320    29A     -0.504880    30A     -0.495136
      31A     -0.480227    32A     -0.469276    33A     -0.453227
      34A     -0.418914    35A     -0.278709

  @DF-RHF Final Energy:  -386.04350414794339

   => Energetics <=

    Nuclear Repulsion Energy =            418.0045094423816749
    One-Electron Energy =               -1351.8962826199965548
    Two-Electron Energy =                 547.8482690296714281
    Total Energy =                       -386.0435041479433949
  Basis Set: (AUG-CC-PVTZ AUX)
    Blend: AUG-CC-PVTZ-RI
    Molecular point group: c1

    Geometry (in Angstrom), charge = 0, multiplicity = 1:

       Center              X                  Y                   Z               Mass
    ------------   -----------------  -----------------  -----------------  -----------------
         O           -2.777237745988    -0.918861325037    -0.749327555938    15.994914619570
         C           -2.762299745988    -0.047248325037     0.381592444062    12.000000000000
         C           -1.337010745988     0.190315674963     0.767558444062    12.000000000000
         C            3.594961254012    -0.232739325037     0.217609444062    12.000000000000
         C           -3.467971745988     1.266564674963     0.060391444062    12.000000000000
         C           -0.272630745988    -0.298080325037     0.107852444062    12.000000000000
         C            2.173614254012    -0.516615325037    -0.152184555938    12.000000000000
         C            1.020093354012     0.006019574963     0.545834044062    12.000000000000
         C            4.332036254012     0.530933674963    -0.884974555938    12.000000000000
         H           -3.278953745988    -0.530630325037     1.228995444062     1.007825032230
         H           -1.189442745988     0.822597674963     1.644185444062     1.007825032230
         H            3.620746254012     0.342678674963     1.150200444062     1.007825032230
         H            4.121840254012    -1.175601325037     0.414275444062     1.007825032230
         H           -2.973710745988     1.737875674963    -0.792126555938     1.007825032230
         H           -4.520117745988     1.092222674963    -0.191062555938     1.007825032230
         H           -3.435973745988     1.950746674963     0.913067444062     1.007825032230
         H           -0.439409745988    -0.930681325037    -0.761012555938     1.007825032230
         H            2.013936254012    -1.147500325037    -1.029048555938     1.007825032230
         H            1.254734254012     0.603182674963     1.373493444062     1.007825032230
         H            4.321878254012    -0.032565325037    -1.822384555938     1.007825032230
         H            5.375532254012     0.711663674963    -0.611288555938     1.007825032230
         H            3.851873254012     1.495598674963    -1.067984555938     1.007825032230
         H           -3.709983745988    -1.062620325037    -0.983846555938     1.007825032230

  Basis Set: AUG-CC-PVTZ
    Blend: AUG-CC-PVTZ
  Basis Set: (AUG-CC-PVTZ AUX)
    Blend: AUG-CC-PVTZ-JKFIT
	 Reference Energy          =    -386.0435041479433949 [Eh]
	 Singles Energy            =      -0.0000000000000000 [Eh]
	 Same-Spin Energy          =      -0.4026299859533039 [Eh]
	 Opposite-Spin Energy      =      -1.3822849491737890 [Eh]
	 Correlation Energy        =      -1.7849149351270928 [Eh]
	 Total Energy              =    -387.8284190830705143 [Eh]

	 ================> DF-SCS-MP2 Energies <==================
	-----------------------------------------------------------
	 SCS Same-Spin Scale       =       0.3333333333333333 [-]
	 SCS Opposite-Spin Scale   =       1.2000000000000000 [-]
	 SCS Same-Spin Energy      =      -0.1342099953177679 [Eh]
	 SCS Opposite-Spin Energy  =      -1.6587419390085467 [Eh]
	 SCS Correlation Energy    =      -1.7929519343263147 [Eh]
	 SCS Total Energy          =    -387.8364560822697058 [Eh]
	-----------------------------------------------------------

  Dipole Moment: [D]
     X:    -1.1768      Y:     0.6574      Z:     0.6027     Total:     1.4766

*** Psi4 exiting successfully. Buy a developer a beer!
