                               Psi4 1.3.2 release

  ==> Input File <==

--------------------------------------------------------------------------
#psi4
#
memory 32 gb

molecule  {
0 1
  O       -2.7848290    -0.9154220    -0.7447340
  C       -2.7698910    -0.0438090     0.3861860
  C       -1.3446020     0.1937550     0.7721520
  C        3.5873700    -0.2293000     0.2222030
  C       -3.4755630     1.2700040     0.0649850
  C       -0.2802220    -0.2946410     0.1124460
  C        2.1660230    -0.5131760    -0.1475910
  C        1.0922740    -0.0266840     0.5021560
  C        4.3244450     0.5343730    -0.8803810
  H       -3.2865450    -0.5271910     1.2335890
  H       -1.1970340     0.8260370     1.6487790
  H        3.6131550     0.3461180     1.1547940
  H        4.1142490    -1.1721620     0.4188690
  H       -2.9813020     1.7413150    -0.7875330
  H       -4.5277090     1.0956620    -0.1864690
  H       -3.4435650     1.9541860     0.9176610
  H       -0.4470010    -0.9272420    -0.7564190
  H        2.0063450    -1.1440610    -1.0244550
  H        1.2471430     0.6066220     1.3780870
  H        4.3142870    -0.0291260    -1.8177910
  H        5.3679410     0.7151030    -0.6066950
  H        3.8442820     1.4990380    -1.0633910
  H       -3.5257430    -1.0296150    -0.9310210
units angstrom
no_reorient  #important for SAPT in psi4, default
symmetry c1  #important for SAPT in psi4, default
}

set PROPERTIES_ORIGIN ["COM"]
properties('MP2/aug-cc-pvtz', properties = ['dipole'])
--------------------------------------------------------------------------

    Molecular point group: c1
  Charge       = 0
  Multiplicity = 1
  Basis Set: AUG-CC-PVTZ
    Blend: AUG-CC-PVTZ
  Basis Set: (AUG-CC-PVTZ AUX)
    Blend: AUG-CC-PVTZ-JKFIT

    Orbital Energies [Eh]
    ---------------------

    Doubly Occupied:

       1A    -20.536768     2A    -11.288820     3A    -11.226486
       4A    -11.224303     5A    -11.223681     6A    -11.223487
       7A    -11.222456     8A    -11.222012     9A    -11.213204
      10A     -1.421195    11A     -1.100690    12A     -1.068028
      13A     -1.020171    14A     -0.963229    15A     -0.882452
      16A     -0.835027    17A     -0.767742    18A     -0.752866
      19A     -0.712572    20A     -0.641123    21A     -0.628609
      22A     -0.625709    23A     -0.592136    24A     -0.585272
      25A     -0.551759    26A     -0.544528    27A     -0.529638
      28A     -0.519639    29A     -0.501930    30A     -0.497245
      31A     -0.479804    32A     -0.469513    33A     -0.458785
      34A     -0.419220    35A     -0.298143

  @DF-RHF Final Energy:  -386.01641959492395

   => Energetics <=

    Nuclear Repulsion Energy =            419.7647372559099495
    One-Electron Energy =               -1355.0658267863227593
    Two-Electron Energy =                 549.2846699354888642
    Total Energy =                       -386.0164195949239456
  Basis Set: (AUG-CC-PVTZ AUX)
    Blend: AUG-CC-PVTZ-RI
    Molecular point group: c1

    Geometry (in Angstrom), charge = 0, multiplicity = 1:

       Center              X                  Y                   Z               Mass
    ------------   -----------------  -----------------  -----------------  -----------------
         O           -2.786361894692    -0.915658286628    -0.745119538539    15.994914619570
         C           -2.771423894692    -0.044045286628     0.385800461461    12.000000000000
         C           -1.346134894692     0.193518713372     0.771766461461    12.000000000000
         C            3.585837105308    -0.229536286628     0.221817461461    12.000000000000
         C           -3.477095894692     1.269767713372     0.064599461461    12.000000000000
         C           -0.281754894692    -0.294877286628     0.112060461461    12.000000000000
         C            2.164490105308    -0.513412286628    -0.147976538539    12.000000000000
         C            1.090741105308    -0.026920286628     0.501770461461    12.000000000000
         C            4.322912105308     0.534136713372    -0.880766538539    12.000000000000
         H           -3.288077894692    -0.527427286628     1.233203461461     1.007825032230
         H           -1.198566894692     0.825800713372     1.648393461461     1.007825032230
         H            3.611622105308     0.345881713372     1.154408461461     1.007825032230
         H            4.112716105308    -1.172398286628     0.418483461461     1.007825032230
         H           -2.982834894692     1.741078713372    -0.787918538539     1.007825032230
         H           -4.529241894692     1.095425713372    -0.186854538539     1.007825032230
         H           -3.445097894692     1.953949713372     0.917275461461     1.007825032230
         H           -0.448533894692    -0.927478286628    -0.756804538539     1.007825032230
         H            2.004812105308    -1.144297286628    -1.024840538539     1.007825032230
         H            1.245610105308     0.606385713372     1.377701461461     1.007825032230
         H            4.312754105308    -0.029362286628    -1.818176538539     1.007825032230
         H            5.366408105308     0.714866713372    -0.607080538539     1.007825032230
         H            3.842749105308     1.498801713372    -1.063776538539     1.007825032230
         H           -3.527275894692    -1.029851286628    -0.931406538539     1.007825032230

  Basis Set: AUG-CC-PVTZ
    Blend: AUG-CC-PVTZ
  Basis Set: (AUG-CC-PVTZ AUX)
    Blend: AUG-CC-PVTZ-JKFIT
	 Reference Energy          =    -386.0164195949239456 [Eh]
	 Singles Energy            =      -0.0000000000000000 [Eh]
	 Same-Spin Energy          =      -0.3979657279558296 [Eh]
	 Opposite-Spin Energy      =      -1.3726795811671026 [Eh]
	 Correlation Energy        =      -1.7706453091229322 [Eh]
	 Total Energy              =    -387.7870649040468720 [Eh]

	 ================> DF-SCS-MP2 Energies <==================
	-----------------------------------------------------------
	 SCS Same-Spin Scale       =       0.3333333333333333 [-]
	 SCS Opposite-Spin Scale   =       1.2000000000000000 [-]
	 SCS Same-Spin Energy      =      -0.1326552426519432 [Eh]
	 SCS Opposite-Spin Energy  =      -1.6472154974005231 [Eh]
	 SCS Correlation Energy    =      -1.7798707400524663 [Eh]
	 SCS Total Energy          =    -387.7962903349763906 [Eh]
	-----------------------------------------------------------

  Dipole Moment: [D]
     X:    -1.0214      Y:     0.7113      Z:     0.6534     Total:     1.4058

*** Psi4 exiting successfully. Buy a developer a beer!
