                               Psi4 1.3.2 release

  ==> Input File <==

--------------------------------------------------------------------------
#psi4
#
memory 32 gb

molecule  {
0 1
  O       -2.7848290    -0.9154220    -0.7447340
  C       -2.7698910    -0.0438090     0.3861860
  C       -1.3446020     0.1937550     0.7721520
  C        3.5873700    -0.2293000     0.2222030
  C       -3.4755630     1.2700040     0.0649850
  C       -0.2802220    -0.2946410     0.1124460
  C        2.1660230    -0.5131760    -0.1475910
  C        1.0922740    -0.0266840     0.5021560
  C        4.3244450     0.5343730    -0.8803810
  H       -3.2865450    -0.5271910     1.2335890
  H       -1.1970340     0.8260370     1.6487790
  H        3.6178597     0.4511090     1.3249550
  H        4.1142490    -1.1721620     0.4188690
  H       -2.9813020     1.7413150    -0.7875330
  H       -4.5277090     1.0956620    -0.1864690
  H       -3.4435650     1.9541860     0.9176610
  H       -0.4470010    -0.9272420    -0.7564190
  H        2.0063450    -1.1440610    -1.0244550
  H        1.2471430     0.6066220     1.3780870
  H        4.3142870    -0.0291260    -1.8177910
  H        5.3679410     0.7151030    -0.6066950
  H        3.8442820     1.4990380    -1.0633910
  H       -3.7175750    -1.0591810    -0.9792530
units angstrom
no_reorient  #important for SAPT in psi4, default
symmetry c1  #important for SAPT in psi4, default
}

set PROPERTIES_ORIGIN ["COM"]
properties('MP2/aug-cc-pvtz', properties = ['dipole'])
--------------------------------------------------------------------------

    Molecular point group: c1
  Charge       = 0
  Multiplicity = 1
  Basis Set: AUG-CC-PVTZ
    Blend: AUG-CC-PVTZ
  Basis Set: (AUG-CC-PVTZ AUX)
    Blend: AUG-CC-PVTZ-JKFIT

    Orbital Energies [Eh]
    ---------------------

    Doubly Occupied:

       1A    -20.559105     2A    -11.286892     3A    -11.246532
       4A    -11.227582     5A    -11.224372     6A    -11.223866
       7A    -11.222305     8A    -11.220970     9A    -11.215264
      10A     -1.361156    11A     -1.097289    12A     -1.059685
      13A     -1.015219    14A     -0.963131    15A     -0.876349
      16A     -0.824386    17A     -0.748552    18A     -0.745207
      19A     -0.695315    20A     -0.634141    21A     -0.627568
      22A     -0.615823    23A     -0.589508    24A     -0.579380
      25A     -0.546973    26A     -0.544264    27A     -0.527707
      28A     -0.521071    29A     -0.501609    30A     -0.492535
      31A     -0.469555    32A     -0.454090    33A     -0.453269
      34A     -0.418931    35A     -0.298348

  @DF-RHF Final Energy:  -386.04271828183408

   => Energetics <=

    Nuclear Repulsion Energy =            417.5059822974252484
    One-Electron Energy =               -1350.9215005497562743
    Two-Electron Energy =                 547.3727999704969989
    Total Energy =                       -386.0427182818340270
  Basis Set: (AUG-CC-PVTZ AUX)
    Blend: AUG-CC-PVTZ-RI
    Molecular point group: c1

    Geometry (in Angstrom), charge = 0, multiplicity = 1:

       Center              X                  Y                   Z               Mass
    ------------   -----------------  -----------------  -----------------  -----------------
         O           -2.784866376060    -0.916261082120    -0.746093993316    15.994914619570
         C           -2.769928376060    -0.044648082120     0.384826006684    12.000000000000
         C           -1.344639376060     0.192915917880     0.770792006684    12.000000000000
         C            3.587332623940    -0.230139082120     0.220843006684    12.000000000000
         C           -3.475600376060     1.269164917880     0.063625006684    12.000000000000
         C           -0.280259376060    -0.295480082120     0.111086006684    12.000000000000
         C            2.165985623940    -0.514015082120    -0.148950993316    12.000000000000
         C            1.092236623940    -0.027523082120     0.500796006684    12.000000000000
         C            4.324407623940     0.533533917880    -0.881740993316    12.000000000000
         H           -3.286582376060    -0.528030082120     1.232229006684     1.007825032230
         H           -1.197071376060     0.825197917880     1.647419006684     1.007825032230
         H            3.617822323940     0.450269917880     1.323595006684     1.007825032230
         H            4.114211623940    -1.173001082120     0.417509006684     1.007825032230
         H           -2.981339376060     1.740475917880    -0.788892993316     1.007825032230
         H           -4.527746376060     1.094822917880    -0.187828993316     1.007825032230
         H           -3.443602376060     1.953346917880     0.916301006684     1.007825032230
         H           -0.447038376060    -0.928081082120    -0.757778993316     1.007825032230
         H            2.006307623940    -1.144900082120    -1.025814993316     1.007825032230
         H            1.247105623940     0.605782917880     1.376727006684     1.007825032230
         H            4.314249623940    -0.029965082120    -1.819150993316     1.007825032230
         H            5.367903623940     0.714263917880    -0.608054993316     1.007825032230
         H            3.844244623940     1.498198917880    -1.064750993316     1.007825032230
         H           -3.717612376060    -1.060020082120    -0.980612993316     1.007825032230

  Basis Set: AUG-CC-PVTZ
    Blend: AUG-CC-PVTZ
  Basis Set: (AUG-CC-PVTZ AUX)
    Blend: AUG-CC-PVTZ-JKFIT
	 Reference Energy          =    -386.0427182818340839 [Eh]
	 Singles Energy            =      -0.0000000000000000 [Eh]
	 Same-Spin Energy          =      -0.4004887812799094 [Eh]
	 Opposite-Spin Energy      =      -1.3801042053776111 [Eh]
	 Correlation Energy        =      -1.7805929866575205 [Eh]
	 Total Energy              =    -387.8233112684915795 [Eh]

	 ================> DF-SCS-MP2 Energies <==================
	-----------------------------------------------------------
	 SCS Same-Spin Scale       =       0.3333333333333333 [-]
	 SCS Opposite-Spin Scale   =       1.2000000000000000 [-]
	 SCS Same-Spin Energy      =      -0.1334962604266365 [Eh]
	 SCS Opposite-Spin Energy  =      -1.6561250464531334 [Eh]
	 SCS Correlation Energy    =      -1.7896213068797699 [Eh]
	 SCS Total Energy          =    -387.8323395887138645 [Eh]
	-----------------------------------------------------------

  Dipole Moment: [D]
     X:    -1.2086      Y:     0.5835      Z:     0.4199     Total:     1.4063

*** Psi4 exiting successfully. Buy a developer a beer!
