                               Psi4 1.4a3.dev225

  ==> Input File <==

--------------------------------------------------------------------------
#psi4
#
memory 32 gb

molecule  {
0 1
  O       -2.7624640     1.3159430     0.2248240
  C       -2.8209640    -0.0168770    -0.2887760
  C       -1.4198970    -0.4865040    -0.5315690
  C        3.5469730    -0.0618850    -0.4287090
  C       -3.5485140    -0.9406360     0.6857820
  C       -0.3124200     0.2274490    -0.2577540
  C        2.1505970     0.4383770    -0.2221580
  C        1.0528006    -0.2757660    -0.4893093
  C        4.3265940    -0.1505530     0.8872490
  H       -3.3622360    -0.0200820    -1.2509840
  H       -1.3293920    -1.4912640    -0.9473420
  H        3.5136740    -1.0471260    -0.9088000
  H        4.0812660     0.6062640    -1.1173180
  H       -3.0279280    -0.9272120     1.6463760
  H       -4.5820380    -0.6089360     0.8383050
  H       -3.5770120    -1.9680220     0.3103630
  H       -0.4219900     1.2292040     0.1523950
  H        2.0485920     1.4434520     0.1930580
  H        1.1311650    -1.2755230    -0.8987060
  H        4.3778580     0.8269450     1.3761990
  H        5.3504770    -0.4972710     0.7173650
  H        3.8373540    -0.8453320     1.5752720
  H       -3.6799020     1.6047450     0.3678300
units angstrom
no_reorient  #important for SAPT in psi4, default
symmetry c1  #important for SAPT in psi4, default
}

set PROPERTIES_ORIGIN ["COM"]
properties('MP2/aug-cc-pvtz', properties = ['dipole'])
--------------------------------------------------------------------------

    Molecular point group: c1
  Charge       = 0
  Multiplicity = 1
  Basis Set: AUG-CC-PVTZ
    Blend: AUG-CC-PVTZ
  Basis Set: (AUG-CC-PVTZ AUX)
    Blend: AUG-CC-PVTZ-JKFIT

    Orbital Energies [Eh]
    ---------------------

    Doubly Occupied:

       1A    -20.558693     2A    -11.286913     3A    -11.225141
       4A    -11.224758     5A    -11.223180     6A    -11.222814
       7A    -11.222509     8A    -11.220849     9A    -11.213023
      10A     -1.360007    11A     -1.096631    12A     -1.060680
      13A     -1.014407    14A     -0.963131    15A     -0.875001
      16A     -0.828596    17A     -0.752778    18A     -0.747423
      19A     -0.694683    20A     -0.636834    21A     -0.626256
      22A     -0.616696    23A     -0.591114    24A     -0.581622
      25A     -0.546409    26A     -0.543371    27A     -0.528895
      28A     -0.518456    29A     -0.501196    30A     -0.492612
      31A     -0.479919    32A     -0.464913    33A     -0.452501
      34A     -0.416494    35A     -0.300167

  @DF-RHF Final Energy:  -386.06280094543644

   => Energetics <=

    Nuclear Repulsion Energy =            417.6622578049634171
    One-Electron Energy =               -1351.2727735165533431
    Two-Electron Energy =                 547.5477147661533763
    Total Energy =                       -386.0628009454364928
  Basis Set: (AUG-CC-PVTZ AUX)
    Blend: AUG-CC-PVTZ-RI
    Molecular point group: c1

    Geometry (in Angstrom), charge = 0, multiplicity = 1:

       Center              X                  Y                   Z               Mass
    ------------   -----------------  -----------------  -----------------  -----------------
         O           -2.730035835357     1.293277217741     0.241292926746    15.994914619570
         C           -2.788535835357    -0.039542782259    -0.272307073254    12.000000000000
         C           -1.387468835357    -0.509169782259    -0.515100073254    12.000000000000
         C            3.579401164643    -0.084550782259    -0.412240073254    12.000000000000
         C           -3.516085835357    -0.963301782259     0.702250926746    12.000000000000
         C           -0.279991835357     0.204783217741    -0.241285073254    12.000000000000
         C            2.183025164643     0.415711217741    -0.205689073254    12.000000000000
         C            1.085228764643    -0.298431782259    -0.472840373254    12.000000000000
         C            4.359022164643    -0.173218782259     0.903717926746    12.000000000000
         H           -3.329807835357    -0.042747782259    -1.234515073254     1.007825032230
         H           -1.296963835357    -1.513929782259    -0.930873073254     1.007825032230
         H            3.546102164643    -1.069791782259    -0.892331073254     1.007825032230
         H            4.113694164643     0.583598217741    -1.100849073254     1.007825032230
         H           -2.995499835357    -0.949877782259     1.662844926746     1.007825032230
         H           -4.549609835357    -0.631601782259     0.854773926746     1.007825032230
         H           -3.544583835357    -1.990687782259     0.326831926746     1.007825032230
         H           -0.389561835357     1.206538217741     0.168863926746     1.007825032230
         H            2.081020164643     1.420786217741     0.209526926746     1.007825032230
         H            1.163593164643    -1.298188782259    -0.882237073254     1.007825032230
         H            4.410286164643     0.804279217741     1.392667926746     1.007825032230
         H            5.382905164643    -0.519936782259     0.733833926746     1.007825032230
         H            3.869782164643    -0.867997782259     1.591740926746     1.007825032230
         H           -3.647473835357     1.582079217741     0.384298926746     1.007825032230

  Basis Set: AUG-CC-PVTZ
    Blend: AUG-CC-PVTZ
  Basis Set: (AUG-CC-PVTZ AUX)
    Blend: AUG-CC-PVTZ-JKFIT
	 Reference Energy          =    -386.0628009454364360 [Eh]
	 Singles Energy            =      -0.0000000000000000 [Eh]
	 Same-Spin Energy          =      -0.3998796611325695 [Eh]
	 Opposite-Spin Energy      =      -1.3778854231279885 [Eh]
	 Correlation Energy        =      -1.7777650842605579 [Eh]
	 Total Energy              =    -387.8405660296970154 [Eh]

	 ================> DF-SCS-MP2 Energies <==================
	-----------------------------------------------------------
	 SCS Same-Spin Scale       =       0.3333333333333333 [-]
	 SCS Opposite-Spin Scale   =       1.2000000000000000 [-]
	 SCS Same-Spin Energy      =      -0.1332932203775231 [Eh]
	 SCS Opposite-Spin Energy  =      -1.6534625077535861 [Eh]
	 SCS Correlation Energy    =      -1.7867557281311093 [Eh]
	 SCS Total Energy          =    -387.8495566735675197 [Eh]
	-----------------------------------------------------------

  Dipole Moment: [D]
     X:    -1.1915      Y:    -0.7949      Z:    -0.1463     Total:     1.4397

*** Psi4 exiting successfully. Buy a developer a beer!
