                               Psi4 1.3.2 release

  ==> Input File <==

--------------------------------------------------------------------------
#psi4
#
memory 32 gb

molecule  {
0 1
  O       -2.7848290    -0.9154220    -0.7447340
  C       -2.7698910    -0.0438090     0.3861860
  C       -1.3463487     0.2065816     0.7704867
  C        3.5873700    -0.2293000     0.2222030
  C       -3.4643107     1.2766200     0.0676012
  C       -0.2802220    -0.2946410     0.1124460
  C        2.1660230    -0.5131760    -0.1475910
  C        1.0922740    -0.0266840     0.5021560
  C        4.3244450     0.5343730    -0.8803810
  H       -3.2865450    -0.5271910     1.2335890
  H       -1.1970340     0.8260370     1.6487790
  H        3.6131550     0.3461180     1.1547940
  H        4.1142490    -1.1721620     0.4188690
  H       -2.9813020     1.7413150    -0.7875330
  H       -4.5277090     1.0956620    -0.1864690
  H       -3.4435650     1.9541860     0.9176610
  H       -0.4470010    -0.9272420    -0.7564190
  H        2.0063450    -1.1440610    -1.0244550
  H        1.2471430     0.6066220     1.3780870
  H        4.3142870    -0.0291260    -1.8177910
  H        5.3679410     0.7151030    -0.6066950
  H        3.8442820     1.4990380    -1.0633910
  H       -3.7175750    -1.0591810    -0.9792530
units angstrom
no_reorient  #important for SAPT in psi4, default
symmetry c1  #important for SAPT in psi4, default
}

set PROPERTIES_ORIGIN ["COM"]
properties('MP2/aug-cc-pvtz', properties = ['dipole'])
--------------------------------------------------------------------------

    Molecular point group: c1
  Charge       = 0
  Multiplicity = 1
  Basis Set: AUG-CC-PVTZ
    Blend: AUG-CC-PVTZ
  Basis Set: (AUG-CC-PVTZ AUX)
    Blend: AUG-CC-PVTZ-JKFIT

    Orbital Energies [Eh]
    ---------------------

    Doubly Occupied:

       1A    -20.559186     2A    -11.286520     3A    -11.225800
       4A    -11.223996     5A    -11.223204     6A    -11.222958
       7A    -11.222131     8A    -11.220501     9A    -11.212821
      10A     -1.360932    11A     -1.097500    12A     -1.061350
      13A     -1.016151    14A     -0.961776    15A     -0.876359
      16A     -0.828215    17A     -0.752533    18A     -0.749048
      19A     -0.695447    20A     -0.637302    21A     -0.626797
      22A     -0.617952    23A     -0.589972    24A     -0.582856
      25A     -0.546857    26A     -0.543859    27A     -0.527570
      28A     -0.519021    29A     -0.501367    30A     -0.492008
      31A     -0.478966    32A     -0.467422    33A     -0.453438
      34A     -0.417774    35A     -0.296614

  @DF-RHF Final Energy:  -386.06202722503821

   => Energetics <=

    Nuclear Repulsion Energy =            418.2615051368251784
    One-Electron Energy =               -1352.4546607109871275
    Two-Electron Energy =                 548.1311283491236281
    Total Energy =                       -386.0620272250382641
  Basis Set: (AUG-CC-PVTZ AUX)
    Blend: AUG-CC-PVTZ-RI
    Molecular point group: c1

    Geometry (in Angstrom), charge = 0, multiplicity = 1:

       Center              X                  Y                   Z               Mass
    ------------   -----------------  -----------------  -----------------  -----------------
         O           -2.785733321457    -0.917272137851    -0.744824555987    15.994914619570
         C           -2.770795321457    -0.045659137851     0.386095444013    12.000000000000
         C           -1.347253021457     0.204731462149     0.770396144013    12.000000000000
         C            3.586465678543    -0.231150137851     0.222112444013    12.000000000000
         C           -3.465215021457     1.274769862149     0.067510644013    12.000000000000
         C           -0.281126321457    -0.296491137851     0.112355444013    12.000000000000
         C            2.165118678543    -0.515026137851    -0.147681555987    12.000000000000
         C            1.091369678543    -0.028534137851     0.502065444013    12.000000000000
         C            4.323540678543     0.532522862149    -0.880471555987    12.000000000000
         H           -3.287449321457    -0.529041137851     1.233498444013     1.007825032230
         H           -1.197938321457     0.824186862149     1.648688444013     1.007825032230
         H            3.612250678543     0.344267862149     1.154703444013     1.007825032230
         H            4.113344678543    -1.174012137851     0.418778444013     1.007825032230
         H           -2.982206321457     1.739464862149    -0.787623555987     1.007825032230
         H           -4.528613321457     1.093811862149    -0.186559555987     1.007825032230
         H           -3.444469321457     1.952335862149     0.917570444013     1.007825032230
         H           -0.447905321457    -0.929092137851    -0.756509555987     1.007825032230
         H            2.005440678543    -1.145911137851    -1.024545555987     1.007825032230
         H            1.246238678543     0.604771862149     1.377996444013     1.007825032230
         H            4.313382678543    -0.030976137851    -1.817881555987     1.007825032230
         H            5.367036678543     0.713252862149    -0.606785555987     1.007825032230
         H            3.843377678543     1.497187862149    -1.063481555987     1.007825032230
         H           -3.718479321457    -1.061031137851    -0.979343555987     1.007825032230

  Basis Set: AUG-CC-PVTZ
    Blend: AUG-CC-PVTZ
  Basis Set: (AUG-CC-PVTZ AUX)
    Blend: AUG-CC-PVTZ-JKFIT
	 Reference Energy          =    -386.0620272250382072 [Eh]
	 Singles Energy            =      -0.0000000000000000 [Eh]
	 Same-Spin Energy          =      -0.4004347829858579 [Eh]
	 Opposite-Spin Energy      =      -1.3784854507126847 [Eh]
	 Correlation Energy        =      -1.7789202336985426 [Eh]
	 Total Energy              =    -387.8409474587367640 [Eh]

	 ================> DF-SCS-MP2 Energies <==================
	-----------------------------------------------------------
	 SCS Same-Spin Scale       =       0.3333333333333333 [-]
	 SCS Opposite-Spin Scale   =       1.2000000000000000 [-]
	 SCS Same-Spin Energy      =      -0.1334782609952860 [Eh]
	 SCS Opposite-Spin Energy  =      -1.6541825408552215 [Eh]
	 SCS Correlation Energy    =      -1.7876608018505076 [Eh]
	 SCS Total Energy          =    -387.8496880268887139 [Eh]
	-----------------------------------------------------------

  Dipole Moment: [D]
     X:    -1.1591      Y:     0.6347      Z:     0.5901     Total:     1.4473

*** Psi4 exiting successfully. Buy a developer a beer!
