                               Psi4 1.3.2 release

  ==> Input File <==

--------------------------------------------------------------------------
#psi4
#
memory 32 gb

molecule  {
0 1
  O       -2.7598741    -0.8808817    -0.7705859
  C       -2.7698910    -0.0438090     0.3861860
  C       -1.3446020     0.1937550     0.7721520
  C        3.5873700    -0.2293000     0.2222030
  C       -3.4755630     1.2700040     0.0649850
  C       -0.2802220    -0.2946410     0.1124460
  C        2.1660230    -0.5131760    -0.1475910
  C        1.0922740    -0.0266840     0.5021560
  C        4.3244450     0.5343730    -0.8803810
  H       -3.2793746    -0.4959158     1.2549249
  H       -1.1970340     0.8260370     1.6487790
  H        3.6131550     0.3461180     1.1547940
  H        4.1142490    -1.1721620     0.4188690
  H       -2.9813020     1.7413150    -0.7875330
  H       -4.5277090     1.0956620    -0.1864690
  H       -3.4435650     1.9541860     0.9176610
  H       -0.4470010    -0.9272420    -0.7564190
  H        2.0063450    -1.1440610    -1.0244550
  H        1.2471430     0.6066220     1.3780870
  H        4.3142870    -0.0291260    -1.8177910
  H        5.3679410     0.7151030    -0.6066950
  H        3.8442820     1.4990380    -1.0633910
  H       -3.7175750    -1.0591810    -0.9792530
units angstrom
no_reorient  #important for SAPT in psi4, default
symmetry c1  #important for SAPT in psi4, default
}

set PROPERTIES_ORIGIN ["COM"]
properties('MP2/aug-cc-pvtz', properties = ['dipole'])
--------------------------------------------------------------------------

    Molecular point group: c1
  Charge       = 0
  Multiplicity = 1
  Basis Set: AUG-CC-PVTZ
    Blend: AUG-CC-PVTZ
  Basis Set: (AUG-CC-PVTZ AUX)
    Blend: AUG-CC-PVTZ-JKFIT

    Orbital Energies [Eh]
    ---------------------

    Doubly Occupied:

       1A    -20.563112     2A    -11.286504     3A    -11.225489
       4A    -11.223117     5A    -11.222890     6A    -11.222471
       7A    -11.221034     8A    -11.219554     9A    -11.212629
      10A     -1.358044    11A     -1.097220    12A     -1.060516
      13A     -1.015677    14A     -0.962146    15A     -0.875925
      16A     -0.827660    17A     -0.751942    18A     -0.745500
      19A     -0.695767    20A     -0.637401    21A     -0.626999
      22A     -0.614513    23A     -0.589546    24A     -0.581542
      25A     -0.546409    26A     -0.543010    27A     -0.527396
      28A     -0.518550    29A     -0.500163    30A     -0.492880
      31A     -0.478843    32A     -0.467296    33A     -0.453328
      34A     -0.417938    35A     -0.296950

  @DF-RHF Final Energy:  -386.05923293184821

   => Energetics <=

    Nuclear Repulsion Energy =            418.5074673752965850
    One-Electron Energy =               -1352.9734820281782959
    Two-Electron Energy =                 548.4067817210335534
    Total Energy =                       -386.0592329318482143
  Basis Set: (AUG-CC-PVTZ AUX)
    Blend: AUG-CC-PVTZ-RI
    Molecular point group: c1

    Geometry (in Angstrom), charge = 0, multiplicity = 1:

       Center              X                  Y                   Z               Mass
    ------------   -----------------  -----------------  -----------------  -----------------
         O           -2.763096426639    -0.885512690049    -0.767477466332    15.994914619570
         C           -2.773113326639    -0.048439990049     0.389294433668    12.000000000000
         C           -1.347824326639     0.189124009951     0.775260433668    12.000000000000
         C            3.584147673361    -0.233930990049     0.225311433668    12.000000000000
         C           -3.478785326639     1.265373009951     0.068093433668    12.000000000000
         C           -0.283444326639    -0.299271990049     0.115554433668    12.000000000000
         C            2.162800673361    -0.517806990049    -0.144482566332    12.000000000000
         C            1.089051673361    -0.031314990049     0.505264433668    12.000000000000
         C            4.321222673361     0.529742009951    -0.877272566332    12.000000000000
         H           -3.282596926639    -0.500546790049     1.258033333668     1.007825032230
         H           -1.200256326639     0.821406009951     1.651887433668     1.007825032230
         H            3.609932673361     0.341487009951     1.157902433668     1.007825032230
         H            4.111026673361    -1.176792990049     0.421977433668     1.007825032230
         H           -2.984524326639     1.736684009951    -0.784424566332     1.007825032230
         H           -4.530931326639     1.091031009951    -0.183360566332     1.007825032230
         H           -3.446787326639     1.949555009951     0.920769433668     1.007825032230
         H           -0.450223326639    -0.931872990049    -0.753310566332     1.007825032230
         H            2.003122673361    -1.148691990049    -1.021346566332     1.007825032230
         H            1.243920673361     0.601991009951     1.381195433668     1.007825032230
         H            4.311064673361    -0.033756990049    -1.814682566332     1.007825032230
         H            5.364718673361     0.710472009951    -0.603586566332     1.007825032230
         H            3.841059673361     1.494407009951    -1.060282566332     1.007825032230
         H           -3.720797326639    -1.063811990049    -0.976144566332     1.007825032230

  Basis Set: AUG-CC-PVTZ
    Blend: AUG-CC-PVTZ
  Basis Set: (AUG-CC-PVTZ AUX)
    Blend: AUG-CC-PVTZ-JKFIT
	 Reference Energy          =    -386.0592329318482143 [Eh]
	 Singles Energy            =      -0.0000000000000000 [Eh]
	 Same-Spin Energy          =      -0.4008694025880442 [Eh]
	 Opposite-Spin Energy      =      -1.3794181326033053 [Eh]
	 Correlation Energy        =      -1.7802875351913494 [Eh]
	 Total Energy              =    -387.8395204670395628 [Eh]

	 ================> DF-SCS-MP2 Energies <==================
	-----------------------------------------------------------
	 SCS Same-Spin Scale       =       0.3333333333333333 [-]
	 SCS Opposite-Spin Scale   =       1.2000000000000000 [-]
	 SCS Same-Spin Energy      =      -0.1336231341960147 [Eh]
	 SCS Opposite-Spin Energy  =      -1.6553017591239663 [Eh]
	 SCS Correlation Energy    =      -1.7889248933199811 [Eh]
	 SCS Total Energy          =    -387.8481578251681867 [Eh]
	-----------------------------------------------------------

  Dipole Moment: [D]
     X:    -1.2140      Y:     0.5464      Z:     0.6174     Total:     1.4675

*** Psi4 exiting successfully. Buy a developer a beer!
