                               Psi4 1.3.2 release

  ==> Input File <==

--------------------------------------------------------------------------
#psi4
#
memory 32 gb

molecule  {
0 1
  O       -2.7848290    -0.9154220    -0.7447340
  C       -2.7698910    -0.0438090     0.3861860
  C       -1.3446020     0.1937550     0.7721520
  C        3.5873700    -0.2293000     0.2222030
  C       -3.4928101     1.2652940     0.0847145
  C       -0.2802220    -0.2946410     0.1124460
  C        2.1660230    -0.5131760    -0.1475910
  C        1.0922740    -0.0266840     0.5021560
  C        4.3244450     0.5343730    -0.8803810
  H       -3.2989499    -0.5124615     1.2342089
  H       -1.1970340     0.8260370     1.6487790
  H        3.6131550     0.3461180     1.1547940
  H        4.1142490    -1.1721620     0.4188690
  H       -2.9813020     1.7413150    -0.7875330
  H       -4.5277090     1.0956620    -0.1864690
  H       -3.4435650     1.9541860     0.9176610
  H       -0.4470010    -0.9272420    -0.7564190
  H        2.0063450    -1.1440610    -1.0244550
  H        1.2471430     0.6066220     1.3780870
  H        4.3142870    -0.0291260    -1.8177910
  H        5.3679410     0.7151030    -0.6066950
  H        3.8442820     1.4990380    -1.0633910
  H       -3.7175750    -1.0591810    -0.9792530
units angstrom
no_reorient  #important for SAPT in psi4, default
symmetry c1  #important for SAPT in psi4, default
}

set PROPERTIES_ORIGIN ["COM"]
properties('MP2/aug-cc-pvtz', properties = ['dipole'])
--------------------------------------------------------------------------

    Molecular point group: c1
  Charge       = 0
  Multiplicity = 1
  Basis Set: AUG-CC-PVTZ
    Blend: AUG-CC-PVTZ
  Basis Set: (AUG-CC-PVTZ AUX)
    Blend: AUG-CC-PVTZ-JKFIT

    Orbital Energies [Eh]
    ---------------------

    Doubly Occupied:

       1A    -20.559485     2A    -11.286601     3A    -11.226072
       4A    -11.223902     5A    -11.223351     6A    -11.223142
       7A    -11.222050     8A    -11.220389     9A    -11.212926
      10A     -1.361025    11A     -1.097916    12A     -1.061367
      13A     -1.016436    14A     -0.962803    15A     -0.876577
      16A     -0.828471    17A     -0.752530    18A     -0.748200
      19A     -0.695272    20A     -0.638057    21A     -0.627683
      22A     -0.617881    23A     -0.591550    24A     -0.583051
      25A     -0.548172    26A     -0.538157    27A     -0.528498
      28A     -0.518819    29A     -0.500961    30A     -0.493206
      31A     -0.479308    32A     -0.468700    33A     -0.451758
      34A     -0.417989    35A     -0.297573

  @DF-RHF Final Energy:  -386.06165541150966

   => Energetics <=

    Nuclear Repulsion Energy =            418.1537457692245994
    One-Electron Energy =               -1352.2310511401603890
    Two-Electron Energy =                 548.0156499594262414
    Total Energy =                       -386.0616554115096051
  Basis Set: (AUG-CC-PVTZ AUX)
    Blend: AUG-CC-PVTZ-RI
    Molecular point group: c1

    Geometry (in Angstrom), charge = 0, multiplicity = 1:

       Center              X                  Y                   Z               Mass
    ------------   -----------------  -----------------  -----------------  -----------------
         O           -2.783088416151    -0.915091513707    -0.746616466770    15.994914619570
         C           -2.768150416151    -0.043478513707     0.384303533230    12.000000000000
         C           -1.342861416151     0.194085486293     0.770269533230    12.000000000000
         C            3.589110583849    -0.228969513707     0.220320533230    12.000000000000
         C           -3.491069516151     1.265624486293     0.082832033230    12.000000000000
         C           -0.278481416151    -0.294310513707     0.110563533230    12.000000000000
         C            2.167763583849    -0.512845513707    -0.149473466770    12.000000000000
         C            1.094014583849    -0.026353513707     0.500273533230    12.000000000000
         C            4.326185583849     0.534703486293    -0.882263466770    12.000000000000
         H           -3.297209316151    -0.512131013707     1.232326433230     1.007825032230
         H           -1.195293416151     0.826367486293     1.646896533230     1.007825032230
         H            3.614895583849     0.346448486293     1.152911533230     1.007825032230
         H            4.115989583849    -1.171831513707     0.416986533230     1.007825032230
         H           -2.979561416151     1.741645486293    -0.789415466770     1.007825032230
         H           -4.525968416151     1.095992486293    -0.188351466770     1.007825032230
         H           -3.441824416151     1.954516486293     0.915778533230     1.007825032230
         H           -0.445260416151    -0.926911513707    -0.758301466770     1.007825032230
         H            2.008085583849    -1.143730513707    -1.026337466770     1.007825032230
         H            1.248883583849     0.606952486293     1.376204533230     1.007825032230
         H            4.316027583849    -0.028795513707    -1.819673466770     1.007825032230
         H            5.369681583849     0.715433486293    -0.608577466770     1.007825032230
         H            3.846022583849     1.499368486293    -1.065273466770     1.007825032230
         H           -3.715834416151    -1.058850513707    -0.981135466770     1.007825032230

  Basis Set: AUG-CC-PVTZ
    Blend: AUG-CC-PVTZ
  Basis Set: (AUG-CC-PVTZ AUX)
    Blend: AUG-CC-PVTZ-JKFIT
	 Reference Energy          =    -386.0616554115096619 [Eh]
	 Singles Energy            =      -0.0000000000000000 [Eh]
	 Same-Spin Energy          =      -0.4003815499265152 [Eh]
	 Opposite-Spin Energy      =      -1.3783595914818820 [Eh]
	 Correlation Energy        =      -1.7787411414083971 [Eh]
	 Total Energy              =    -387.8403965529180368 [Eh]

	 ================> DF-SCS-MP2 Energies <==================
	-----------------------------------------------------------
	 SCS Same-Spin Scale       =       0.3333333333333333 [-]
	 SCS Opposite-Spin Scale   =       1.2000000000000000 [-]
	 SCS Same-Spin Energy      =      -0.1334605166421717 [Eh]
	 SCS Opposite-Spin Energy  =      -1.6540315097782583 [Eh]
	 SCS Correlation Energy    =      -1.7874920264204301 [Eh]
	 SCS Total Energy          =    -387.8491474379300712 [Eh]
	-----------------------------------------------------------

  Dipole Moment: [D]
     X:    -1.1610      Y:     0.6354      Z:     0.5798     Total:     1.4449

*** Psi4 exiting successfully. Buy a developer a beer!
