                               Psi4 1.4a3.dev225

  ==> Input File <==

--------------------------------------------------------------------------
#psi4
#
memory 32 gb

molecule  {
0 1
  O       -2.7624640     1.3159430     0.2248240
  C       -2.8209640    -0.0168770    -0.2887760
  C       -1.3731166    -0.5021844    -0.5396756
  C        3.5469730    -0.0618850    -0.4287090
  C       -3.5485140    -0.9406360     0.6857820
  C       -0.3124200     0.2274490    -0.2577540
  C        2.1505970     0.4383770    -0.2221580
  C        1.0342680    -0.2689350    -0.4861660
  C        4.3265940    -0.1505530     0.8872490
  H       -3.3622360    -0.0200820    -1.2509840
  H       -1.3293920    -1.4912640    -0.9473420
  H        3.5136740    -1.0471260    -0.9088000
  H        4.0812660     0.6062640    -1.1173180
  H       -3.0279280    -0.9272120     1.6463760
  H       -4.5820380    -0.6089360     0.8383050
  H       -3.5770120    -1.9680220     0.3103630
  H       -0.4219900     1.2292040     0.1523950
  H        2.0485920     1.4434520     0.1930580
  H        1.1311650    -1.2755230    -0.8987060
  H        4.3778580     0.8269450     1.3761990
  H        5.3504770    -0.4972710     0.7173650
  H        3.8373540    -0.8453320     1.5752720
  H       -3.6799020     1.6047450     0.3678300
units angstrom
no_reorient  #important for SAPT in psi4, default
symmetry c1  #important for SAPT in psi4, default
}

set PROPERTIES_ORIGIN ["COM"]
properties('MP2/aug-cc-pvtz', properties = ['dipole'])
--------------------------------------------------------------------------

    Molecular point group: c1
  Charge       = 0
  Multiplicity = 1
  Basis Set: AUG-CC-PVTZ
    Blend: AUG-CC-PVTZ
  Basis Set: (AUG-CC-PVTZ AUX)
    Blend: AUG-CC-PVTZ-JKFIT

    Orbital Energies [Eh]
    ---------------------

    Doubly Occupied:

       1A    -20.558554     2A    -11.288544     3A    -11.225433
       4A    -11.223210     5A    -11.222688     6A    -11.221120
       7A    -11.220443     8A    -11.219025     9A    -11.212885
      10A     -1.358917    11A     -1.098665    12A     -1.058988
      13A     -1.014051    14A     -0.963577    15A     -0.872301
      16A     -0.827248    17A     -0.752199    18A     -0.750836
      19A     -0.692645    20A     -0.636626    21A     -0.628277
      22A     -0.615287    23A     -0.589142    24A     -0.584460
      25A     -0.549207    26A     -0.543732    27A     -0.525625
      28A     -0.518529    29A     -0.503442    30A     -0.490405
      31A     -0.478365    32A     -0.459980    33A     -0.451453
      34A     -0.421419    35A     -0.301107

  @DF-RHF Final Energy:  -386.06133402463962

   => Energetics <=

    Nuclear Repulsion Energy =            417.6167855436290210
    One-Electron Energy =               -1351.1994686144246316
    Two-Electron Energy =                 547.5213490461559331
    Total Energy =                       -386.0613340246396774
  Basis Set: (AUG-CC-PVTZ AUX)
    Blend: AUG-CC-PVTZ-RI
    Molecular point group: c1

    Geometry (in Angstrom), charge = 0, multiplicity = 1:

       Center              X                  Y                   Z               Mass
    ------------   -----------------  -----------------  -----------------  -----------------
         O           -2.732723873404     1.294119319565     0.241765230403    15.994914619570
         C           -2.791223873404    -0.038700680435    -0.271834769597    12.000000000000
         C           -1.343376473404    -0.524008080435    -0.522734369597    12.000000000000
         C            3.576713126596    -0.083708680435    -0.411767769597    12.000000000000
         C           -3.518773873404    -0.962459680435     0.702723230403    12.000000000000
         C           -0.282679873404     0.205625319565    -0.240812769597    12.000000000000
         C            2.180337126596     0.416553319565    -0.205216769597    12.000000000000
         C            1.064008126596    -0.290758680435    -0.469224769597    12.000000000000
         C            4.356334126596    -0.172376680435     0.904190230403    12.000000000000
         H           -3.332495873404    -0.041905680435    -1.234042769597     1.007825032230
         H           -1.299651873404    -1.513087680435    -0.930400769597     1.007825032230
         H            3.543414126596    -1.068949680435    -0.891858769597     1.007825032230
         H            4.111006126596     0.584440319565    -1.100376769597     1.007825032230
         H           -2.998187873404    -0.949035680435     1.663317230403     1.007825032230
         H           -4.552297873404    -0.630759680435     0.855246230403     1.007825032230
         H           -3.547271873404    -1.989845680435     0.327304230403     1.007825032230
         H           -0.392249873404     1.207380319565     0.169336230403     1.007825032230
         H            2.078332126596     1.421628319565     0.209999230403     1.007825032230
         H            1.160905126596    -1.297346680435    -0.881764769597     1.007825032230
         H            4.407598126596     0.805121319565     1.393140230403     1.007825032230
         H            5.380217126596    -0.519094680435     0.734306230403     1.007825032230
         H            3.867094126596    -0.867155680435     1.592213230403     1.007825032230
         H           -3.650161873404     1.582921319565     0.384771230403     1.007825032230

  Basis Set: AUG-CC-PVTZ
    Blend: AUG-CC-PVTZ
  Basis Set: (AUG-CC-PVTZ AUX)
    Blend: AUG-CC-PVTZ-JKFIT
	 Reference Energy          =    -386.0613340246396206 [Eh]
	 Singles Energy            =      -0.0000000000000000 [Eh]
	 Same-Spin Energy          =      -0.3995966640671024 [Eh]
	 Opposite-Spin Energy      =      -1.3774467480928378 [Eh]
	 Correlation Energy        =      -1.7770434121599403 [Eh]
	 Total Energy              =    -387.8383774367995329 [Eh]

	 ================> DF-SCS-MP2 Energies <==================
	-----------------------------------------------------------
	 SCS Same-Spin Scale       =       0.3333333333333333 [-]
	 SCS Opposite-Spin Scale   =       1.2000000000000000 [-]
	 SCS Same-Spin Energy      =      -0.1331988880223675 [Eh]
	 SCS Opposite-Spin Energy  =      -1.6529360977114054 [Eh]
	 SCS Correlation Energy    =      -1.7861349857337727 [Eh]
	 SCS Total Energy          =    -387.8474690103734019 [Eh]
	-----------------------------------------------------------

  Dipole Moment: [D]
     X:    -1.1971      Y:    -0.7974      Z:    -0.1491     Total:     1.4461

*** Psi4 exiting successfully. Buy a developer a beer!
