                               Psi4 1.3.2 release

  ==> Input File <==

--------------------------------------------------------------------------
#psi4
#
memory 32 gb

molecule  {
0 1
  O       -2.7848290    -0.9154220    -0.7447340
  C       -2.7698910    -0.0438090     0.3861860
  C       -1.3725986     0.1716942     0.7416457
  C        3.5873700    -0.2293000     0.2222030
  C       -3.4755630     1.2700040     0.0649850
  C       -0.2802220    -0.2946410     0.1124460
  C        2.1660230    -0.5131760    -0.1475910
  C        1.0922740    -0.0266840     0.5021560
  C        4.3244450     0.5343730    -0.8803810
  H       -3.2865450    -0.5271910     1.2335890
  H       -1.1970340     0.8260370     1.6487790
  H        3.6131550     0.3461180     1.1547940
  H        4.1142490    -1.1721620     0.4188690
  H       -2.9813020     1.7413150    -0.7875330
  H       -4.5277090     1.0956620    -0.1864690
  H       -3.4435650     1.9541860     0.9176610
  H       -0.4844074    -0.9232606    -0.7513082
  H        2.0063450    -1.1440610    -1.0244550
  H        1.2471430     0.6066220     1.3780870
  H        4.3142870    -0.0291260    -1.8177910
  H        5.3679410     0.7151030    -0.6066950
  H        3.8442820     1.4990380    -1.0633910
  H       -3.7175750    -1.0591810    -0.9792530
units angstrom
no_reorient  #important for SAPT in psi4, default
symmetry c1  #important for SAPT in psi4, default
}

set PROPERTIES_ORIGIN ["COM"]
properties('MP2/aug-cc-pvtz', properties = ['dipole'])
--------------------------------------------------------------------------

    Molecular point group: c1
  Charge       = 0
  Multiplicity = 1
  Basis Set: AUG-CC-PVTZ
    Blend: AUG-CC-PVTZ
  Basis Set: (AUG-CC-PVTZ AUX)
    Blend: AUG-CC-PVTZ-JKFIT

    Orbital Energies [Eh]
    ---------------------

    Doubly Occupied:

       1A    -20.558747     2A    -11.285251     3A    -11.226941
       4A    -11.224661     5A    -11.223763     6A    -11.223636
       7A    -11.221523     8A    -11.221406     9A    -11.213181
      10A     -1.362242    11A     -1.098212    12A     -1.064243
      13A     -1.017450    14A     -0.963376    15A     -0.880005
      16A     -0.831069    17A     -0.753539    18A     -0.740826
      19A     -0.697571    20A     -0.637517    21A     -0.629497
      22A     -0.618674    23A     -0.590433    24A     -0.581870
      25A     -0.546620    26A     -0.540882    27A     -0.528437
      28A     -0.518374    29A     -0.498151    30A     -0.490969
      31A     -0.480085    32A     -0.471471    33A     -0.454320
      34A     -0.417703    35A     -0.297345

  @DF-RHF Final Energy:  -386.05890125003395

   => Energetics <=

    Nuclear Repulsion Energy =            418.7315134105824654
    One-Electron Energy =               -1353.3608453914764596
    Two-Electron Energy =                 548.5704307308600391
    Total Energy =                       -386.0589012500339550
  Basis Set: (AUG-CC-PVTZ AUX)
    Blend: AUG-CC-PVTZ-RI
    Molecular point group: c1

    Geometry (in Angstrom), charge = 0, multiplicity = 1:

       Center              X                  Y                   Z               Mass
    ------------   -----------------  -----------------  -----------------  -----------------
         O           -2.781865690711    -0.913354526804    -0.741871959442    15.994914619570
         C           -2.766927690711    -0.041741526804     0.389048040558    12.000000000000
         C           -1.369635290711     0.173761673196     0.744507740558    12.000000000000
         C            3.590333309289    -0.227232526804     0.225065040558    12.000000000000
         C           -3.472599690711     1.272071473196     0.067847040558    12.000000000000
         C           -0.277258690711    -0.292573526804     0.115308040558    12.000000000000
         C            2.168986309289    -0.511108526804    -0.144728959442    12.000000000000
         C            1.095237309289    -0.024616526804     0.505018040558    12.000000000000
         C            4.327408309289     0.536440473196    -0.877518959442    12.000000000000
         H           -3.283581690711    -0.525123526804     1.236451040558     1.007825032230
         H           -1.194070690711     0.828104473196     1.651641040558     1.007825032230
         H            3.616118309289     0.348185473196     1.157656040558     1.007825032230
         H            4.117212309289    -1.170094526804     0.421731040558     1.007825032230
         H           -2.978338690711     1.743382473196    -0.784670959442     1.007825032230
         H           -4.524745690711     1.097729473196    -0.183606959442     1.007825032230
         H           -3.440601690711     1.956253473196     0.920523040558     1.007825032230
         H           -0.481444090711    -0.921193126804    -0.748446159442     1.007825032230
         H            2.009308309289    -1.141993526804    -1.021592959442     1.007825032230
         H            1.250106309289     0.608689473196     1.380949040558     1.007825032230
         H            4.317250309289    -0.027058526804    -1.814928959442     1.007825032230
         H            5.370904309289     0.717170473196    -0.603832959442     1.007825032230
         H            3.847245309289     1.501105473196    -1.060528959442     1.007825032230
         H           -3.714611690711    -1.057113526804    -0.976390959442     1.007825032230

  Basis Set: AUG-CC-PVTZ
    Blend: AUG-CC-PVTZ
  Basis Set: (AUG-CC-PVTZ AUX)
    Blend: AUG-CC-PVTZ-JKFIT
	 Reference Energy          =    -386.0589012500339550 [Eh]
	 Singles Energy            =      -0.0000000000000000 [Eh]
	 Same-Spin Energy          =      -0.4008892407372655 [Eh]
	 Opposite-Spin Energy      =      -1.3789571789460933 [Eh]
	 Correlation Energy        =      -1.7798464196833588 [Eh]
	 Total Energy              =    -387.8387476697172929 [Eh]

	 ================> DF-SCS-MP2 Energies <==================
	-----------------------------------------------------------
	 SCS Same-Spin Scale       =       0.3333333333333333 [-]
	 SCS Opposite-Spin Scale   =       1.2000000000000000 [-]
	 SCS Same-Spin Energy      =      -0.1336297469124218 [Eh]
	 SCS Opposite-Spin Energy  =      -1.6547486147353119 [Eh]
	 SCS Correlation Energy    =      -1.7883783616477338 [Eh]
	 SCS Total Energy          =    -387.8472796116816994 [Eh]
	-----------------------------------------------------------

  Dipole Moment: [D]
     X:    -1.1814      Y:     0.6369      Z:     0.5545     Total:     1.4522

*** Psi4 exiting successfully. Buy a developer a beer!
