                               Psi4 1.3.2 release

  ==> Input File <==

--------------------------------------------------------------------------
#psi4
#
memory 32 gb

molecule  {
0 1
  O       -2.7848290    -0.9154220    -0.7447340
  C       -2.7698910    -0.0438090     0.3861860
  C       -1.3446020     0.1937550     0.7721520
  C        3.5873700    -0.2293000     0.2222030
  C       -3.4755630     1.2700040     0.0649850
  C       -0.3030844    -0.2519425     0.1710160
  C        2.1660230    -0.5131760    -0.1475910
  C        1.0922740    -0.0266840     0.5021560
  C        4.3244450     0.5343730    -0.8803810
  H       -3.2865450    -0.5271910     1.2335890
  H       -1.1970340     0.8260370     1.6487790
  H        3.6131550     0.3461180     1.1547940
  H        4.1142490    -1.1721620     0.4188690
  H       -2.9813020     1.7413150    -0.7875330
  H       -4.5277090     1.0956620    -0.1864690
  H       -3.4435650     1.9541860     0.9176610
  H       -0.4470010    -0.9272420    -0.7564190
  H        2.0063450    -1.1440610    -1.0244550
  H        1.1903633     0.6109040     1.3831645
  H        4.3142870    -0.0291260    -1.8177910
  H        5.3679410     0.7151030    -0.6066950
  H        3.8442820     1.4990380    -1.0633910
  H       -3.7175750    -1.0591810    -0.9792530
units angstrom
no_reorient  #important for SAPT in psi4, default
symmetry c1  #important for SAPT in psi4, default
}

set PROPERTIES_ORIGIN ["COM"]
properties('MP2/aug-cc-pvtz', properties = ['dipole'])
--------------------------------------------------------------------------

    Molecular point group: c1
  Charge       = 0
  Multiplicity = 1
  Basis Set: AUG-CC-PVTZ
    Blend: AUG-CC-PVTZ
  Basis Set: (AUG-CC-PVTZ AUX)
    Blend: AUG-CC-PVTZ-JKFIT

    Orbital Energies [Eh]
    ---------------------

    Doubly Occupied:

       1A    -20.558449     2A    -11.287422     3A    -11.228758
       4A    -11.224168     5A    -11.224029     6A    -11.221035
       7A    -11.218235     8A    -11.213923     9A    -11.213351
      10A     -1.360597    11A     -1.102091    12A     -1.066019
      13A     -1.016680    14A     -0.967968    15A     -0.877017
      16A     -0.831863    17A     -0.757199    18A     -0.738488
      19A     -0.693617    20A     -0.637586    21A     -0.631674
      22A     -0.617982    23A     -0.593062    24A     -0.583108
      25A     -0.545858    26A     -0.543734    27A     -0.528640
      28A     -0.519404    29A     -0.495299    30A     -0.489643
      31A     -0.479852    32A     -0.456652    33A     -0.454451
      34A     -0.423211    35A     -0.307015

  @DF-RHF Final Energy:  -386.05548213224142

   => Energetics <=

    Nuclear Repulsion Energy =            418.8452028008578623
    One-Electron Energy =               -1353.5852111034346308
    Two-Electron Energy =                 548.6845261703354026
    Total Energy =                       -386.0554821322414227
  Basis Set: (AUG-CC-PVTZ AUX)
    Blend: AUG-CC-PVTZ-RI
    Molecular point group: c1

    Geometry (in Angstrom), charge = 0, multiplicity = 1:

       Center              X                  Y                   Z               Mass
    ------------   -----------------  -----------------  -----------------  -----------------
         O           -2.782199425947    -0.919519372369    -0.750348122747    15.994914619570
         C           -2.767261425947    -0.047906372369     0.380571877253    12.000000000000
         C           -1.341972425947     0.189657627631     0.766537877253    12.000000000000
         C            3.589999574053    -0.233397372369     0.216588877253    12.000000000000
         C           -3.472933425947     1.265906627631     0.059370877253    12.000000000000
         C           -0.300454825947    -0.256039872369     0.165401877253    12.000000000000
         C            2.168652574053    -0.517273372369    -0.153205122747    12.000000000000
         C            1.094903574053    -0.030781372369     0.496541877253    12.000000000000
         C            4.327074574053     0.530275627631    -0.885995122747    12.000000000000
         H           -3.283915425947    -0.531288372369     1.227974877253     1.007825032230
         H           -1.194404425947     0.821939627631     1.643164877253     1.007825032230
         H            3.615784574053     0.342020627631     1.149179877253     1.007825032230
         H            4.116878574053    -1.176259372369     0.413254877253     1.007825032230
         H           -2.978672425947     1.737217627631    -0.793147122747     1.007825032230
         H           -4.525079425947     1.091564627631    -0.192083122747     1.007825032230
         H           -3.440935425947     1.950088627631     0.912046877253     1.007825032230
         H           -0.444371425947    -0.931339372369    -0.762033122747     1.007825032230
         H            2.008974574053    -1.148158372369    -1.030069122747     1.007825032230
         H            1.192992874053     0.606806627631     1.377550377253     1.007825032230
         H            4.316916574053    -0.033223372369    -1.823405122747     1.007825032230
         H            5.370570574053     0.711005627631    -0.612309122747     1.007825032230
         H            3.846911574053     1.494940627631    -1.069005122747     1.007825032230
         H           -3.714945425947    -1.063278372369    -0.984867122747     1.007825032230

  Basis Set: AUG-CC-PVTZ
    Blend: AUG-CC-PVTZ
  Basis Set: (AUG-CC-PVTZ AUX)
    Blend: AUG-CC-PVTZ-JKFIT
	 Reference Energy          =    -386.0554821322414227 [Eh]
	 Singles Energy            =      -0.0000000000000000 [Eh]
	 Same-Spin Energy          =      -0.4000087079074023 [Eh]
	 Opposite-Spin Energy      =      -1.3773934614227117 [Eh]
	 Correlation Energy        =      -1.7774021693301139 [Eh]
	 Total Energy              =    -387.8328843015715393 [Eh]

	 ================> DF-SCS-MP2 Energies <==================
	-----------------------------------------------------------
	 SCS Same-Spin Scale       =       0.3333333333333333 [-]
	 SCS Opposite-Spin Scale   =       1.2000000000000000 [-]
	 SCS Same-Spin Energy      =      -0.1333362359691341 [Eh]
	 SCS Opposite-Spin Energy  =      -1.6528721537072539 [Eh]
	 SCS Correlation Energy    =      -1.7862083896763881 [Eh]
	 SCS Total Energy          =    -387.8416905219178261 [Eh]
	-----------------------------------------------------------

  Dipole Moment: [D]
     X:    -1.1450      Y:     0.6535      Z:     0.5808     Total:     1.4407

*** Psi4 exiting successfully. Buy a developer a beer!
