                               Psi4 1.4a3.dev225

  ==> Input File <==

--------------------------------------------------------------------------
#psi4
#
memory 32 gb

molecule  {
0 1
  O       -2.7624640     1.3159430     0.2248240
  C       -2.8209640    -0.0168770    -0.2887760
  C       -1.4198970    -0.4865040    -0.5315690
  C        3.5469730    -0.0618850    -0.4287090
  C       -3.5485140    -0.9406360     0.6857820
  C       -0.3124200     0.2274490    -0.2577540
  C        2.1505970     0.4383770    -0.2221580
  C        1.0342680    -0.2689350    -0.4861660
  C        4.3265940    -0.1505530     0.8872490
  H       -3.3622360    -0.0200820    -1.2509840
  H       -1.3293920    -1.4912640    -0.9473420
  H        3.5136740    -1.0471260    -0.9088000
  H        4.0812660     0.6062640    -1.1173180
  H       -3.0279280    -0.9272120     1.6463760
  H       -4.5820380    -0.6089360     0.8383050
  H       -3.5770120    -1.9680220     0.3103630
  H       -0.4199758     1.2107894     0.1448555
  H        2.0485920     1.4434520     0.1930580
  H        1.1311650    -1.2755230    -0.8987060
  H        4.3778580     0.8269450     1.3761990
  H        5.3504770    -0.4972710     0.7173650
  H        3.8373540    -0.8453320     1.5752720
  H       -3.6799020     1.6047450     0.3678300
units angstrom
no_reorient  #important for SAPT in psi4, default
symmetry c1  #important for SAPT in psi4, default
}

set PROPERTIES_ORIGIN ["COM"]
properties('MP2/aug-cc-pvtz', properties = ['dipole'])
--------------------------------------------------------------------------

    Molecular point group: c1
  Charge       = 0
  Multiplicity = 1
  Basis Set: AUG-CC-PVTZ
    Blend: AUG-CC-PVTZ
  Basis Set: (AUG-CC-PVTZ AUX)
    Blend: AUG-CC-PVTZ-JKFIT

    Orbital Energies [Eh]
    ---------------------

    Doubly Occupied:

       1A    -20.558872     2A    -11.287036     3A    -11.226479
       4A    -11.223862     5A    -11.223638     6A    -11.223461
       7A    -11.220980     8A    -11.220820     9A    -11.213217
      10A     -1.360181    11A     -1.097396    12A     -1.060747
      13A     -1.015829    14A     -0.962189    15A     -0.876592
      16A     -0.828582    17A     -0.752405    18A     -0.750107
      19A     -0.695008    20A     -0.637921    21A     -0.627100
      22A     -0.616773    23A     -0.590244    24A     -0.582873
      25A     -0.546653    26A     -0.543600    27A     -0.527311
      28A     -0.518670    29A     -0.502304    30A     -0.492731
      31A     -0.479286    32A     -0.467990    33A     -0.452852
      34A     -0.417862    35A     -0.297309

  @DF-RHF Final Energy:  -386.06251306517311

   => Energetics <=

    Nuclear Repulsion Energy =            417.8389267297613401
    One-Electron Energy =               -1351.6051224210232249
    Two-Electron Energy =                 547.7036826260887210
    Total Energy =                       -386.0625130651731070
  Basis Set: (AUG-CC-PVTZ AUX)
    Blend: AUG-CC-PVTZ-RI
    Molecular point group: c1

    Geometry (in Angstrom), charge = 0, multiplicity = 1:

       Center              X                  Y                   Z               Mass
    ------------   -----------------  -----------------  -----------------  -----------------
         O           -2.728288385426     1.292774354459     0.241054068407    15.994914619570
         C           -2.786788385426    -0.040045645541    -0.272545931593    12.000000000000
         C           -1.385721385426    -0.509672645541    -0.515338931593    12.000000000000
         C            3.581148614574    -0.085053645541    -0.412478931593    12.000000000000
         C           -3.514338385426    -0.963804645541     0.702012068407    12.000000000000
         C           -0.278244385426     0.204280354459    -0.241523931593    12.000000000000
         C            2.184772614574     0.415208354459    -0.205927931593    12.000000000000
         C            1.068443614574    -0.292103645541    -0.469935931593    12.000000000000
         C            4.360769614574    -0.173721645541     0.903479068407    12.000000000000
         H           -3.328060385426    -0.043250645541    -1.234753931593     1.007825032230
         H           -1.295216385426    -1.514432645541    -0.931111931593     1.007825032230
         H            3.547849614574    -1.070294645541    -0.892569931593     1.007825032230
         H            4.115441614574     0.583095354459    -1.101087931593     1.007825032230
         H           -2.993752385426    -0.950380645541     1.662606068407     1.007825032230
         H           -4.547862385426    -0.632104645541     0.854535068407     1.007825032230
         H           -3.542836385426    -1.991190645541     0.326593068407     1.007825032230
         H           -0.385800185426     1.187620754459     0.161085568407     1.007825032230
         H            2.082767614574     1.420283354459     0.209288068407     1.007825032230
         H            1.165340614574    -1.298691645541    -0.882475931593     1.007825032230
         H            4.412033614574     0.803776354459     1.392429068407     1.007825032230
         H            5.384652614574    -0.520439645541     0.733595068407     1.007825032230
         H            3.871529614574    -0.868500645541     1.591502068407     1.007825032230
         H           -3.645726385426     1.581576354459     0.384060068407     1.007825032230

  Basis Set: AUG-CC-PVTZ
    Blend: AUG-CC-PVTZ
  Basis Set: (AUG-CC-PVTZ AUX)
    Blend: AUG-CC-PVTZ-JKFIT
	 Reference Energy          =    -386.0625130651731070 [Eh]
	 Singles Energy            =      -0.0000000000000000 [Eh]
	 Same-Spin Energy          =      -0.4002002924539508 [Eh]
	 Opposite-Spin Energy      =      -1.3782435312212367 [Eh]
	 Correlation Energy        =      -1.7784438236751874 [Eh]
	 Total Energy              =    -387.8409568888482681 [Eh]

	 ================> DF-SCS-MP2 Energies <==================
	-----------------------------------------------------------
	 SCS Same-Spin Scale       =       0.3333333333333333 [-]
	 SCS Opposite-Spin Scale   =       1.2000000000000000 [-]
	 SCS Same-Spin Energy      =      -0.1334000974846503 [Eh]
	 SCS Opposite-Spin Energy  =      -1.6538922374654839 [Eh]
	 SCS Correlation Energy    =      -1.7872923349501342 [Eh]
	 SCS Total Energy          =    -387.8498054001232163 [Eh]
	-----------------------------------------------------------

  Dipole Moment: [D]
     X:    -1.2003      Y:    -0.7931      Z:    -0.1430     Total:     1.4458

*** Psi4 exiting successfully. Buy a developer a beer!
