                               Psi4 1.3.2 release

  ==> Input File <==

--------------------------------------------------------------------------
#psi4
#
memory 32 gb

molecule  {
0 1
  O       -2.7848290    -0.9154220    -0.7447340
  C       -2.7698910    -0.0438090     0.3861860
  C       -1.3446020     0.1937550     0.7721520
  C        3.5873700    -0.2293000     0.2222030
  C       -3.4755630     1.2700040     0.0649850
  C       -0.2802220    -0.2946410     0.1124460
  C        2.1660230    -0.5131760    -0.1475910
  C        1.0749399     0.0015374     0.5405050
  C        4.3244450     0.5343730    -0.8803810
  H       -3.2865450    -0.5271910     1.2335890
  H       -1.1970340     0.8260370     1.6487790
  H        3.6131550     0.3461180     1.1547940
  H        4.1142490    -1.1721620     0.4188690
  H       -2.9813020     1.7413150    -0.7875330
  H       -4.5277090     1.0956620    -0.1864690
  H       -3.4435650     1.9541860     0.9176610
  H       -0.4844062    -0.9231259    -0.7514065
  H        2.0063450    -1.1440610    -1.0244550
  H        1.2471430     0.6066220     1.3780870
  H        4.3142870    -0.0291260    -1.8177910
  H        5.3679410     0.7151030    -0.6066950
  H        3.8442820     1.4990380    -1.0633910
  H       -3.7175750    -1.0591810    -0.9792530
units angstrom
no_reorient  #important for SAPT in psi4, default
symmetry c1  #important for SAPT in psi4, default
}

set PROPERTIES_ORIGIN ["COM"]
properties('MP2/aug-cc-pvtz', properties = ['dipole'])
--------------------------------------------------------------------------

    Molecular point group: c1
  Charge       = 0
  Multiplicity = 1
  Basis Set: AUG-CC-PVTZ
    Blend: AUG-CC-PVTZ
  Basis Set: (AUG-CC-PVTZ AUX)
    Blend: AUG-CC-PVTZ-JKFIT

    Orbital Energies [Eh]
    ---------------------

    Doubly Occupied:

       1A    -20.558903     2A    -11.285716     3A    -11.231906
       4A    -11.226028     5A    -11.223025     6A    -11.222463
       7A    -11.220249     8A    -11.220133     9A    -11.212779
      10A     -1.360949    11A     -1.094967    12A     -1.060152
      13A     -1.015569    14A     -0.958360    15A     -0.876402
      16A     -0.827105    17A     -0.758443    18A     -0.746850
      19A     -0.695598    20A     -0.636969    21A     -0.626128
      22A     -0.617477    23A     -0.591216    24A     -0.581260
      25A     -0.546399    26A     -0.543895    27A     -0.530148
      28A     -0.516897    29A     -0.502547    30A     -0.494163
      31A     -0.479947    32A     -0.468360    33A     -0.452653
      34A     -0.415195    35A     -0.290770

  @DF-RHF Final Energy:  -386.05681399495933

   => Energetics <=

    Nuclear Repulsion Energy =            417.9375894427750495
    One-Electron Energy =               -1351.8095587785364842
    Two-Electron Energy =                 547.8151553408019936
    Total Energy =                       -386.0568139949593842
  Basis Set: (AUG-CC-PVTZ AUX)
    Blend: AUG-CC-PVTZ-RI
    Molecular point group: c1

    Geometry (in Angstrom), charge = 0, multiplicity = 1:

       Center              X                  Y                   Z               Mass
    ------------   -----------------  -----------------  -----------------  -----------------
         O           -2.782880335271    -0.918140417246    -0.748423389087    15.994914619570
         C           -2.767942335271    -0.046527417246     0.382496610913    12.000000000000
         C           -1.342653335271     0.191036582754     0.768462610913    12.000000000000
         C            3.589318664729    -0.232018417246     0.218513610913    12.000000000000
         C           -3.473614335271     1.267285582754     0.061295610913    12.000000000000
         C           -0.278273335271    -0.297359417246     0.108756610913    12.000000000000
         C            2.167971664729    -0.515894417246    -0.151280389087    12.000000000000
         C            1.076888564729    -0.001181017246     0.536815610913    12.000000000000
         C            4.326393664729     0.531654582754    -0.884070389087    12.000000000000
         H           -3.284596335271    -0.529909417246     1.229899610913     1.007825032230
         H           -1.195085335271     0.823318582754     1.645089610913     1.007825032230
         H            3.615103664729     0.343399582754     1.151104610913     1.007825032230
         H            4.116197664729    -1.174880417246     0.415179610913     1.007825032230
         H           -2.979353335271     1.738596582754    -0.791222389087     1.007825032230
         H           -4.525760335271     1.092943582754    -0.190158389087     1.007825032230
         H           -3.441616335271     1.951467582754     0.913971610913     1.007825032230
         H           -0.482457535271    -0.925844317246    -0.755095889087     1.007825032230
         H            2.008293664729    -1.146779417246    -1.028144389087     1.007825032230
         H            1.249091664729     0.603903582754     1.374397610913     1.007825032230
         H            4.316235664729    -0.031844417246    -1.821480389087     1.007825032230
         H            5.369889664729     0.712384582754    -0.610384389087     1.007825032230
         H            3.846230664729     1.496319582754    -1.067080389087     1.007825032230
         H           -3.715626335271    -1.061899417246    -0.982942389087     1.007825032230

  Basis Set: AUG-CC-PVTZ
    Blend: AUG-CC-PVTZ
  Basis Set: (AUG-CC-PVTZ AUX)
    Blend: AUG-CC-PVTZ-JKFIT
	 Reference Energy          =    -386.0568139949593274 [Eh]
	 Singles Energy            =      -0.0000000000000000 [Eh]
	 Same-Spin Energy          =      -0.4009069875865605 [Eh]
	 Opposite-Spin Energy      =      -1.3795288186311123 [Eh]
	 Correlation Energy        =      -1.7804358062176728 [Eh]
	 Total Energy              =    -387.8372498011769949 [Eh]

	 ================> DF-SCS-MP2 Energies <==================
	-----------------------------------------------------------
	 SCS Same-Spin Scale       =       0.3333333333333333 [-]
	 SCS Opposite-Spin Scale   =       1.2000000000000000 [-]
	 SCS Same-Spin Energy      =      -0.1336356625288535 [Eh]
	 SCS Opposite-Spin Energy  =      -1.6554345823573346 [Eh]
	 SCS Correlation Energy    =      -1.7890702448861882 [Eh]
	 SCS Total Energy          =    -387.8458842398455317 [Eh]
	-----------------------------------------------------------

  Dipole Moment: [D]
     X:    -1.1617      Y:     0.6455      Z:     0.5903     Total:     1.4542

*** Psi4 exiting successfully. Buy a developer a beer!
