                               Psi4 1.3.2 release

  ==> Input File <==

--------------------------------------------------------------------------
#psi4
#
memory 32 gb

molecule  {
0 1
  O       -2.7848290    -0.9154220    -0.7447340
  C       -2.7698910    -0.0438090     0.3861860
  C       -1.3446020     0.1937550     0.7721520
  C        3.5873700    -0.2293000     0.2222030
  C       -3.4755630     1.2700040     0.0649850
  C       -0.2882641    -0.2804840     0.1318585
  C        2.1660230    -0.5131760    -0.1475910
  C        1.0922740    -0.0266840     0.5021560
  C        4.3244450     0.5343730    -0.8803810
  H       -3.2865450    -0.5271910     1.2335890
  H       -1.1970340     0.8260370     1.6487790
  H        3.6131550     0.3461180     1.1547940
  H        4.1142490    -1.1721620     0.4188690
  H       -2.9813020     1.7413150    -0.7875330
  H       -4.5277090     1.0956620    -0.1864690
  H       -3.4435650     1.9541860     0.9176610
  H       -0.4470010    -0.9272420    -0.7564190
  H        2.0063450    -1.1440610    -1.0244550
  H        1.2282559     0.6082429     1.3800471
  H        4.3142870    -0.0291260    -1.8177910
  H        5.3679410     0.7151030    -0.6066950
  H        3.8442820     1.4990380    -1.0633910
  H       -3.7175750    -1.0591810    -0.9792530
units angstrom
no_reorient  #important for SAPT in psi4, default
symmetry c1  #important for SAPT in psi4, default
}

set PROPERTIES_ORIGIN ["COM"]
properties('MP2/aug-cc-pvtz', properties = ['dipole'])
--------------------------------------------------------------------------

    Molecular point group: c1
  Charge       = 0
  Multiplicity = 1
  Basis Set: AUG-CC-PVTZ
    Blend: AUG-CC-PVTZ
  Basis Set: (AUG-CC-PVTZ AUX)
    Blend: AUG-CC-PVTZ-JKFIT

    Orbital Energies [Eh]
    ---------------------

    Doubly Occupied:

       1A    -20.558644     2A    -11.286752     3A    -11.226796
       4A    -11.223561     5A    -11.223368     6A    -11.221399
       7A    -11.220754     8A    -11.219301     9A    -11.213015
      10A     -1.360722    11A     -1.098952    12A     -1.062882
      13A     -1.016256    14A     -0.964303    15A     -0.876710
      16A     -0.829614    17A     -0.753875    18A     -0.744716
      19A     -0.694725    20A     -0.637207    21A     -0.628828
      22A     -0.617542    23A     -0.591085    24A     -0.583163
      25A     -0.546186    26A     -0.543592    27A     -0.527772
      28A     -0.519070    29A     -0.497379    30A     -0.492036
      31A     -0.479372    32A     -0.465827    33A     -0.453401
      34A     -0.419805    35A     -0.300688

  @DF-RHF Final Energy:  -386.06234163383738

   => Energetics <=

    Nuclear Repulsion Energy =            418.4592936745529528
    One-Electron Energy =               -1352.8446743990155028
    Two-Electron Energy =                 548.3230390906251159
    Total Energy =                       -386.0623416338373772
  Basis Set: (AUG-CC-PVTZ AUX)
    Blend: AUG-CC-PVTZ-RI
    Molecular point group: c1

    Geometry (in Angstrom), charge = 0, multiplicity = 1:

       Center              X                  Y                   Z               Mass
    ------------   -----------------  -----------------  -----------------  -----------------
         O           -2.783912550939    -0.916782118593    -0.746597012162    15.994914619570
         C           -2.768974550939    -0.045169118593     0.384322987838    12.000000000000
         C           -1.343685550939     0.192394881407     0.770288987838    12.000000000000
         C            3.588286449061    -0.230660118593     0.220339987838    12.000000000000
         C           -3.474646550939     1.268643881407     0.063121987838    12.000000000000
         C           -0.287347650939    -0.281844118593     0.129995487838    12.000000000000
         C            2.166939449061    -0.514536118593    -0.149454012162    12.000000000000
         C            1.093190449061    -0.028044118593     0.500292987838    12.000000000000
         C            4.325361449061     0.533012881407    -0.882244012162    12.000000000000
         H           -3.285628550939    -0.528551118593     1.231725987838     1.007825032230
         H           -1.196117550939     0.824676881407     1.646915987838     1.007825032230
         H            3.614071449061     0.344757881407     1.152930987838     1.007825032230
         H            4.115165449061    -1.173522118593     0.417005987838     1.007825032230
         H           -2.980385550939     1.739954881407    -0.789396012162     1.007825032230
         H           -4.526792550939     1.094301881407    -0.188332012162     1.007825032230
         H           -3.442648550939     1.952825881407     0.915797987838     1.007825032230
         H           -0.446084550939    -0.928602118593    -0.758282012162     1.007825032230
         H            2.007261449061    -1.145421118593    -1.026318012162     1.007825032230
         H            1.229172349061     0.606882781407     1.378184087838     1.007825032230
         H            4.315203449061    -0.030486118593    -1.819654012162     1.007825032230
         H            5.368857449061     0.713742881407    -0.608558012162     1.007825032230
         H            3.845198449061     1.497677881407    -1.065254012162     1.007825032230
         H           -3.716658550939    -1.060541118593    -0.981116012162     1.007825032230

  Basis Set: AUG-CC-PVTZ
    Blend: AUG-CC-PVTZ
  Basis Set: (AUG-CC-PVTZ AUX)
    Blend: AUG-CC-PVTZ-JKFIT
	 Reference Energy          =    -386.0623416338373772 [Eh]
	 Singles Energy            =      -0.0000000000000000 [Eh]
	 Same-Spin Energy          =      -0.4001750592824052 [Eh]
	 Opposite-Spin Energy      =      -1.3778788817879597 [Eh]
	 Correlation Energy        =      -1.7780539410703649 [Eh]
	 Total Energy              =    -387.8403955749077454 [Eh]

	 ================> DF-SCS-MP2 Energies <==================
	-----------------------------------------------------------
	 SCS Same-Spin Scale       =       0.3333333333333333 [-]
	 SCS Opposite-Spin Scale   =       1.2000000000000000 [-]
	 SCS Same-Spin Energy      =      -0.1333916864274684 [Eh]
	 SCS Opposite-Spin Energy  =      -1.6534546581455516 [Eh]
	 SCS Correlation Energy    =      -1.7868463445730201 [Eh]
	 SCS Total Energy          =    -387.8491879784103844 [Eh]
	-----------------------------------------------------------

  Dipole Moment: [D]
     X:    -1.1569      Y:     0.6448      Z:     0.5774     Total:     1.4449

*** Psi4 exiting successfully. Buy a developer a beer!
