                               Psi4 1.3.2 release

  ==> Input File <==

--------------------------------------------------------------------------
#psi4
#
memory 32 gb

molecule  {
0 1
  O       -2.7848290    -0.9154220    -0.7447340
  C       -2.7698910    -0.0438090     0.3861860
  C       -1.3725971     0.1718707     0.7415175
  C        3.5873700    -0.2293000     0.2222030
  C       -3.4755630     1.2700040     0.0649850
  C       -0.2802220    -0.2946410     0.1124460
  C        2.1660230    -0.5131760    -0.1475910
  C        1.1079380    -0.0550431     0.4631949
  C        4.3244450     0.5343730    -0.8803810
  H       -3.2865450    -0.5271910     1.2335890
  H       -1.1970340     0.8260370     1.6487790
  H        3.6131550     0.3461180     1.1547940
  H        4.1142490    -1.1721620     0.4188690
  H       -2.9813020     1.7413150    -0.7875330
  H       -4.5277090     1.0956620    -0.1864690
  H       -3.4435650     1.9541860     0.9176610
  H       -0.4470010    -0.9272420    -0.7564190
  H        2.0063450    -1.1440610    -1.0244550
  H        1.2471430     0.6066220     1.3780870
  H        4.3142870    -0.0291260    -1.8177910
  H        5.3679410     0.7151030    -0.6066950
  H        3.8442820     1.4990380    -1.0633910
  H       -3.7175750    -1.0591810    -0.9792530
units angstrom
no_reorient  #important for SAPT in psi4, default
symmetry c1  #important for SAPT in psi4, default
}

set PROPERTIES_ORIGIN ["COM"]
properties('MP2/aug-cc-pvtz', properties = ['dipole'])
--------------------------------------------------------------------------

    Molecular point group: c1
  Charge       = 0
  Multiplicity = 1
  Basis Set: AUG-CC-PVTZ
    Blend: AUG-CC-PVTZ
  Basis Set: (AUG-CC-PVTZ AUX)
    Blend: AUG-CC-PVTZ-JKFIT

    Orbital Energies [Eh]
    ---------------------

    Doubly Occupied:

       1A    -20.558659     2A    -11.286038     3A    -11.226057
       4A    -11.224051     5A    -11.223253     6A    -11.222322
       7A    -11.221967     8A    -11.220006     9A    -11.213310
      10A     -1.362150    11A     -1.101945    12A     -1.065707
      13A     -1.018166    14A     -0.967492    15A     -0.880583
      16A     -0.832912    17A     -0.750815    18A     -0.739987
      19A     -0.697277    20A     -0.637835    21A     -0.630918
      22A     -0.618522    23A     -0.593878    24A     -0.580243
      25A     -0.546827    26A     -0.540978    27A     -0.525874
      28A     -0.519294    29A     -0.498645    30A     -0.491602
      31A     -0.480680    32A     -0.462592    33A     -0.454625
      34A     -0.421525    35A     -0.303888

  @DF-RHF Final Energy:  -386.05681583179961

   => Energetics <=

    Nuclear Repulsion Energy =            419.0875027257958436
    One-Electron Energy =               -1354.0473885404285284
    Two-Electron Energy =                 548.9030699828330171
    Total Energy =                       -386.0568158317996676
  Basis Set: (AUG-CC-PVTZ AUX)
    Blend: AUG-CC-PVTZ-RI
    Molecular point group: c1

    Geometry (in Angstrom), charge = 0, multiplicity = 1:

       Center              X                  Y                   Z               Mass
    ------------   -----------------  -----------------  -----------------  -----------------
         O           -2.783655358557    -0.910640873847    -0.738111407491    15.994914619570
         C           -2.768717358557    -0.039027873847     0.392808592509    12.000000000000
         C           -1.371423458557     0.176651826153     0.748140092509    12.000000000000
         C            3.588543641443    -0.224518873847     0.228825592509    12.000000000000
         C           -3.474389358557     1.274785126153     0.071607592509    12.000000000000
         C           -0.279048358557    -0.289859873847     0.119068592509    12.000000000000
         C            2.167196641443    -0.508394873847    -0.140968407491    12.000000000000
         C            1.109111641443    -0.050261973847     0.469817492509    12.000000000000
         C            4.325618641443     0.539154126153    -0.873758407491    12.000000000000
         H           -3.285371358557    -0.522409873847     1.240211592509     1.007825032230
         H           -1.195860358557     0.830818126153     1.655401592509     1.007825032230
         H            3.614328641443     0.350899126153     1.161416592509     1.007825032230
         H            4.115422641443    -1.167380873847     0.425491592509     1.007825032230
         H           -2.980128358557     1.746096126153    -0.780910407491     1.007825032230
         H           -4.526535358557     1.100443126153    -0.179846407491     1.007825032230
         H           -3.442391358557     1.958967126153     0.924283592509     1.007825032230
         H           -0.445827358557    -0.922460873847    -0.749796407491     1.007825032230
         H            2.007518641443    -1.139279873847    -1.017832407491     1.007825032230
         H            1.248316641443     0.611403126153     1.384709592509     1.007825032230
         H            4.315460641443    -0.024344873847    -1.811168407491     1.007825032230
         H            5.369114641443     0.719884126153    -0.600072407491     1.007825032230
         H            3.845455641443     1.503819126153    -1.056768407491     1.007825032230
         H           -3.716401358557    -1.054399873847    -0.972630407491     1.007825032230

  Basis Set: AUG-CC-PVTZ
    Blend: AUG-CC-PVTZ
  Basis Set: (AUG-CC-PVTZ AUX)
    Blend: AUG-CC-PVTZ-JKFIT
	 Reference Energy          =    -386.0568158317996108 [Eh]
	 Singles Energy            =      -0.0000000000000000 [Eh]
	 Same-Spin Energy          =      -0.4005395781800165 [Eh]
	 Opposite-Spin Energy      =      -1.3782047343374813 [Eh]
	 Correlation Energy        =      -1.7787443125174978 [Eh]
	 Total Energy              =    -387.8355601443171281 [Eh]

	 ================> DF-SCS-MP2 Energies <==================
	-----------------------------------------------------------
	 SCS Same-Spin Scale       =       0.3333333333333333 [-]
	 SCS Opposite-Spin Scale   =       1.2000000000000000 [-]
	 SCS Same-Spin Energy      =      -0.1335131927266721 [Eh]
	 SCS Opposite-Spin Energy  =      -1.6538456812049775 [Eh]
	 SCS Correlation Energy    =      -1.7873588739316497 [Eh]
	 SCS Total Energy          =    -387.8441747057312341 [Eh]
	-----------------------------------------------------------

  Dipole Moment: [D]
     X:    -1.1917      Y:     0.6278      Z:     0.5336     Total:     1.4488

*** Psi4 exiting successfully. Buy a developer a beer!
