                               Psi4 1.4a3.dev225

  ==> Input File <==

--------------------------------------------------------------------------
#psi4
#
memory 32 gb

molecule  {
0 1
  O       -2.7624640     1.3159430     0.2248240
  C       -2.8230101    -0.0634937    -0.3067397
  C       -1.4198970    -0.4865040    -0.5315690
  C        3.5469730    -0.0618850    -0.4287090
  C       -3.5485140    -0.9406360     0.6857820
  C       -0.3124200     0.2274490    -0.2577540
  C        2.1505970     0.4383770    -0.2221580
  C        1.0342680    -0.2689350    -0.4861660
  C        4.3265940    -0.1505530     0.8872490
  H       -3.3622360    -0.0200820    -1.2509840
  H       -1.3293920    -1.4912640    -0.9473420
  H        3.5136740    -1.0471260    -0.9088000
  H        4.0812660     0.6062640    -1.1173180
  H       -3.0279280    -0.9272120     1.6463760
  H       -4.5820380    -0.6089360     0.8383050
  H       -3.5770120    -1.9680220     0.3103630
  H       -0.4219900     1.2292040     0.1523950
  H        2.0485920     1.4434520     0.1930580
  H        1.1311650    -1.2755230    -0.8987060
  H        4.3778580     0.8269450     1.3761990
  H        5.3504770    -0.4972710     0.7173650
  H        3.8373540    -0.8453320     1.5752720
  H       -3.6799020     1.6047450     0.3678300
units angstrom
no_reorient  #important for SAPT in psi4, default
symmetry c1  #important for SAPT in psi4, default
}

set PROPERTIES_ORIGIN ["COM"]
properties('MP2/aug-cc-pvtz', properties = ['dipole'])
--------------------------------------------------------------------------

    Molecular point group: c1
  Charge       = 0
  Multiplicity = 1
  Basis Set: AUG-CC-PVTZ
    Blend: AUG-CC-PVTZ
  Basis Set: (AUG-CC-PVTZ AUX)
    Blend: AUG-CC-PVTZ-JKFIT

    Orbital Energies [Eh]
    ---------------------

    Doubly Occupied:

       1A    -20.552255     2A    -11.286975     3A    -11.227485
       4A    -11.225690     5A    -11.224454     6A    -11.224212
       7A    -11.223191     8A    -11.222128     9A    -11.213654
      10A     -1.340622    11A     -1.098358    12A     -1.063700
      13A     -1.019137    14A     -0.963803    15A     -0.878285
      16A     -0.829328    17A     -0.753097    18A     -0.745951
      19A     -0.689866    20A     -0.633952    21A     -0.628356
      22A     -0.612211    23A     -0.589889    24A     -0.581364
      25A     -0.546878    26A     -0.545394    27A     -0.523486
      28A     -0.519001    29A     -0.499902    30A     -0.490763
      31A     -0.480219    32A     -0.470662    33A     -0.453967
      34A     -0.419922    35A     -0.298677

  @DF-RHF Final Energy:  -386.05915807304950

   => Energetics <=

    Nuclear Repulsion Energy =            417.4382652129079361
    One-Electron Energy =               -1350.8411742311068338
    Two-Electron Energy =                 547.3437509451493952
    Total Energy =                       -386.0591580730495025
  Basis Set: (AUG-CC-PVTZ AUX)
    Blend: AUG-CC-PVTZ-RI
    Molecular point group: c1

    Geometry (in Angstrom), charge = 0, multiplicity = 1:

       Center              X                  Y                   Z               Mass
    ------------   -----------------  -----------------  -----------------  -----------------
         O           -2.728077582730     1.297063193121     0.242703224153    15.994914619570
         C           -2.788623682730    -0.082373506879    -0.288860475847    12.000000000000
         C           -1.385510582730    -0.505383806879    -0.513689775847    12.000000000000
         C            3.581359417270    -0.080764806879    -0.410829775847    12.000000000000
         C           -3.514127582730    -0.959515806879     0.703661224153    12.000000000000
         C           -0.278033582730     0.208569193121    -0.239874775847    12.000000000000
         C            2.184983417270     0.419497193121    -0.204278775847    12.000000000000
         C            1.068654417270    -0.287814806879    -0.468286775847    12.000000000000
         C            4.360980417270    -0.169432806879     0.905128224153    12.000000000000
         H           -3.327849582730    -0.038961806879    -1.233104775847     1.007825032230
         H           -1.295005582730    -1.510143806879    -0.929462775847     1.007825032230
         H            3.548060417270    -1.066005806879    -0.890920775847     1.007825032230
         H            4.115652417270     0.587384193121    -1.099438775847     1.007825032230
         H           -2.993541582730    -0.946091806879     1.664255224153     1.007825032230
         H           -4.547651582730    -0.627815806879     0.856184224153     1.007825032230
         H           -3.542625582730    -1.986901806879     0.328242224153     1.007825032230
         H           -0.387603582730     1.210324193121     0.170274224153     1.007825032230
         H            2.082978417270     1.424572193121     0.210937224153     1.007825032230
         H            1.165551417270    -1.294402806879    -0.880826775847     1.007825032230
         H            4.412244417270     0.808065193121     1.394078224153     1.007825032230
         H            5.384863417270    -0.516150806879     0.735244224153     1.007825032230
         H            3.871740417270    -0.864211806879     1.593151224153     1.007825032230
         H           -3.645515582730     1.585865193121     0.385709224153     1.007825032230

  Basis Set: AUG-CC-PVTZ
    Blend: AUG-CC-PVTZ
  Basis Set: (AUG-CC-PVTZ AUX)
    Blend: AUG-CC-PVTZ-JKFIT
	 Reference Energy          =    -386.0591580730495025 [Eh]
	 Singles Energy            =      -0.0000000000000000 [Eh]
	 Same-Spin Energy          =      -0.4005151751661941 [Eh]
	 Opposite-Spin Energy      =      -1.3794358475178274 [Eh]
	 Correlation Energy        =      -1.7799510226840214 [Eh]
	 Total Energy              =    -387.8391090957335336 [Eh]

	 ================> DF-SCS-MP2 Energies <==================
	-----------------------------------------------------------
	 SCS Same-Spin Scale       =       0.3333333333333333 [-]
	 SCS Opposite-Spin Scale   =       1.2000000000000000 [-]
	 SCS Same-Spin Energy      =      -0.1335050583887313 [Eh]
	 SCS Opposite-Spin Energy  =      -1.6553230170213928 [Eh]
	 SCS Correlation Energy    =      -1.7888280754101242 [Eh]
	 SCS Total Energy          =    -387.8479861484596540 [Eh]
	-----------------------------------------------------------

  Dipole Moment: [D]
     X:    -1.1484      Y:    -0.9488      Z:    -0.1815     Total:     1.5006

*** Psi4 exiting successfully. Buy a developer a beer!
