                               Psi4 1.3.2 release

  ==> Input File <==

--------------------------------------------------------------------------
#psi4
#
memory 32 gb

molecule  {
0 1
  O       -2.7848290    -0.9154220    -0.7447340
  C       -2.7709371    -0.1048504     0.3069846
  C       -1.3446020     0.1937550     0.7721520
  C        3.5873700    -0.2293000     0.2222030
  C       -3.4755630     1.2700040     0.0649850
  C       -0.2802220    -0.2946410     0.1124460
  C        2.1660230    -0.5131760    -0.1475910
  C        1.0922740    -0.0266840     0.5021560
  C        4.3244450     0.5343730    -0.8803810
  H       -3.2865450    -0.5271910     1.2335890
  H       -1.1970340     0.8260370     1.6487790
  H        3.6131550     0.3461180     1.1547940
  H        4.1142490    -1.1721620     0.4188690
  H       -2.9813020     1.7413150    -0.7875330
  H       -4.5277090     1.0956620    -0.1864690
  H       -3.4435650     1.9541860     0.9176610
  H       -0.4470010    -0.9272420    -0.7564190
  H        2.0063450    -1.1440610    -1.0244550
  H        1.2471430     0.6066220     1.3780870
  H        4.3142870    -0.0291260    -1.8177910
  H        5.3679410     0.7151030    -0.6066950
  H        3.8442820     1.4990380    -1.0633910
  H       -3.7175750    -1.0591810    -0.9792530
units angstrom
no_reorient  #important for SAPT in psi4, default
symmetry c1  #important for SAPT in psi4, default
}

set PROPERTIES_ORIGIN ["COM"]
properties('MP2/aug-cc-pvtz', properties = ['dipole'])
--------------------------------------------------------------------------

    Molecular point group: c1
  Charge       = 0
  Multiplicity = 1
  Basis Set: AUG-CC-PVTZ
    Blend: AUG-CC-PVTZ
  Basis Set: (AUG-CC-PVTZ AUX)
    Blend: AUG-CC-PVTZ-JKFIT

    Orbital Energies [Eh]
    ---------------------

    Doubly Occupied:

       1A    -20.571618     2A    -11.289536     3A    -11.224075
       4A    -11.222922     5A    -11.222190     6A    -11.221747
       7A    -11.218861     8A    -11.218486     9A    -11.212055
      10A     -1.407565    11A     -1.095574    12A     -1.055889
      13A     -1.008375    14A     -0.958945    15A     -0.874194
      16A     -0.829031    17A     -0.757688    18A     -0.750570
      19A     -0.704998    20A     -0.648435    21A     -0.628801
      22A     -0.625535    23A     -0.594322    24A     -0.583200
      25A     -0.550460    26A     -0.541308    27A     -0.534344
      28A     -0.517959    29A     -0.503642    30A     -0.488061
      31A     -0.477283    32A     -0.457050    33A     -0.445117
      34A     -0.412050    35A     -0.294628

  @DF-RHF Final Energy:  -386.05382884303452

   => Energetics <=

    Nuclear Repulsion Energy =            418.9568043870726797
    One-Electron Energy =               -1353.7282378417132804
    Two-Electron Energy =                 548.7176046116060206
    Total Energy =                       -386.0538288430345801
  Basis Set: (AUG-CC-PVTZ AUX)
    Blend: AUG-CC-PVTZ-RI
    Molecular point group: c1

    Geometry (in Angstrom), charge = 0, multiplicity = 1:

       Center              X                  Y                   Z               Mass
    ------------   -----------------  -----------------  -----------------  -----------------
         O           -2.784729230128    -0.909613344806    -0.737197327249    15.994914619570
         C           -2.770837330128    -0.099041744806     0.314521272751    12.000000000000
         C           -1.344502230128     0.199563655194     0.779688672751    12.000000000000
         C            3.587469769872    -0.223491344806     0.229739672751    12.000000000000
         C           -3.475463230128     1.275812655194     0.072521672751    12.000000000000
         C           -0.280122230128    -0.288832344806     0.119982672751    12.000000000000
         C            2.166122769872    -0.507367344806    -0.140054327249    12.000000000000
         C            1.092373769872    -0.020875344806     0.509692672751    12.000000000000
         C            4.324544769872     0.540181655194    -0.872844327249    12.000000000000
         H           -3.286445230128    -0.521382344806     1.241125672751     1.007825032230
         H           -1.196934230128     0.831845655194     1.656315672751     1.007825032230
         H            3.613254769872     0.351926655194     1.162330672751     1.007825032230
         H            4.114348769872    -1.166353344806     0.426405672751     1.007825032230
         H           -2.981202230128     1.747123655194    -0.779996327249     1.007825032230
         H           -4.527609230128     1.101470655194    -0.178932327249     1.007825032230
         H           -3.443465230128     1.959994655194     0.925197672751     1.007825032230
         H           -0.446901230128    -0.921433344806    -0.748882327249     1.007825032230
         H            2.006444769872    -1.138252344806    -1.016918327249     1.007825032230
         H            1.247242769872     0.612430655194     1.385623672751     1.007825032230
         H            4.314386769872    -0.023317344806    -1.810254327249     1.007825032230
         H            5.368040769872     0.720911655194    -0.599158327249     1.007825032230
         H            3.844381769872     1.504846655194    -1.055854327249     1.007825032230
         H           -3.717475230128    -1.053372344806    -0.971716327249     1.007825032230

  Basis Set: AUG-CC-PVTZ
    Blend: AUG-CC-PVTZ
  Basis Set: (AUG-CC-PVTZ AUX)
    Blend: AUG-CC-PVTZ-JKFIT
	 Reference Energy          =    -386.0538288430345233 [Eh]
	 Singles Energy            =      -0.0000000000000000 [Eh]
	 Same-Spin Energy          =      -0.4003972952743231 [Eh]
	 Opposite-Spin Energy      =      -1.3771668745161278 [Eh]
	 Correlation Energy        =      -1.7775641697904510 [Eh]
	 Total Energy              =    -387.8313930128249467 [Eh]

	 ================> DF-SCS-MP2 Energies <==================
	-----------------------------------------------------------
	 SCS Same-Spin Scale       =       0.3333333333333333 [-]
	 SCS Opposite-Spin Scale   =       1.2000000000000000 [-]
	 SCS Same-Spin Energy      =      -0.1334657650914410 [Eh]
	 SCS Opposite-Spin Energy  =      -1.6526002494193535 [Eh]
	 SCS Correlation Energy    =      -1.7860660145107945 [Eh]
	 SCS Total Energy          =    -387.8398948575453460 [Eh]
	-----------------------------------------------------------

  Dipole Moment: [D]
     X:    -1.2722      Y:     0.4042      Z:     0.3231     Total:     1.3734

*** Psi4 exiting successfully. Buy a developer a beer!
