                               Psi4 1.4a3.dev225

  ==> Input File <==

--------------------------------------------------------------------------
#psi4
#
memory 32 gb

molecule  {
0 1
  O       -2.7624640     1.3159430     0.2248240
  C       -2.8209640    -0.0168770    -0.2887760
  C       -1.4198970    -0.4865040    -0.5315690
  C        3.5469730    -0.0618850    -0.4287090
  C       -3.5485140    -0.9406360     0.6857820
  C       -0.3124200     0.2274490    -0.2577540
  C        2.1505970     0.4383770    -0.2221580
  C        1.0342680    -0.2689350    -0.4861660
  C        4.3265940    -0.1505530     0.8872490
  H       -3.3622360    -0.0200820    -1.2509840
  H       -1.3335392    -1.4452225    -0.9282899
  H        3.5136740    -1.0471260    -0.9088000
  H        4.0812660     0.6062640    -1.1173180
  H       -3.0279280    -0.9272120     1.6463760
  H       -4.5820380    -0.6089360     0.8383050
  H       -3.5770120    -1.9680220     0.3103630
  H       -0.4219900     1.2292040     0.1523950
  H        2.0485920     1.4434520     0.1930580
  H        1.1311650    -1.2755230    -0.8987060
  H        4.3778580     0.8269450     1.3761990
  H        5.3504770    -0.4972710     0.7173650
  H        3.8373540    -0.8453320     1.5752720
  H       -3.6799020     1.6047450     0.3678300
units angstrom
no_reorient  #important for SAPT in psi4, default
symmetry c1  #important for SAPT in psi4, default
}

set PROPERTIES_ORIGIN ["COM"]
properties('MP2/aug-cc-pvtz', properties = ['dipole'])
--------------------------------------------------------------------------

    Molecular point group: c1
  Charge       = 0
  Multiplicity = 1
  Basis Set: AUG-CC-PVTZ
    Blend: AUG-CC-PVTZ
  Basis Set: (AUG-CC-PVTZ AUX)
    Blend: AUG-CC-PVTZ-JKFIT

    Orbital Energies [Eh]
    ---------------------

    Doubly Occupied:

       1A    -20.558420     2A    -11.286460     3A    -11.226505
       4A    -11.223977     5A    -11.223653     6A    -11.222833
       7A    -11.220966     8A    -11.217103     9A    -11.213221
      10A     -1.359726    11A     -1.097572    12A     -1.061503
      13A     -1.015537    14A     -0.962721    15A     -0.876688
      16A     -0.828323    17A     -0.755669    18A     -0.751511
      19A     -0.694743    20A     -0.636733    21A     -0.627748
      22A     -0.616455    23A     -0.591191    24A     -0.584051
      25A     -0.548090    26A     -0.543944    27A     -0.527521
      28A     -0.518850    29A     -0.502234    30A     -0.492215
      31A     -0.479301    32A     -0.468000    33A     -0.452529
      34A     -0.417711    35A     -0.297125

  @DF-RHF Final Energy:  -386.06157612904701

   => Energetics <=

    Nuclear Repulsion Energy =            417.9981675329034374
    One-Electron Energy =               -1351.9178268307402959
    Two-Electron Energy =                 547.8580831687899035
    Total Energy =                       -386.0615761290470118
  Basis Set: (AUG-CC-PVTZ AUX)
    Blend: AUG-CC-PVTZ-RI
    Molecular point group: c1

    Geometry (in Angstrom), charge = 0, multiplicity = 1:

       Center              X                  Y                   Z               Mass
    ------------   -----------------  -----------------  -----------------  -----------------
         O           -2.728239143608     1.292259222255     0.240841548730    15.994914619570
         C           -2.786739143608    -0.040560777745    -0.272758451270    12.000000000000
         C           -1.385672143608    -0.510187777745    -0.515551451270    12.000000000000
         C            3.581197856392    -0.085568777745    -0.412691451270    12.000000000000
         C           -3.514289143608    -0.964319777745     0.701799548730    12.000000000000
         C           -0.278195143608     0.203765222255    -0.241736451270    12.000000000000
         C            2.184821856392     0.414693222255    -0.206140451270    12.000000000000
         C            1.068492856392    -0.292618777745    -0.470148451270    12.000000000000
         C            4.360818856392    -0.174236777745     0.903266548730    12.000000000000
         H           -3.328011143608    -0.043765777745    -1.234966451270     1.007825032230
         H           -1.299314343608    -1.468906277745    -0.912272351270     1.007825032230
         H            3.547898856392    -1.070809777745    -0.892782451270     1.007825032230
         H            4.115490856392     0.582580222255    -1.101300451270     1.007825032230
         H           -2.993703143608    -0.950895777745     1.662393548730     1.007825032230
         H           -4.547813143608    -0.632619777745     0.854322548730     1.007825032230
         H           -3.542787143608    -1.991705777745     0.326380548730     1.007825032230
         H           -0.387765143608     1.205520222255     0.168412548730     1.007825032230
         H            2.082816856392     1.419768222255     0.209075548730     1.007825032230
         H            1.165389856392    -1.299206777745    -0.882688451270     1.007825032230
         H            4.412082856392     0.803261222255     1.392216548730     1.007825032230
         H            5.384701856392    -0.520954777745     0.733382548730     1.007825032230
         H            3.871578856392    -0.869015777745     1.591289548730     1.007825032230
         H           -3.645677143608     1.581061222255     0.383847548730     1.007825032230

  Basis Set: AUG-CC-PVTZ
    Blend: AUG-CC-PVTZ
  Basis Set: (AUG-CC-PVTZ AUX)
    Blend: AUG-CC-PVTZ-JKFIT
	 Reference Energy          =    -386.0615761290470118 [Eh]
	 Singles Energy            =      -0.0000000000000000 [Eh]
	 Same-Spin Energy          =      -0.4001813234495271 [Eh]
	 Opposite-Spin Energy      =      -1.3780729803146743 [Eh]
	 Correlation Energy        =      -1.7782543037642013 [Eh]
	 Total Energy              =    -387.8398304328111976 [Eh]

	 ================> DF-SCS-MP2 Energies <==================
	-----------------------------------------------------------
	 SCS Same-Spin Scale       =       0.3333333333333333 [-]
	 SCS Opposite-Spin Scale   =       1.2000000000000000 [-]
	 SCS Same-Spin Energy      =      -0.1333937744831757 [Eh]
	 SCS Opposite-Spin Energy  =      -1.6536875763776091 [Eh]
	 SCS Correlation Energy    =      -1.7870813508607848 [Eh]
	 SCS Total Energy          =    -387.8486574799077857 [Eh]
	-----------------------------------------------------------

  Dipole Moment: [D]
     X:    -1.1945      Y:    -0.8131      Z:    -0.1517     Total:     1.4529

*** Psi4 exiting successfully. Buy a developer a beer!
