                               Psi4 1.3.2 release

  ==> Input File <==

--------------------------------------------------------------------------
#psi4
#
memory 32 gb

molecule  {
0 1
  O       -2.8097657    -0.9489003    -0.7175042
  C       -2.7698910    -0.0438090     0.3861860
  C       -1.3446020     0.1937550     0.7721520
  C        3.5873700    -0.2293000     0.2222030
  C       -3.4755630     1.2700040     0.0649850
  C       -0.2802220    -0.2946410     0.1124460
  C        2.1660230    -0.5131760    -0.1475910
  C        1.0922740    -0.0266840     0.5021560
  C        4.3244450     0.5343730    -0.8803810
  H       -3.2930859    -0.5578773     1.2112207
  H       -1.1970340     0.8260370     1.6487790
  H        3.6131550     0.3461180     1.1547940
  H        4.1142490    -1.1721620     0.4188690
  H       -2.9813020     1.7413150    -0.7875330
  H       -4.5277090     1.0956620    -0.1864690
  H       -3.4435650     1.9541860     0.9176610
  H       -0.4470010    -0.9272420    -0.7564190
  H        2.0063450    -1.1440610    -1.0244550
  H        1.2471430     0.6066220     1.3780870
  H        4.3142870    -0.0291260    -1.8177910
  H        5.3679410     0.7151030    -0.6066950
  H        3.8442820     1.4990380    -1.0633910
  H       -3.7175750    -1.0591810    -0.9792530
units angstrom
no_reorient  #important for SAPT in psi4, default
symmetry c1  #important for SAPT in psi4, default
}

set PROPERTIES_ORIGIN ["COM"]
properties('MP2/aug-cc-pvtz', properties = ['dipole'])
--------------------------------------------------------------------------

    Molecular point group: c1
  Charge       = 0
  Multiplicity = 1
  Basis Set: AUG-CC-PVTZ
    Blend: AUG-CC-PVTZ
  Basis Set: (AUG-CC-PVTZ AUX)
    Blend: AUG-CC-PVTZ-JKFIT

    Orbital Energies [Eh]
    ---------------------

    Doubly Occupied:

       1A    -20.554557     2A    -11.286405     3A    -11.226347
       4A    -11.224321     5A    -11.223601     6A    -11.223397
       7A    -11.222487     8A    -11.221720     9A    -11.213114
      10A     -1.363559    11A     -1.098401    12A     -1.062073
      13A     -1.016573    14A     -0.962805    15A     -0.877467
      16A     -0.829744    17A     -0.753658    18A     -0.749851
      19A     -0.694018    20A     -0.637964    21A     -0.627820
      22A     -0.620046    23A     -0.591132    24A     -0.583804
      25A     -0.546654    26A     -0.543958    27A     -0.527363
      28A     -0.519336    29A     -0.501470    30A     -0.491831
      31A     -0.479395    32A     -0.468549    33A     -0.451768
      34A     -0.418432    35A     -0.297954

  @DF-RHF Final Energy:  -386.06337286098045

   => Energetics <=

    Nuclear Repulsion Energy =            418.0430979730047625
    One-Electron Energy =               -1351.9897900863329596
    Two-Electron Energy =                 547.8833192523477464
    Total Energy =                       -386.0633728609805075
  Basis Set: (AUG-CC-PVTZ AUX)
    Blend: AUG-CC-PVTZ-RI
    Molecular point group: c1

    Geometry (in Angstrom), charge = 0, multiplicity = 1:

       Center              X                  Y                   Z               Mass
    ------------   -----------------  -----------------  -----------------  -----------------
         O           -2.806550265112    -0.944408710213    -0.720779291865    15.994914619570
         C           -2.766675565112    -0.039317410213     0.382910908135    12.000000000000
         C           -1.341386565112     0.198246589787     0.768876908135    12.000000000000
         C            3.590585434888    -0.224808410213     0.218927908135    12.000000000000
         C           -3.472347565112     1.274495589787     0.061709908135    12.000000000000
         C           -0.277006565112    -0.290149410213     0.109170908135    12.000000000000
         C            2.169238434888    -0.508684410213    -0.150866091865    12.000000000000
         C            1.095489434888    -0.022192410213     0.498880908135    12.000000000000
         C            4.327660434888     0.538864589787    -0.883656091865    12.000000000000
         H           -3.289870465112    -0.553385710213     1.207945608135     1.007825032230
         H           -1.193818565112     0.830528589787     1.645503908135     1.007825032230
         H            3.616370434888     0.350609589787     1.151518908135     1.007825032230
         H            4.117464434888    -1.167670410213     0.415593908135     1.007825032230
         H           -2.978086565112     1.745806589787    -0.790808091865     1.007825032230
         H           -4.524493565112     1.100153589787    -0.189744091865     1.007825032230
         H           -3.440349565112     1.958677589787     0.914385908135     1.007825032230
         H           -0.443785565112    -0.922750410213    -0.759694091865     1.007825032230
         H            2.009560434888    -1.139569410213    -1.027730091865     1.007825032230
         H            1.250358434888     0.611113589787     1.374811908135     1.007825032230
         H            4.317502434888    -0.024634410213    -1.821066091865     1.007825032230
         H            5.371156434888     0.719594589787    -0.609970091865     1.007825032230
         H            3.847497434888     1.503529589787    -1.066666091865     1.007825032230
         H           -3.714359565112    -1.054689410213    -0.982528091865     1.007825032230

  Basis Set: AUG-CC-PVTZ
    Blend: AUG-CC-PVTZ
  Basis Set: (AUG-CC-PVTZ AUX)
    Blend: AUG-CC-PVTZ-JKFIT
	 Reference Energy          =    -386.0633728609804507 [Eh]
	 Singles Energy            =      -0.0000000000000000 [Eh]
	 Same-Spin Energy          =      -0.3999333542165411 [Eh]
	 Opposite-Spin Energy      =      -1.3774185870916811 [Eh]
	 Correlation Energy        =      -1.7773519413082222 [Eh]
	 Total Energy              =    -387.8407248022886620 [Eh]

	 ================> DF-SCS-MP2 Energies <==================
	-----------------------------------------------------------
	 SCS Same-Spin Scale       =       0.3333333333333333 [-]
	 SCS Opposite-Spin Scale   =       1.2000000000000000 [-]
	 SCS Same-Spin Energy      =      -0.1333111180721804 [Eh]
	 SCS Opposite-Spin Energy  =      -1.6529023045100173 [Eh]
	 SCS Correlation Energy    =      -1.7862134225821977 [Eh]
	 SCS Total Energy          =    -387.8495862835626440 [Eh]
	-----------------------------------------------------------

  Dipole Moment: [D]
     X:    -1.1039      Y:     0.7378      Z:     0.5311     Total:     1.4300

*** Psi4 exiting successfully. Buy a developer a beer!
