                               Psi4 1.3.2 release

  ==> Input File <==

--------------------------------------------------------------------------
#psi4
#
memory 32 gb

molecule  {
0 1
  O       -2.7848290    -0.9154220    -0.7447340
  C       -2.7698910    -0.0438090     0.3861860
  C       -1.3446020     0.1937550     0.7721520
  C        3.5873700    -0.2293000     0.2222030
  C       -3.4755630     1.2700040     0.0649850
  C       -0.1218458    -0.3673127     0.0142839
  C        2.1660230    -0.5131760    -0.1475910
  C        1.0922740    -0.0266840     0.5021560
  C        4.3244450     0.5343730    -0.8803810
  H       -3.2865450    -0.5271910     1.2335890
  H       -1.1970340     0.8260370     1.6487790
  H        3.6131550     0.3461180     1.1547940
  H        4.1142490    -1.1721620     0.4188690
  H       -2.9813020     1.7413150    -0.7875330
  H       -4.5277090     1.0956620    -0.1864690
  H       -3.4435650     1.9541860     0.9176610
  H       -0.4470010    -0.9272420    -0.7564190
  H        2.0063450    -1.1440610    -1.0244550
  H        1.2471430     0.6066220     1.3780870
  H        4.3142870    -0.0291260    -1.8177910
  H        5.3679410     0.7151030    -0.6066950
  H        3.8442820     1.4990380    -1.0633910
  H       -3.7175750    -1.0591810    -0.9792530
units angstrom
no_reorient  #important for SAPT in psi4, default
symmetry c1  #important for SAPT in psi4, default
}

set PROPERTIES_ORIGIN ["COM"]
properties('MP2/aug-cc-pvtz', properties = ['dipole'])
--------------------------------------------------------------------------

    Molecular point group: c1
  Charge       = 0
  Multiplicity = 1
  Basis Set: AUG-CC-PVTZ
    Blend: AUG-CC-PVTZ
  Basis Set: (AUG-CC-PVTZ AUX)
    Blend: AUG-CC-PVTZ-JKFIT

    Orbital Energies [Eh]
    ---------------------

    Doubly Occupied:

       1A    -20.558790     2A    -11.286792     3A    -11.242756
       4A    -11.236464     5A    -11.225523     6A    -11.223011
       7A    -11.219859     8A    -11.219851     9A    -11.213456
      10A     -1.360314    11A     -1.107640    12A     -1.050180
      13A     -1.024258    14A     -0.944997    15A     -0.883560
      16A     -0.822591    17A     -0.763704    18A     -0.751759
      19A     -0.697105    20A     -0.647107    21A     -0.624568
      22A     -0.616850    23A     -0.593315    24A     -0.583228
      25A     -0.545366    26A     -0.541840    27A     -0.525693
      28A     -0.518521    29A     -0.512504    30A     -0.492198
      31A     -0.480532    32A     -0.460326    33A     -0.450406
      34A     -0.424097    35A     -0.261299

  @DF-RHF Final Energy:  -386.00237102433772

   => Energetics <=

    Nuclear Repulsion Energy =            417.3812481263269660
    One-Electron Energy =               -1350.5463244961872533
    Two-Electron Energy =                 547.1627053455226815
    Total Energy =                       -386.0023710243376627
  Basis Set: (AUG-CC-PVTZ AUX)
    Blend: AUG-CC-PVTZ-RI
    Molecular point group: c1

    Geometry (in Angstrom), charge = 0, multiplicity = 1:

       Center              X                  Y                   Z               Mass
    ------------   -----------------  -----------------  -----------------  -----------------
         O           -2.799899728642    -0.908506614763    -0.735393042207    15.994914619570
         C           -2.784961728642    -0.036893614763     0.395526957793    12.000000000000
         C           -1.359672728642     0.200670385237     0.781492957793    12.000000000000
         C            3.572299271358    -0.222384614763     0.231543957793    12.000000000000
         C           -3.490633728642     1.276919385237     0.074325957793    12.000000000000
         C           -0.136916528642    -0.360397314763     0.023624857793    12.000000000000
         C            2.150952271358    -0.506260614763    -0.138250042207    12.000000000000
         C            1.077203271358    -0.019768614763     0.511496957793    12.000000000000
         C            4.309374271358     0.541288385237    -0.871040042207    12.000000000000
         H           -3.301615728642    -0.520275614763     1.242929957793     1.007825032230
         H           -1.212104728642     0.832952385237     1.658119957793     1.007825032230
         H            3.598084271358     0.353033385237     1.164134957793     1.007825032230
         H            4.099178271358    -1.165246614763     0.428209957793     1.007825032230
         H           -2.996372728642     1.748230385237    -0.778192042207     1.007825032230
         H           -4.542779728642     1.102577385237    -0.177128042207     1.007825032230
         H           -3.458635728642     1.961101385237     0.927001957793     1.007825032230
         H           -0.462071728642    -0.920326614763    -0.747078042207     1.007825032230
         H            1.991274271358    -1.137145614763    -1.015114042207     1.007825032230
         H            1.232072271358     0.613537385237     1.387427957793     1.007825032230
         H            4.299216271358    -0.022210614763    -1.808450042207     1.007825032230
         H            5.352870271358     0.722018385237    -0.597354042207     1.007825032230
         H            3.829211271358     1.505953385237    -1.054050042207     1.007825032230
         H           -3.732645728642    -1.052265614763    -0.969912042207     1.007825032230

  Basis Set: AUG-CC-PVTZ
    Blend: AUG-CC-PVTZ
  Basis Set: (AUG-CC-PVTZ AUX)
    Blend: AUG-CC-PVTZ-JKFIT
	 Reference Energy          =    -386.0023710243377195 [Eh]
	 Singles Energy            =      -0.0000000000000000 [Eh]
	 Same-Spin Energy          =      -0.4057280885351158 [Eh]
	 Opposite-Spin Energy      =      -1.3880841688925778 [Eh]
	 Correlation Energy        =      -1.7938122574276936 [Eh]
	 Total Energy              =    -387.7961832817654226 [Eh]

	 ================> DF-SCS-MP2 Energies <==================
	-----------------------------------------------------------
	 SCS Same-Spin Scale       =       0.3333333333333333 [-]
	 SCS Opposite-Spin Scale   =       1.2000000000000000 [-]
	 SCS Same-Spin Energy      =      -0.1352426961783719 [Eh]
	 SCS Opposite-Spin Energy  =      -1.6657010026710932 [Eh]
	 SCS Correlation Energy    =      -1.8009436988494651 [Eh]
	 SCS Total Energy          =    -387.8033147231871567 [Eh]
	-----------------------------------------------------------

  Dipole Moment: [D]
     X:    -1.0523      Y:     0.6306      Z:     0.5748     Total:     1.3548

*** Psi4 exiting successfully. Buy a developer a beer!
