                               Psi4 1.4a3.dev225

  ==> Input File <==

--------------------------------------------------------------------------
#psi4
#
memory 32 gb

molecule  {
0 1
  O       -2.7624640     1.3159430     0.2248240
  C       -2.8209640    -0.0168770    -0.2887760
  C       -1.4198970    -0.4865040    -0.5315690
  C        3.5469730    -0.0618850    -0.4287090
  C       -3.5485140    -0.9406360     0.6857820
  C       -0.3124200     0.2274490    -0.2577540
  C        2.1505970     0.4383770    -0.2221580
  C        1.0342680    -0.2689350    -0.4861660
  C        4.3265940    -0.1505530     0.8872490
  H       -3.3622360    -0.0200820    -1.2509840
  H       -1.3293920    -1.4912640    -0.9473420
  H        3.5136740    -1.0471260    -0.9088000
  H        4.0812660     0.6062640    -1.1173180
  H       -3.0279280    -0.9272120     1.6463760
  H       -4.5820380    -0.6089360     0.8383050
  H       -3.5770120    -1.9680220     0.3103630
  H       -0.4219900     1.2292040     0.1523950
  H        2.0485920     1.4434520     0.1930580
  H        1.1311650    -1.2755230    -0.8987060
  H        4.3778580     0.8269450     1.3761990
  H        5.3504770    -0.4972710     0.7173650
  H        3.8373540    -0.8453320     1.5752720
  H       -3.6987717     1.6106850     0.3707713
units angstrom
no_reorient  #important for SAPT in psi4, default
symmetry c1  #important for SAPT in psi4, default
}

set PROPERTIES_ORIGIN ["COM"]
properties('MP2/aug-cc-pvtz', properties = ['dipole'])
--------------------------------------------------------------------------

    Molecular point group: c1
  Charge       = 0
  Multiplicity = 1
  Basis Set: AUG-CC-PVTZ
    Blend: AUG-CC-PVTZ
  Basis Set: (AUG-CC-PVTZ AUX)
    Blend: AUG-CC-PVTZ-JKFIT

    Orbital Energies [Eh]
    ---------------------

    Doubly Occupied:

       1A    -20.560619     2A    -11.286841     3A    -11.226488
       4A    -11.224290     5A    -11.223759     6A    -11.223573
       7A    -11.222428     8A    -11.220837     9A    -11.213207
      10A     -1.355997    11A     -1.096906    12A     -1.060132
      13A     -1.015288    14A     -0.962029    15A     -0.876034
      16A     -0.827995    17A     -0.752290    18A     -0.746649
      19A     -0.692703    20A     -0.636533    21A     -0.626994
      22A     -0.615676    23A     -0.589869    24A     -0.582453
      25A     -0.545948    26A     -0.543216    27A     -0.527142
      28A     -0.518450    29A     -0.500782    30A     -0.491926
      31A     -0.479229    32A     -0.467679    33A     -0.452376
      34A     -0.417827    35A     -0.297296

  @DF-RHF Final Energy:  -386.06073836902789

   => Energetics <=

    Nuclear Repulsion Energy =            417.6260553235169937
    One-Electron Energy =               -1351.2106663090746679
    Two-Electron Energy =                 547.5238726165297294
    Total Energy =                       -386.0607383690279448
  Basis Set: (AUG-CC-PVTZ AUX)
    Blend: AUG-CC-PVTZ-RI
    Molecular point group: c1

    Geometry (in Angstrom), charge = 0, multiplicity = 1:

       Center              X                  Y                   Z               Mass
    ------------   -----------------  -----------------  -----------------  -----------------
         O           -2.728121481604     1.292579712854     0.240970306007    15.994914619570
         C           -2.786621481604    -0.040240287146    -0.272629693993    12.000000000000
         C           -1.385554481604    -0.509867287146    -0.515422693993    12.000000000000
         C            3.581315518396    -0.085248287146    -0.412562693993    12.000000000000
         C           -3.514171481604    -0.963999287146     0.701928306007    12.000000000000
         C           -0.278077481604     0.204085712854    -0.241607693993    12.000000000000
         C            2.184939518396     0.415013712854    -0.206011693993    12.000000000000
         C            1.068610518396    -0.292298287146    -0.470019693993    12.000000000000
         C            4.360936518396    -0.173916287146     0.903395306007    12.000000000000
         H           -3.327893481604    -0.043445287146    -1.234837693993     1.007825032230
         H           -1.295049481604    -1.514627287146    -0.931195693993     1.007825032230
         H            3.548016518396    -1.070489287146    -0.892653693993     1.007825032230
         H            4.115608518396     0.582900712854    -1.101171693993     1.007825032230
         H           -2.993585481604    -0.950575287146     1.662522306007     1.007825032230
         H           -4.547695481604    -0.632299287146     0.854451306007     1.007825032230
         H           -3.542669481604    -1.991385287146     0.326509306007     1.007825032230
         H           -0.387647481604     1.205840712854     0.168541306007     1.007825032230
         H            2.082934518396     1.420088712854     0.209204306007     1.007825032230
         H            1.165507518396    -1.298886287146    -0.882559693993     1.007825032230
         H            4.412200518396     0.803581712854     1.392345306007     1.007825032230
         H            5.384819518396    -0.520634287146     0.733511306007     1.007825032230
         H            3.871696518396    -0.868695287146     1.591418306007     1.007825032230
         H           -3.664429181604     1.587321712854     0.386917606007     1.007825032230

  Basis Set: AUG-CC-PVTZ
    Blend: AUG-CC-PVTZ
  Basis Set: (AUG-CC-PVTZ AUX)
    Blend: AUG-CC-PVTZ-JKFIT
	 Reference Energy          =    -386.0607383690278880 [Eh]
	 Singles Energy            =      -0.0000000000000000 [Eh]
	 Same-Spin Energy          =      -0.4005076498865389 [Eh]
	 Opposite-Spin Energy      =      -1.3790386654855675 [Eh]
	 Correlation Energy        =      -1.7795463153721065 [Eh]
	 Total Energy              =    -387.8402846843999896 [Eh]

	 ================> DF-SCS-MP2 Energies <==================
	-----------------------------------------------------------
	 SCS Same-Spin Scale       =       0.3333333333333333 [-]
	 SCS Opposite-Spin Scale   =       1.2000000000000000 [-]
	 SCS Same-Spin Energy      =      -0.1335025499621796 [Eh]
	 SCS Opposite-Spin Energy  =      -1.6548463985826809 [Eh]
	 SCS Correlation Energy    =      -1.7883489485448605 [Eh]
	 SCS Total Energy          =    -387.8490873175727529 [Eh]
	-----------------------------------------------------------

  Dipole Moment: [D]
     X:    -1.2108      Y:    -0.7861      Z:    -0.1410     Total:     1.4505

*** Psi4 exiting successfully. Buy a developer a beer!
