                               Psi4 1.3.2 release

  ==> Input File <==

--------------------------------------------------------------------------
#psi4
#
memory 32 gb

molecule  {
0 1
  O       -2.7848290    -0.9154220    -0.7447340
  C       -2.6952219    -0.0473445     0.3854538
  C       -1.3446020     0.1937550     0.7721520
  C        3.5873700    -0.2293000     0.2222030
  C       -3.4755630     1.2700040     0.0649850
  C       -0.2802220    -0.2946410     0.1124460
  C        2.1660230    -0.5131760    -0.1475910
  C        1.0922740    -0.0266840     0.5021560
  C        4.3244450     0.5343730    -0.8803810
  H       -3.2865450    -0.5271910     1.2335890
  H       -1.1970340     0.8260370     1.6487790
  H        3.6131550     0.3461180     1.1547940
  H        4.1142490    -1.1721620     0.4188690
  H       -2.9813020     1.7413150    -0.7875330
  H       -4.5277090     1.0956620    -0.1864690
  H       -3.4435650     1.9541860     0.9176610
  H       -0.4470010    -0.9272420    -0.7564190
  H        2.0063450    -1.1440610    -1.0244550
  H        1.2471430     0.6066220     1.3780870
  H        4.3142870    -0.0291260    -1.8177910
  H        5.3679410     0.7151030    -0.6066950
  H        3.8442820     1.4990380    -1.0633910
  H       -3.7019899    -1.0891681    -1.0173309
units angstrom
no_reorient  #important for SAPT in psi4, default
symmetry c1  #important for SAPT in psi4, default
}

set PROPERTIES_ORIGIN ["COM"]
properties('MP2/aug-cc-pvtz', properties = ['dipole'])
--------------------------------------------------------------------------

    Molecular point group: c1
  Charge       = 0
  Multiplicity = 1
  Basis Set: AUG-CC-PVTZ
    Blend: AUG-CC-PVTZ
  Basis Set: (AUG-CC-PVTZ AUX)
    Blend: AUG-CC-PVTZ-JKFIT

    Orbital Energies [Eh]
    ---------------------

    Doubly Occupied:

       1A    -20.555079     2A    -11.288422     3A    -11.227026
       4A    -11.224622     5A    -11.223946     6A    -11.223677
       7A    -11.220677     8A    -11.220621     9A    -11.213449
      10A     -1.356557    11A     -1.101851    12A     -1.066954
      13A     -1.013712    14A     -0.961329    15A     -0.881851
      16A     -0.829321    17A     -0.753811    18A     -0.752163
      19A     -0.690299    20A     -0.642782    21A     -0.626918
      22A     -0.611651    23A     -0.591715    24A     -0.584806
      25A     -0.545186    26A     -0.538866    27A     -0.531417
      28A     -0.520417    29A     -0.505541    30A     -0.487680
      31A     -0.480180    32A     -0.472665    33A     -0.448456
      34A     -0.413449    35A     -0.296539

  @DF-RHF Final Energy:  -386.05557545696485

   => Energetics <=

    Nuclear Repulsion Energy =            418.8926238064553331
    One-Electron Energy =               -1353.6891286295337977
    Two-Electron Energy =                 548.7409293661136189
    Total Energy =                       -386.0555754569649025
  Basis Set: (AUG-CC-PVTZ AUX)
    Blend: AUG-CC-PVTZ-RI
    Molecular point group: c1

    Geometry (in Angstrom), charge = 0, multiplicity = 1:

       Center              X                  Y                   Z               Mass
    ------------   -----------------  -----------------  -----------------  -----------------
         O           -2.792058783870    -0.914845903777    -0.744360075520    15.994914619570
         C           -2.702451683870    -0.046768403777     0.385827724480    12.000000000000
         C           -1.351831783870     0.194331096223     0.772525924480    12.000000000000
         C            3.580140216130    -0.228723903777     0.222576924480    12.000000000000
         C           -3.482792783870     1.270580096223     0.065358924480    12.000000000000
         C           -0.287451783870    -0.294064903777     0.112819924480    12.000000000000
         C            2.158793216130    -0.512599903777    -0.147217075520    12.000000000000
         C            1.085044216130    -0.026107903777     0.502529924480    12.000000000000
         C            4.317215216130     0.534949096223    -0.880007075520    12.000000000000
         H           -3.293774783870    -0.526614903777     1.233962924480     1.007825032230
         H           -1.204263783870     0.826613096223     1.649152924480     1.007825032230
         H            3.605925216130     0.346694096223     1.155167924480     1.007825032230
         H            4.107019216130    -1.171585903777     0.419242924480     1.007825032230
         H           -2.988531783870     1.741891096223    -0.787159075520     1.007825032230
         H           -4.534938783870     1.096238096223    -0.186095075520     1.007825032230
         H           -3.450794783870     1.954762096223     0.918034924480     1.007825032230
         H           -0.454230783870    -0.926665903777    -0.756045075520     1.007825032230
         H            1.999115216130    -1.143484903777    -1.024081075520     1.007825032230
         H            1.239913216130     0.607198096223     1.378460924480     1.007825032230
         H            4.307057216130    -0.028549903777    -1.817417075520     1.007825032230
         H            5.360711216130     0.715679096223    -0.606321075520     1.007825032230
         H            3.837052216130     1.499614096223    -1.063017075520     1.007825032230
         H           -3.709219683870    -1.088592003777    -1.016956975520     1.007825032230

  Basis Set: AUG-CC-PVTZ
    Blend: AUG-CC-PVTZ
  Basis Set: (AUG-CC-PVTZ AUX)
    Blend: AUG-CC-PVTZ-JKFIT
	 Reference Energy          =    -386.0555754569648457 [Eh]
	 Singles Energy            =      -0.0000000000000000 [Eh]
	 Same-Spin Energy          =      -0.4008569161457454 [Eh]
	 Opposite-Spin Energy      =      -1.3785383414562022 [Eh]
	 Correlation Energy        =      -1.7793952576019476 [Eh]
	 Total Energy              =    -387.8349707145667935 [Eh]

	 ================> DF-SCS-MP2 Energies <==================
	-----------------------------------------------------------
	 SCS Same-Spin Scale       =       0.3333333333333333 [-]
	 SCS Opposite-Spin Scale   =       1.2000000000000000 [-]
	 SCS Same-Spin Energy      =      -0.1336189720485818 [Eh]
	 SCS Opposite-Spin Energy  =      -1.6542460097474427 [Eh]
	 SCS Correlation Energy    =      -1.7878649817960246 [Eh]
	 SCS Total Energy          =    -387.8434404387608652 [Eh]
	-----------------------------------------------------------

  Dipole Moment: [D]
     X:    -1.0324      Y:     0.5852      Z:     0.5363     Total:     1.3022

*** Psi4 exiting successfully. Buy a developer a beer!
