                               Psi4 1.3.2 release

  ==> Input File <==

--------------------------------------------------------------------------
#psi4
#
memory 32 gb

molecule  {
0 1
  O       -2.7848290    -0.9154220    -0.7447340
  C       -2.7698910    -0.0438090     0.3861860
  C       -1.3446020     0.1937550     0.7721520
  C        3.5832501    -0.2221177     0.2322946
  C       -3.4755630     1.2700040     0.0649850
  C       -0.2802220    -0.2946410     0.1124460
  C        2.1660230    -0.5131760    -0.1475910
  C        1.0922740    -0.0266840     0.5021560
  C        4.3244450     0.5343730    -0.8803810
  H       -3.2865450    -0.5271910     1.2335890
  H       -1.1970340     0.8260370     1.6487790
  H        3.6131550     0.3461180     1.1547940
  H        4.1142490    -1.1721620     0.4188690
  H       -2.9813020     1.7413150    -0.7875330
  H       -4.5277090     1.0956620    -0.1864690
  H       -3.4435650     1.9541860     0.9176610
  H       -0.4470010    -0.9272420    -0.7564190
  H        1.9969249    -1.1433068    -1.0232304
  H        1.2471430     0.6066220     1.3780870
  H        4.3142870    -0.0291260    -1.8177910
  H        5.3679410     0.7151030    -0.6066950
  H        3.8442820     1.4990380    -1.0633910
  H       -3.7175750    -1.0591810    -0.9792530
units angstrom
no_reorient  #important for SAPT in psi4, default
symmetry c1  #important for SAPT in psi4, default
}

set PROPERTIES_ORIGIN ["COM"]
properties('MP2/aug-cc-pvtz', properties = ['dipole'])
--------------------------------------------------------------------------

    Molecular point group: c1
  Charge       = 0
  Multiplicity = 1
  Basis Set: AUG-CC-PVTZ
    Blend: AUG-CC-PVTZ
  Basis Set: (AUG-CC-PVTZ AUX)
    Blend: AUG-CC-PVTZ-JKFIT

    Orbital Energies [Eh]
    ---------------------

    Doubly Occupied:

       1A    -20.558696     2A    -11.286406     3A    -11.225845
       4A    -11.223489     5A    -11.223215     6A    -11.222698
       7A    -11.221641     8A    -11.220587     9A    -11.213080
      10A     -1.360731    11A     -1.097797    12A     -1.061058
      13A     -1.015722    14A     -0.962177    15A     -0.876550
      16A     -0.828784    17A     -0.752969    18A     -0.747961
      19A     -0.695136    20A     -0.637458    21A     -0.626942
      22A     -0.617312    23A     -0.590527    24A     -0.582545
      25A     -0.546457    26A     -0.543236    27A     -0.527257
      28A     -0.517037    29A     -0.500604    30A     -0.492345
      31A     -0.482360    32A     -0.467914    33A     -0.452785
      34A     -0.417886    35A     -0.297176

  @DF-RHF Final Energy:  -386.06246919100641

   => Energetics <=

    Nuclear Repulsion Energy =            418.2716284575351438
    One-Electron Energy =               -1352.4794297199341599
    Two-Electron Energy =                 548.1453320713925450
    Total Energy =                       -386.0624691910064712
  Basis Set: (AUG-CC-PVTZ AUX)
    Blend: AUG-CC-PVTZ-RI
    Molecular point group: c1

    Geometry (in Angstrom), charge = 0, multiplicity = 1:

       Center              X                  Y                   Z               Mass
    ------------   -----------------  -----------------  -----------------  -----------------
         O           -2.784361444478    -0.916111485068    -0.745704164671    15.994914619570
         C           -2.769423444478    -0.044498485068     0.385215835329    12.000000000000
         C           -1.344134444478     0.193065514932     0.771181835329    12.000000000000
         C            3.583717655522    -0.222807185068     0.231324435329    12.000000000000
         C           -3.475095444478     1.269314514932     0.064014835329    12.000000000000
         C           -0.279754444478    -0.295330485068     0.111475835329    12.000000000000
         C            2.166490555522    -0.513865485068    -0.148561164671    12.000000000000
         C            1.092741555522    -0.027373485068     0.501185835329    12.000000000000
         C            4.324912555522     0.533683514932    -0.881351164671    12.000000000000
         H           -3.286077444478    -0.527880485068     1.232618835329     1.007825032230
         H           -1.196566444478     0.825347514932     1.647808835329     1.007825032230
         H            3.613622555522     0.345428514932     1.153823835329     1.007825032230
         H            4.114716555522    -1.172851485068     0.417898835329     1.007825032230
         H           -2.980834444478     1.740625514932    -0.788503164671     1.007825032230
         H           -4.527241444478     1.094972514932    -0.187439164671     1.007825032230
         H           -3.443097444478     1.953496514932     0.916690835329     1.007825032230
         H           -0.446533444478    -0.927931485068    -0.757389164671     1.007825032230
         H            1.997392455522    -1.143996285068    -1.024200564671     1.007825032230
         H            1.247610555522     0.605932514932     1.377116835329     1.007825032230
         H            4.314754555522    -0.029815485068    -1.818761164671     1.007825032230
         H            5.368408555522     0.714413514932    -0.607665164671     1.007825032230
         H            3.844749555522     1.498348514932    -1.064361164671     1.007825032230
         H           -3.717107444478    -1.059870485068    -0.980223164671     1.007825032230

  Basis Set: AUG-CC-PVTZ
    Blend: AUG-CC-PVTZ
  Basis Set: (AUG-CC-PVTZ AUX)
    Blend: AUG-CC-PVTZ-JKFIT
	 Reference Energy          =    -386.0624691910064143 [Eh]
	 Singles Energy            =      -0.0000000000000000 [Eh]
	 Same-Spin Energy          =      -0.4003357433422949 [Eh]
	 Opposite-Spin Energy      =      -1.3782714710076869 [Eh]
	 Correlation Energy        =      -1.7786072143499818 [Eh]
	 Total Energy              =    -387.8410764053563753 [Eh]

	 ================> DF-SCS-MP2 Energies <==================
	-----------------------------------------------------------
	 SCS Same-Spin Scale       =       0.3333333333333333 [-]
	 SCS Opposite-Spin Scale   =       1.2000000000000000 [-]
	 SCS Same-Spin Energy      =      -0.1334452477807650 [Eh]
	 SCS Opposite-Spin Energy  =      -1.6539257652092243 [Eh]
	 SCS Correlation Energy    =      -1.7873710129899893 [Eh]
	 SCS Total Energy          =    -387.8498402039963935 [Eh]
	-----------------------------------------------------------

  Dipole Moment: [D]
     X:    -1.1555      Y:     0.6450      Z:     0.5816     Total:     1.4455

*** Psi4 exiting successfully. Buy a developer a beer!
