                               Psi4 1.3.2 release

  ==> Input File <==

--------------------------------------------------------------------------
#psi4
#
memory 32 gb

molecule  {
0 1
  O       -2.7848290    -0.9154220    -0.7447340
  C       -2.7698910    -0.0438090     0.3861860
  C       -1.3446020     0.1937550     0.7721520
  C        3.5873700    -0.2293000     0.2222030
  C       -3.4755630     1.2700040     0.0649850
  C       -0.2802220    -0.2946410     0.1124460
  C        2.1660230    -0.5131760    -0.1475910
  C        1.0922740    -0.0266840     0.5021560
  C        4.3244450     0.5343730    -0.8803810
  H       -3.2865450    -0.5271910     1.2335890
  H       -1.1970340     0.8260370     1.6487790
  H        3.6131550     0.3461180     1.1547940
  H        4.1142490    -1.1721620     0.4188690
  H       -2.9813020     1.7413150    -0.7875330
  H       -4.5277090     1.0956620    -0.1864690
  H       -3.4435650     1.9541860     0.9176610
  H       -0.4470010    -0.9272420    -0.7564190
  H        1.9770992    -1.2596106    -1.1850569
  H        1.2471430     0.6066220     1.3780870
  H        4.3142870    -0.0291260    -1.8177910
  H        5.3679410     0.7151030    -0.6066950
  H        3.8442820     1.4990380    -1.0633910
  H       -3.7175750    -1.0591810    -0.9792530
units angstrom
no_reorient  #important for SAPT in psi4, default
symmetry c1  #important for SAPT in psi4, default
}

set PROPERTIES_ORIGIN ["COM"]
properties('MP2/aug-cc-pvtz', properties = ['dipole'])
--------------------------------------------------------------------------

    Molecular point group: c1
  Charge       = 0
  Multiplicity = 1
  Basis Set: AUG-CC-PVTZ
    Blend: AUG-CC-PVTZ
  Basis Set: (AUG-CC-PVTZ AUX)
    Blend: AUG-CC-PVTZ-JKFIT

    Orbital Energies [Eh]
    ---------------------

    Doubly Occupied:

       1A    -20.558788     2A    -11.286691     3A    -11.247829
       4A    -11.226335     5A    -11.226153     6A    -11.223812
       7A    -11.222185     8A    -11.220800     9A    -11.213210
      10A     -1.360842    11A     -1.096827    12A     -1.060946
      13A     -1.016820    14A     -0.961569    15A     -0.876186
      16A     -0.829587    17A     -0.748857    18A     -0.734749
      19A     -0.692013    20A     -0.635776    21A     -0.625495
      22A     -0.617102    23A     -0.590603    24A     -0.581876
      25A     -0.546061    26A     -0.538637    27A     -0.520623
      28A     -0.519781    29A     -0.501498    30A     -0.492455
      31A     -0.474184    32A     -0.460571    33A     -0.453000
      34A     -0.419335    35A     -0.298899

  @DF-RHF Final Energy:  -386.04138706241213

   => Energetics <=

    Nuclear Repulsion Energy =            417.4638821333230112
    One-Electron Energy =               -1350.8503486258200610
    Two-Electron Energy =                 547.3450794300848656
    Total Energy =                       -386.0413870624121273
  Basis Set: (AUG-CC-PVTZ AUX)
    Blend: AUG-CC-PVTZ-RI
    Molecular point group: c1

    Geometry (in Angstrom), charge = 0, multiplicity = 1:

       Center              X                  Y                   Z               Mass
    ------------   -----------------  -----------------  -----------------  -----------------
         O           -2.784595044163    -0.914498524885    -0.743450541078    15.994914619570
         C           -2.769657044163    -0.042885524885     0.387469458922    12.000000000000
         C           -1.344368044163     0.194678475115     0.773435458922    12.000000000000
         C            3.587603955837    -0.228376524885     0.223486458922    12.000000000000
         C           -3.475329044163     1.270927475115     0.066268458922    12.000000000000
         C           -0.279988044163    -0.293717524885     0.113729458922    12.000000000000
         C            2.166256955837    -0.512252524885    -0.146307541078    12.000000000000
         C            1.092507955837    -0.025760524885     0.503439458922    12.000000000000
         C            4.324678955837     0.535296475115    -0.879097541078    12.000000000000
         H           -3.286311044163    -0.526267524885     1.234872458922     1.007825032230
         H           -1.196800044163     0.826960475115     1.650062458922     1.007825032230
         H            3.613388955837     0.347041475115     1.156077458922     1.007825032230
         H            4.114482955837    -1.171238524885     0.420152458922     1.007825032230
         H           -2.981068044163     1.742238475115    -0.786249541078     1.007825032230
         H           -4.527475044163     1.096585475115    -0.185185541078     1.007825032230
         H           -3.443331044163     1.955109475115     0.918944458922     1.007825032230
         H           -0.446767044163    -0.926318524885    -0.755135541078     1.007825032230
         H            1.977333155837    -1.258687124885    -1.183773441078     1.007825032230
         H            1.247376955837     0.607545475115     1.379370458922     1.007825032230
         H            4.314520955837    -0.028202524885    -1.816507541078     1.007825032230
         H            5.368174955837     0.716026475115    -0.605411541078     1.007825032230
         H            3.844515955837     1.499961475115    -1.062107541078     1.007825032230
         H           -3.717341044163    -1.058257524885    -0.977969541078     1.007825032230

  Basis Set: AUG-CC-PVTZ
    Blend: AUG-CC-PVTZ
  Basis Set: (AUG-CC-PVTZ AUX)
    Blend: AUG-CC-PVTZ-JKFIT
	 Reference Energy          =    -386.0413870624121273 [Eh]
	 Singles Energy            =      -0.0000000000000000 [Eh]
	 Same-Spin Energy          =      -0.4008197001946466 [Eh]
	 Opposite-Spin Energy      =      -1.3803077808112103 [Eh]
	 Correlation Energy        =      -1.7811274810058570 [Eh]
	 Total Energy              =    -387.8225145434179808 [Eh]

	 ================> DF-SCS-MP2 Energies <==================
	-----------------------------------------------------------
	 SCS Same-Spin Scale       =       0.3333333333333333 [-]
	 SCS Opposite-Spin Scale   =       1.2000000000000000 [-]
	 SCS Same-Spin Energy      =      -0.1336065667315489 [Eh]
	 SCS Opposite-Spin Energy  =      -1.6563693369734522 [Eh]
	 SCS Correlation Energy    =      -1.7899759037050011 [Eh]
	 SCS Total Energy          =    -387.8313629661171262 [Eh]
	-----------------------------------------------------------

  Dipole Moment: [D]
     X:    -1.1280      Y:     0.7183      Z:     0.6770     Total:     1.4989

*** Psi4 exiting successfully. Buy a developer a beer!
