                               Psi4 1.4a3.dev225

  ==> Input File <==

--------------------------------------------------------------------------
#psi4
#
memory 32 gb

molecule  {
0 1
  O       -2.7624640     1.3159430     0.2248240
  C       -2.8209640    -0.0168770    -0.2887760
  C       -1.4198970    -0.4865040    -0.5315690
  C        3.5469730    -0.0618850    -0.4287090
  C       -3.5485140    -0.9406360     0.6857820
  C       -0.3124200     0.2274490    -0.2577540
  C        2.1319488     0.4450579    -0.2193996
  C        1.0342680    -0.2689350    -0.4861660
  C        4.3265940    -0.1505530     0.8872490
  H       -3.3622360    -0.0200820    -1.2509840
  H       -1.3293920    -1.4912640    -0.9473420
  H        3.5136740    -1.0471260    -0.9088000
  H        4.0812660     0.6062640    -1.1173180
  H       -3.0279280    -0.9272120     1.6463760
  H       -4.5820380    -0.6089360     0.8383050
  H       -3.5770120    -1.9680220     0.3103630
  H       -0.4219900     1.2292040     0.1523950
  H        2.0485920     1.4434520     0.1930580
  H        1.1311650    -1.2755230    -0.8987060
  H        4.3778580     0.8269450     1.3761990
  H        5.3504770    -0.4972710     0.7173650
  H        3.8373540    -0.8453320     1.5752720
  H       -3.6799020     1.6047450     0.3678300
units angstrom
no_reorient  #important for SAPT in psi4, default
symmetry c1  #important for SAPT in psi4, default
}

set PROPERTIES_ORIGIN ["COM"]
properties('MP2/aug-cc-pvtz', properties = ['dipole'])
--------------------------------------------------------------------------

    Molecular point group: c1
  Charge       = 0
  Multiplicity = 1
  Basis Set: AUG-CC-PVTZ
    Blend: AUG-CC-PVTZ
  Basis Set: (AUG-CC-PVTZ AUX)
    Blend: AUG-CC-PVTZ-JKFIT

    Orbital Energies [Eh]
    ---------------------

    Doubly Occupied:

       1A    -20.558749     2A    -11.286897     3A    -11.225191
       4A    -11.224271     5A    -11.223826     6A    -11.222561
       7A    -11.221948     8A    -11.220887     9A    -11.212900
      10A     -1.360062    11A     -1.097382    12A     -1.059156
      13A     -1.015429    14A     -0.963115    15A     -0.875038
      16A     -0.827826    17A     -0.753454    18A     -0.747930
      19A     -0.695040    20A     -0.637073    21A     -0.626218
      22A     -0.616499    23A     -0.589286    24A     -0.582808
      25A     -0.546728    26A     -0.544059    27A     -0.528487
      28A     -0.517154    29A     -0.500535    30A     -0.491880
      31A     -0.480127    32A     -0.464626    33A     -0.452806
      34A     -0.419314    35A     -0.298992

  @DF-RHF Final Energy:  -386.06267283415616

   => Energetics <=

    Nuclear Repulsion Energy =            417.7780451217328164
    One-Electron Energy =               -1351.5049261112108070
    Two-Electron Energy =                 547.6642081553218304
    Total Energy =                       -386.0626728341561602
  Basis Set: (AUG-CC-PVTZ AUX)
    Blend: AUG-CC-PVTZ-RI
    Molecular point group: c1

    Geometry (in Angstrom), charge = 0, multiplicity = 1:

       Center              X                  Y                   Z               Mass
    ------------   -----------------  -----------------  -----------------  -----------------
         O           -2.726497740177     1.291991436148     0.240731325696    15.994914619570
         C           -2.784997740177    -0.040828563852    -0.272868674304    12.000000000000
         C           -1.383930740177    -0.510455563852    -0.515661674304    12.000000000000
         C            3.582939259823    -0.085836563852    -0.412801674304    12.000000000000
         C           -3.512547740177    -0.964587563852     0.701689325696    12.000000000000
         C           -0.276453740177     0.203497436148    -0.241846674304    12.000000000000
         C            2.167915059823     0.421106336148    -0.203492274304    12.000000000000
         C            1.070234259823    -0.292886563852    -0.470258674304    12.000000000000
         C            4.362560259823    -0.174504563852     0.903156325696    12.000000000000
         H           -3.326269740177    -0.044033563852    -1.235076674304     1.007825032230
         H           -1.293425740177    -1.515215563852    -0.931434674304     1.007825032230
         H            3.549640259823    -1.071077563852    -0.892892674304     1.007825032230
         H            4.117232259823     0.582312436148    -1.101410674304     1.007825032230
         H           -2.991961740177    -0.951163563852     1.662283325696     1.007825032230
         H           -4.546071740177    -0.632887563852     0.854212325696     1.007825032230
         H           -3.541045740177    -1.991973563852     0.326270325696     1.007825032230
         H           -0.386023740177     1.205252436148     0.168302325696     1.007825032230
         H            2.084558259823     1.419500436148     0.208965325696     1.007825032230
         H            1.167131259823    -1.299474563852    -0.882798674304     1.007825032230
         H            4.413824259823     0.802993436148     1.392106325696     1.007825032230
         H            5.386443259823    -0.521222563852     0.733272325696     1.007825032230
         H            3.873320259823    -0.869283563852     1.591179325696     1.007825032230
         H           -3.643935740177     1.580793436148     0.383737325696     1.007825032230

  Basis Set: AUG-CC-PVTZ
    Blend: AUG-CC-PVTZ
  Basis Set: (AUG-CC-PVTZ AUX)
    Blend: AUG-CC-PVTZ-JKFIT
	 Reference Energy          =    -386.0626728341561602 [Eh]
	 Singles Energy            =      -0.0000000000000000 [Eh]
	 Same-Spin Energy          =      -0.3999564806705082 [Eh]
	 Opposite-Spin Energy      =      -1.3779700299996467 [Eh]
	 Correlation Energy        =      -1.7779265106701549 [Eh]
	 Total Energy              =    -387.8405993448263303 [Eh]

	 ================> DF-SCS-MP2 Energies <==================
	-----------------------------------------------------------
	 SCS Same-Spin Scale       =       0.3333333333333333 [-]
	 SCS Opposite-Spin Scale   =       1.2000000000000000 [-]
	 SCS Same-Spin Energy      =      -0.1333188268901694 [Eh]
	 SCS Opposite-Spin Energy  =      -1.6535640359995760 [Eh]
	 SCS Correlation Energy    =      -1.7868828628897455 [Eh]
	 SCS Total Energy          =    -387.8495556970459006 [Eh]
	-----------------------------------------------------------

  Dipole Moment: [D]
     X:    -1.2106      Y:    -0.7905      Z:    -0.1428     Total:     1.4528

*** Psi4 exiting successfully. Buy a developer a beer!
