                               Psi4 1.3.2 release

  ==> Input File <==

--------------------------------------------------------------------------
#psi4
#
memory 32 gb

molecule  {
0 1
  O       -2.7848290    -0.9154220    -0.7447340
  C       -2.7698910    -0.0438090     0.3861860
  C       -1.3446020     0.1937550     0.7721520
  C        3.5873700    -0.2293000     0.2222030
  C       -3.4755630     1.2700040     0.0649850
  C       -0.2802220    -0.2946410     0.1124460
  C        2.2070246    -0.4798987    -0.1009277
  C        1.0922740    -0.0266840     0.5021560
  C        4.3244450     0.5343730    -0.8803810
  H       -3.2865450    -0.5271910     1.2335890
  H       -1.1970340     0.8260370     1.6487790
  H        3.6131550     0.3461180     1.1547940
  H        4.1142490    -1.1721620     0.4188690
  H       -2.9813020     1.7413150    -0.7875330
  H       -4.5277090     1.0956620    -0.1864690
  H       -3.4435650     1.9541860     0.9176610
  H       -0.4470010    -0.9272420    -0.7564190
  H        2.0063450    -1.1440610    -1.0244550
  H        1.3034966     0.6004729     1.3707038
  H        4.3142870    -0.0291260    -1.8177910
  H        5.3679410     0.7151030    -0.6066950
  H        3.8442820     1.4990380    -1.0633910
  H       -3.7175750    -1.0591810    -0.9792530
units angstrom
no_reorient  #important for SAPT in psi4, default
symmetry c1  #important for SAPT in psi4, default
}

set PROPERTIES_ORIGIN ["COM"]
properties('MP2/aug-cc-pvtz', properties = ['dipole'])
--------------------------------------------------------------------------

    Molecular point group: c1
  Charge       = 0
  Multiplicity = 1
  Basis Set: AUG-CC-PVTZ
    Blend: AUG-CC-PVTZ
  Basis Set: (AUG-CC-PVTZ AUX)
    Blend: AUG-CC-PVTZ-JKFIT

    Orbital Energies [Eh]
    ---------------------

    Doubly Occupied:

       1A    -20.559221     2A    -11.287197     3A    -11.227954
       4A    -11.225649     5A    -11.223811     6A    -11.222651
       7A    -11.221568     8A    -11.221144     9A    -11.214423
      10A     -1.361299    11A     -1.101304    12A     -1.066477
      13A     -1.017479    14A     -0.963273    15A     -0.880886
      16A     -0.832972    17A     -0.750180    18A     -0.741527
      19A     -0.695902    20A     -0.637078    21A     -0.631581
      22A     -0.617759    23A     -0.593488    24A     -0.584928
      25A     -0.546614    26A     -0.540778    27A     -0.526364
      28A     -0.521373    29A     -0.504392    30A     -0.493398
      31A     -0.476742    32A     -0.464729    33A     -0.453383
      34A     -0.417672    35A     -0.297428

  @DF-RHF Final Energy:  -386.05515721676579

   => Energetics <=

    Nuclear Repulsion Energy =            418.5806172834635390
    One-Electron Energy =               -1353.0263023081706706
    Two-Electron Energy =                 548.3905278079413392
    Total Energy =                       -386.0551572167657923
  Basis Set: (AUG-CC-PVTZ AUX)
    Blend: AUG-CC-PVTZ-RI
    Molecular point group: c1

    Geometry (in Angstrom), charge = 0, multiplicity = 1:

       Center              X                  Y                   Z               Mass
    ------------   -----------------  -----------------  -----------------  -----------------
         O           -2.789180832761    -0.918539493317    -0.749115504970    15.994914619570
         C           -2.774242832761    -0.046926493317     0.381804495030    12.000000000000
         C           -1.348953832761     0.190637506683     0.767770495030    12.000000000000
         C            3.583018167239    -0.232417493317     0.217821495030    12.000000000000
         C           -3.479914832761     1.266886506683     0.060603495030    12.000000000000
         C           -0.284573832761    -0.297758493317     0.108064495030    12.000000000000
         C            2.202672767239    -0.483016193317    -0.105309204970    12.000000000000
         C            1.087922167239    -0.029801493317     0.497774495030    12.000000000000
         C            4.320093167239     0.531255506683    -0.884762504970    12.000000000000
         H           -3.290896832761    -0.530308493317     1.229207495030     1.007825032230
         H           -1.201385832761     0.822919506683     1.644397495030     1.007825032230
         H            3.608803167239     0.343000506683     1.150412495030     1.007825032230
         H            4.109897167239    -1.175279493317     0.414487495030     1.007825032230
         H           -2.985653832761     1.738197506683    -0.791914504970     1.007825032230
         H           -4.532060832761     1.092544506683    -0.190850504970     1.007825032230
         H           -3.447916832761     1.951068506683     0.913279495030     1.007825032230
         H           -0.451352832761    -0.930359493317    -0.760800504970     1.007825032230
         H            2.001993167239    -1.147178493317    -1.028836504970     1.007825032230
         H            1.299144767239     0.597355406683     1.366322295030     1.007825032230
         H            4.309935167239    -0.032243493317    -1.822172504970     1.007825032230
         H            5.363589167239     0.711985506683    -0.611076504970     1.007825032230
         H            3.839930167239     1.495920506683    -1.067772504970     1.007825032230
         H           -3.721926832761    -1.062298493317    -0.983634504970     1.007825032230

  Basis Set: AUG-CC-PVTZ
    Blend: AUG-CC-PVTZ
  Basis Set: (AUG-CC-PVTZ AUX)
    Blend: AUG-CC-PVTZ-JKFIT
	 Reference Energy          =    -386.0551572167657923 [Eh]
	 Singles Energy            =      -0.0000000000000000 [Eh]
	 Same-Spin Energy          =      -0.4012088141293221 [Eh]
	 Opposite-Spin Energy      =      -1.3793270023111668 [Eh]
	 Correlation Energy        =      -1.7805358164404890 [Eh]
	 Total Energy              =    -387.8356930332062689 [Eh]

	 ================> DF-SCS-MP2 Energies <==================
	-----------------------------------------------------------
	 SCS Same-Spin Scale       =       0.3333333333333333 [-]
	 SCS Opposite-Spin Scale   =       1.2000000000000000 [-]
	 SCS Same-Spin Energy      =      -0.1337362713764407 [Eh]
	 SCS Opposite-Spin Energy  =      -1.6551924027734002 [Eh]
	 SCS Correlation Energy    =      -1.7889286741498409 [Eh]
	 SCS Total Energy          =    -387.8440858909156077 [Eh]
	-----------------------------------------------------------

  Dipole Moment: [D]
     X:    -1.1264      Y:     0.6723      Z:     0.5995     Total:     1.4423

*** Psi4 exiting successfully. Buy a developer a beer!
