                               Psi4 1.3.2 release

  ==> Input File <==

--------------------------------------------------------------------------
#psi4
#
memory 32 gb

molecule  {
0 1
  O       -2.7848290    -0.9154220    -0.7447340
  C       -2.7698910    -0.0438090     0.3861860
  C       -1.3446020     0.1937550     0.7721520
  C        3.5702350    -0.1996338     0.2616039
  C       -3.4755630     1.2700040     0.0649850
  C       -0.2802220    -0.2946410     0.1124460
  C        2.1660230    -0.5131760    -0.1475910
  C        1.1212555    -0.0043494     0.5316283
  C        4.3244450     0.5343730    -0.8803810
  H       -3.2865450    -0.5271910     1.2335890
  H       -1.1970340     0.8260370     1.6487790
  H        3.6131550     0.3461180     1.1547940
  H        4.1142490    -1.1721620     0.4188690
  H       -2.9813020     1.7413150    -0.7875330
  H       -4.5277090     1.0956620    -0.1864690
  H       -3.4435650     1.9541860     0.9176610
  H       -0.4470010    -0.9272420    -0.7564190
  H        2.0063450    -1.1440610    -1.0244550
  H        1.2471430     0.6066220     1.3780870
  H        4.3142870    -0.0291260    -1.8177910
  H        5.3679410     0.7151030    -0.6066950
  H        3.8442820     1.4990380    -1.0633910
  H       -3.7175750    -1.0591810    -0.9792530
units angstrom
no_reorient  #important for SAPT in psi4, default
symmetry c1  #important for SAPT in psi4, default
}

set PROPERTIES_ORIGIN ["COM"]
properties('MP2/aug-cc-pvtz', properties = ['dipole'])
--------------------------------------------------------------------------

    Molecular point group: c1
  Charge       = 0
  Multiplicity = 1
  Basis Set: AUG-CC-PVTZ
    Blend: AUG-CC-PVTZ
  Basis Set: (AUG-CC-PVTZ AUX)
    Blend: AUG-CC-PVTZ-JKFIT

    Orbital Energies [Eh]
    ---------------------

    Doubly Occupied:

       1A    -20.558240     2A    -11.285559     3A    -11.226373
       4A    -11.224417     5A    -11.221772     6A    -11.221616
       7A    -11.220524     8A    -11.220006     9A    -11.213302
      10A     -1.360221    11A     -1.095294    12A     -1.059991
      13A     -1.011804    14A     -0.960971    15A     -0.873757
      16A     -0.828578    17A     -0.759816    18A     -0.746134
      19A     -0.694511    20A     -0.638934    21A     -0.622437
      22A     -0.617227    23A     -0.593805    24A     -0.577639
      25A     -0.546503    26A     -0.543641    27A     -0.531887
      28A     -0.511696    29A     -0.502350    30A     -0.493856
      31A     -0.490156    32A     -0.460847    33A     -0.451699
      34A     -0.412223    35A     -0.298576

  @DF-RHF Final Energy:  -386.05785438569603

   => Energetics <=

    Nuclear Repulsion Energy =            417.8979656521698303
    One-Electron Energy =               -1351.7589178804012136
    Two-Electron Energy =                 547.8030978425352941
    Total Energy =                       -386.0578543856960323
  Basis Set: (AUG-CC-PVTZ AUX)
    Blend: AUG-CC-PVTZ-RI
    Molecular point group: c1

    Geometry (in Angstrom), charge = 0, multiplicity = 1:

       Center              X                  Y                   Z               Mass
    ------------   -----------------  -----------------  -----------------  -----------------
         O           -2.785956079628    -0.920370350113    -0.751287987710    15.994914619570
         C           -2.771018079628    -0.048757350113     0.379632012290    12.000000000000
         C           -1.345729079628     0.188806649887     0.765598012290    12.000000000000
         C            3.569107920372    -0.204582150113     0.255049912290    12.000000000000
         C           -3.476690079628     1.265055649887     0.058431012290    12.000000000000
         C           -0.281349079628    -0.299589350113     0.105892012290    12.000000000000
         C            2.164895920372    -0.518124350113    -0.154144987710    12.000000000000
         C            1.120128420372    -0.009297750113     0.525074312290    12.000000000000
         C            4.323317920372     0.529424649887    -0.886934987710    12.000000000000
         H           -3.287672079628    -0.532139350113     1.227035012290     1.007825032230
         H           -1.198161079628     0.821088649887     1.642225012290     1.007825032230
         H            3.612027920372     0.341169649887     1.148240012290     1.007825032230
         H            4.113121920372    -1.177110350113     0.412315012290     1.007825032230
         H           -2.982429079628     1.736366649887    -0.794086987710     1.007825032230
         H           -4.528836079628     1.090713649887    -0.193022987710     1.007825032230
         H           -3.444692079628     1.949237649887     0.911107012290     1.007825032230
         H           -0.448128079628    -0.932190350113    -0.762972987710     1.007825032230
         H            2.005217920372    -1.149009350113    -1.031008987710     1.007825032230
         H            1.246015920372     0.601673649887     1.371533012290     1.007825032230
         H            4.313159920372    -0.034074350113    -1.824344987710     1.007825032230
         H            5.366813920372     0.710154649887    -0.613248987710     1.007825032230
         H            3.843154920372     1.494089649887    -1.069944987710     1.007825032230
         H           -3.718702079628    -1.064129350113    -0.985806987710     1.007825032230

  Basis Set: AUG-CC-PVTZ
    Blend: AUG-CC-PVTZ
  Basis Set: (AUG-CC-PVTZ AUX)
    Blend: AUG-CC-PVTZ-JKFIT
	 Reference Energy          =    -386.0578543856960323 [Eh]
	 Singles Energy            =      -0.0000000000000000 [Eh]
	 Same-Spin Energy          =      -0.3998127822284981 [Eh]
	 Opposite-Spin Energy      =      -1.3778845603708905 [Eh]
	 Correlation Energy        =      -1.7776973425993887 [Eh]
	 Total Energy              =    -387.8355517282953997 [Eh]

	 ================> DF-SCS-MP2 Energies <==================
	-----------------------------------------------------------
	 SCS Same-Spin Scale       =       0.3333333333333333 [-]
	 SCS Opposite-Spin Scale   =       1.2000000000000000 [-]
	 SCS Same-Spin Energy      =      -0.1332709274094994 [Eh]
	 SCS Opposite-Spin Energy  =      -1.6534614724450685 [Eh]
	 SCS Correlation Energy    =      -1.7867323998545679 [Eh]
	 SCS Total Energy          =    -387.8445867855505753 [Eh]
	-----------------------------------------------------------

  Dipole Moment: [D]
     X:    -1.1196      Y:     0.6505      Z:     0.5976     Total:     1.4261

*** Psi4 exiting successfully. Buy a developer a beer!
