                               Psi4 1.3.2 release

  ==> Input File <==

--------------------------------------------------------------------------
#psi4
#
memory 32 gb

molecule  {
0 1
  O       -2.7848290    -0.9154220    -0.7447340
  C       -2.7698910    -0.0438090     0.3861860
  C       -1.3328962     0.2254107     0.7014982
  C        3.5873700    -0.2293000     0.2222030
  C       -3.4755630     1.2700040     0.0649850
  C       -0.2802220    -0.2946410     0.1124460
  C        2.1660230    -0.5131760    -0.1475910
  C        1.0922740    -0.0266840     0.5021560
  C        4.3244450     0.5343730    -0.8803810
  H       -3.3348473    -0.5277370     1.2018571
  H       -1.1970340     0.8260370     1.6487790
  H        3.6131550     0.3461180     1.1547940
  H        4.1142490    -1.1721620     0.4188690
  H       -2.9813020     1.7413150    -0.7875330
  H       -4.5277090     1.0956620    -0.1864690
  H       -3.4435650     1.9541860     0.9176610
  H       -0.4470010    -0.9272420    -0.7564190
  H        2.0063450    -1.1440610    -1.0244550
  H        1.2471430     0.6066220     1.3780870
  H        4.3142870    -0.0291260    -1.8177910
  H        5.3679410     0.7151030    -0.6066950
  H        3.8442820     1.4990380    -1.0633910
  H       -3.7175750    -1.0591810    -0.9792530
units angstrom
no_reorient  #important for SAPT in psi4, default
symmetry c1  #important for SAPT in psi4, default
}

set PROPERTIES_ORIGIN ["COM"]
properties('MP2/aug-cc-pvtz', properties = ['dipole'])
--------------------------------------------------------------------------

    Molecular point group: c1
  Charge       = 0
  Multiplicity = 1
  Basis Set: AUG-CC-PVTZ
    Blend: AUG-CC-PVTZ
  Basis Set: (AUG-CC-PVTZ AUX)
    Blend: AUG-CC-PVTZ-JKFIT

    Orbital Energies [Eh]
    ---------------------

    Doubly Occupied:

       1A    -20.556993     2A    -11.286609     3A    -11.226950
       4A    -11.223933     5A    -11.223700     6A    -11.222247
       7A    -11.219118     8A    -11.218758     9A    -11.213302
      10A     -1.360382    11A     -1.100388    12A     -1.062859
      13A     -1.017100    14A     -0.965061    15A     -0.875156
      16A     -0.829989    17A     -0.754099    18A     -0.742006
      19A     -0.697456    20A     -0.637648    21A     -0.630687
      22A     -0.616773    23A     -0.590077    24A     -0.582557
      25A     -0.544302    26A     -0.541852    27A     -0.525813
      28A     -0.518938    29A     -0.496031    30A     -0.495024
      31A     -0.479650    32A     -0.466893    33A     -0.451449
      34A     -0.421141    35A     -0.302542

  @DF-RHF Final Energy:  -386.05892147847720

   => Energetics <=

    Nuclear Repulsion Energy =            418.8149244353365930
    One-Electron Energy =               -1353.5527328540317740
    Two-Electron Energy =                 548.6788869402180353
    Total Energy =                       -386.0589214784771457
  Basis Set: (AUG-CC-PVTZ AUX)
    Blend: AUG-CC-PVTZ-RI
    Molecular point group: c1

    Geometry (in Angstrom), charge = 0, multiplicity = 1:

       Center              X                  Y                   Z               Mass
    ------------   -----------------  -----------------  -----------------  -----------------
         O           -2.785556659457    -0.918429963051    -0.737757109147    15.994914619570
         C           -2.770618659457    -0.046816963051     0.393162890853    12.000000000000
         C           -1.333623859457     0.222402736949     0.708475090853    12.000000000000
         C            3.586642340543    -0.232307963051     0.229179890853    12.000000000000
         C           -3.476290659457     1.266996036949     0.071961890853    12.000000000000
         C           -0.280949659457    -0.297648963051     0.119422890853    12.000000000000
         C            2.165295340543    -0.516183963051    -0.140614109147    12.000000000000
         C            1.091546340543    -0.029691963051     0.509132890853    12.000000000000
         C            4.323717340543     0.531365036949    -0.873404109147    12.000000000000
         H           -3.335574959457    -0.530744963051     1.208833990853     1.007825032230
         H           -1.197761659457     0.823029036949     1.655755890853     1.007825032230
         H            3.612427340543     0.343110036949     1.161770890853     1.007825032230
         H            4.113521340543    -1.175169963051     0.425845890853     1.007825032230
         H           -2.982029659457     1.738307036949    -0.780556109147     1.007825032230
         H           -4.528436659457     1.092654036949    -0.179492109147     1.007825032230
         H           -3.444292659457     1.951178036949     0.924637890853     1.007825032230
         H           -0.447728659457    -0.930249963051    -0.749442109147     1.007825032230
         H            2.005617340543    -1.147068963051    -1.017478109147     1.007825032230
         H            1.246415340543     0.603614036949     1.385063890853     1.007825032230
         H            4.313559340543    -0.032133963051    -1.810814109147     1.007825032230
         H            5.367213340543     0.712095036949    -0.599718109147     1.007825032230
         H            3.843554340543     1.496030036949    -1.056414109147     1.007825032230
         H           -3.718302659457    -1.062188963051    -0.972276109147     1.007825032230

  Basis Set: AUG-CC-PVTZ
    Blend: AUG-CC-PVTZ
  Basis Set: (AUG-CC-PVTZ AUX)
    Blend: AUG-CC-PVTZ-JKFIT
	 Reference Energy          =    -386.0589214784772025 [Eh]
	 Singles Energy            =      -0.0000000000000000 [Eh]
	 Same-Spin Energy          =      -0.4002438192676323 [Eh]
	 Opposite-Spin Energy      =      -1.3781149402884416 [Eh]
	 Correlation Energy        =      -1.7783587595560739 [Eh]
	 Total Energy              =    -387.8372802380332587 [Eh]

	 ================> DF-SCS-MP2 Energies <==================
	-----------------------------------------------------------
	 SCS Same-Spin Scale       =       0.3333333333333333 [-]
	 SCS Opposite-Spin Scale   =       1.2000000000000000 [-]
	 SCS Same-Spin Energy      =      -0.1334146064225441 [Eh]
	 SCS Opposite-Spin Energy  =      -1.6537379283461300 [Eh]
	 SCS Correlation Energy    =      -1.7871525347686741 [Eh]
	 SCS Total Energy          =    -387.8460740132458682 [Eh]
	-----------------------------------------------------------

  Dipole Moment: [D]
     X:    -1.1070      Y:     0.5650      Z:     0.5920     Total:     1.3766

*** Psi4 exiting successfully. Buy a developer a beer!
