                               Psi4 1.3.2 release

  ==> Input File <==

--------------------------------------------------------------------------
#psi4
#
memory 32 gb

molecule  {
0 1
  O       -2.7848290    -0.9154220    -0.7447340
  C       -2.7698910    -0.0438090     0.3861860
  C       -1.3446020     0.1937550     0.7721520
  C        3.5873700    -0.2293000     0.2222030
  C       -3.4755630     1.2700040     0.0649850
  C       -0.2802220    -0.2946410     0.1124460
  C        2.1660230    -0.5131760    -0.1475910
  C        1.0922740    -0.0266840     0.5021560
  C        4.3270739     0.5442048    -0.8717329
  H       -3.2865450    -0.5271910     1.2335890
  H       -1.1970340     0.8260370     1.6487790
  H        3.6181334     0.3529844     1.1503706
  H        4.1142490    -1.1721620     0.4188690
  H       -2.9813020     1.7413150    -0.7875330
  H       -4.5277090     1.0956620    -0.1864690
  H       -3.4435650     1.9541860     0.9176610
  H       -0.4470010    -0.9272420    -0.7564190
  H        2.0063450    -1.1440610    -1.0244550
  H        1.2471430     0.6066220     1.3780870
  H        4.3142870    -0.0291260    -1.8177910
  H        5.3679410     0.7151030    -0.6066950
  H        3.8442820     1.4990380    -1.0633910
  H       -3.7175750    -1.0591810    -0.9792530
units angstrom
no_reorient  #important for SAPT in psi4, default
symmetry c1  #important for SAPT in psi4, default
}

set PROPERTIES_ORIGIN ["COM"]
properties('MP2/aug-cc-pvtz', properties = ['dipole'])
--------------------------------------------------------------------------

    Molecular point group: c1
  Charge       = 0
  Multiplicity = 1
  Basis Set: AUG-CC-PVTZ
    Blend: AUG-CC-PVTZ
  Basis Set: (AUG-CC-PVTZ AUX)
    Blend: AUG-CC-PVTZ-JKFIT

    Orbital Energies [Eh]
    ---------------------

    Doubly Occupied:

       1A    -20.558774     2A    -11.286522     3A    -11.226032
       4A    -11.223753     5A    -11.223250     6A    -11.223072
       7A    -11.221850     8A    -11.220678     9A    -11.212761
      10A     -1.360814    11A     -1.097830    12A     -1.061306
      13A     -1.016177    14A     -0.962575    15A     -0.876676
      16A     -0.828541    17A     -0.752384    18A     -0.748103
      19A     -0.695251    20A     -0.637270    21A     -0.627771
      22A     -0.617342    23A     -0.590749    24A     -0.583023
      25A     -0.546409    26A     -0.543299    27A     -0.526787
      28A     -0.519407    29A     -0.501769    30A     -0.492592
      31A     -0.477046    32A     -0.468493    33A     -0.452922
      34A     -0.418395    35A     -0.297610

  @DF-RHF Final Energy:  -386.06238567409645

   => Energetics <=

    Nuclear Repulsion Energy =            418.2491126906758154
    One-Electron Energy =               -1352.4285274650524116
    Two-Electron Energy =                 548.1170291002802060
    Total Energy =                       -386.0623856740963902
  Basis Set: (AUG-CC-PVTZ AUX)
    Blend: AUG-CC-PVTZ-RI
    Molecular point group: c1

    Geometry (in Angstrom), charge = 0, multiplicity = 1:

       Center              X                  Y                   Z               Mass
    ------------   -----------------  -----------------  -----------------  -----------------
         O           -2.785118727487    -0.916412457980    -0.745521663632    15.994914619570
         C           -2.770180727487    -0.044799457980     0.385398336368    12.000000000000
         C           -1.344891727487     0.192764542020     0.771364336368    12.000000000000
         C            3.587080272513    -0.230290457980     0.221415336368    12.000000000000
         C           -3.475852727487     1.269013542020     0.064197336368    12.000000000000
         C           -0.280511727487    -0.295631457980     0.111658336368    12.000000000000
         C            2.165733272513    -0.514166457980    -0.148378663632    12.000000000000
         C            1.091984272513    -0.027674457980     0.501368336368    12.000000000000
         C            4.326784172513     0.543214342020    -0.872520563632    12.000000000000
         H           -3.286834727487    -0.528181457980     1.232801336368     1.007825032230
         H           -1.197323727487     0.825046542020     1.647991336368     1.007825032230
         H            3.617843672513     0.351993942020     1.149582936368     1.007825032230
         H            4.113959272513    -1.173152457980     0.418081336368     1.007825032230
         H           -2.981591727487     1.740324542020    -0.788320663632     1.007825032230
         H           -4.527998727487     1.094671542020    -0.187256663632     1.007825032230
         H           -3.443854727487     1.953195542020     0.916873336368     1.007825032230
         H           -0.447290727487    -0.928232457980    -0.757206663632     1.007825032230
         H            2.006055272513    -1.145051457980    -1.025242663632     1.007825032230
         H            1.246853272513     0.605631542020     1.377299336368     1.007825032230
         H            4.313997272513    -0.030116457980    -1.818578663632     1.007825032230
         H            5.367651272513     0.714112542020    -0.607482663632     1.007825032230
         H            3.843992272513     1.498047542020    -1.064178663632     1.007825032230
         H           -3.717864727487    -1.060171457980    -0.980040663632     1.007825032230

  Basis Set: AUG-CC-PVTZ
    Blend: AUG-CC-PVTZ
  Basis Set: (AUG-CC-PVTZ AUX)
    Blend: AUG-CC-PVTZ-JKFIT
	 Reference Energy          =    -386.0623856740964470 [Eh]
	 Singles Energy            =      -0.0000000000000000 [Eh]
	 Same-Spin Energy          =      -0.4003411756929455 [Eh]
	 Opposite-Spin Energy      =      -1.3783128708226853 [Eh]
	 Correlation Energy        =      -1.7786540465156309 [Eh]
	 Total Energy              =    -387.8410397206120592 [Eh]

	 ================> DF-SCS-MP2 Energies <==================
	-----------------------------------------------------------
	 SCS Same-Spin Scale       =       0.3333333333333333 [-]
	 SCS Opposite-Spin Scale   =       1.2000000000000000 [-]
	 SCS Same-Spin Energy      =      -0.1334470585643152 [Eh]
	 SCS Opposite-Spin Energy  =      -1.6539754449872224 [Eh]
	 SCS Correlation Energy    =      -1.7874225035515376 [Eh]
	 SCS Total Energy          =    -387.8498081776479580 [Eh]
	-----------------------------------------------------------

  Dipole Moment: [D]
     X:    -1.1660      Y:     0.6480      Z:     0.5837     Total:     1.4561

*** Psi4 exiting successfully. Buy a developer a beer!
