                               Psi4 1.3.2 release

  ==> Input File <==

--------------------------------------------------------------------------
#psi4
#
memory 32 gb

molecule  {
0 1
  O       -2.7848290    -0.9154220    -0.7447340
  C       -2.7617896    -0.0585501     0.3662251
  C       -1.3446020     0.1937550     0.7721520
  C        3.5873700    -0.2293000     0.2222030
  C       -3.4755630     1.2700040     0.0649850
  C       -0.2802220    -0.2946410     0.1124460
  C        2.1660230    -0.5131760    -0.1475910
  C        1.0922740    -0.0266840     0.5021560
  C        4.3244450     0.5343730    -0.8803810
  H       -3.2865450    -0.5271910     1.2335890
  H       -1.1781986     0.8240563     1.6468302
  H        3.6131550     0.3461180     1.1547940
  H        4.1142490    -1.1721620     0.4188690
  H       -2.9813020     1.7413150    -0.7875330
  H       -4.5277090     1.0956620    -0.1864690
  H       -3.4435650     1.9541860     0.9176610
  H       -0.4470010    -0.9272420    -0.7564190
  H        2.0063450    -1.1440610    -1.0244550
  H        1.2471430     0.6066220     1.3780870
  H        4.3142870    -0.0291260    -1.8177910
  H        5.3679410     0.7151030    -0.6066950
  H        3.8442820     1.4990380    -1.0633910
  H       -3.7175750    -1.0591810    -0.9792530
units angstrom
no_reorient  #important for SAPT in psi4, default
symmetry c1  #important for SAPT in psi4, default
}

set PROPERTIES_ORIGIN ["COM"]
properties('MP2/aug-cc-pvtz', properties = ['dipole'])
--------------------------------------------------------------------------

    Molecular point group: c1
  Charge       = 0
  Multiplicity = 1
  Basis Set: AUG-CC-PVTZ
    Blend: AUG-CC-PVTZ
  Basis Set: (AUG-CC-PVTZ AUX)
    Blend: AUG-CC-PVTZ-JKFIT

    Orbital Energies [Eh]
    ---------------------

    Doubly Occupied:

       1A    -20.561818     2A    -11.287352     3A    -11.225605
       4A    -11.223216     5A    -11.222995     6A    -11.222689
       7A    -11.221047     8A    -11.220137     9A    -11.212745
      10A     -1.371193    11A     -1.097652    12A     -1.060461
      13A     -1.014031    14A     -0.961701    15A     -0.876324
      16A     -0.828485    17A     -0.752342    18A     -0.749797
      19A     -0.697252    20A     -0.639960    21A     -0.626614
      22A     -0.619545    23A     -0.591294    24A     -0.583383
      25A     -0.546819    26A     -0.541917    27A     -0.529717
      28A     -0.518897    29A     -0.501801    30A     -0.491846
      31A     -0.478865    32A     -0.467203    33A     -0.451058
      34A     -0.416650    35A     -0.296742

  @DF-RHF Final Energy:  -386.06231580129844

   => Energetics <=

    Nuclear Repulsion Energy =            418.5168352520482813
    One-Electron Energy =               -1352.9399933143211001
    Two-Electron Energy =                 548.3608422609744366
    Total Energy =                       -386.0623158012983822
  Basis Set: (AUG-CC-PVTZ AUX)
    Blend: AUG-CC-PVTZ-RI
    Molecular point group: c1

    Geometry (in Angstrom), charge = 0, multiplicity = 1:

       Center              X                  Y                   Z               Mass
    ------------   -----------------  -----------------  -----------------  -----------------
         O           -2.785750231149    -0.914003414584    -0.742819031049    15.994914619570
         C           -2.762710831149    -0.057131514584     0.368140068951    12.000000000000
         C           -1.345523231149     0.195173585416     0.774066968951    12.000000000000
         C            3.586448768851    -0.227881414584     0.224117968951    12.000000000000
         C           -3.476484231149     1.271422585416     0.066899968951    12.000000000000
         C           -0.281143231149    -0.293222414584     0.114360968951    12.000000000000
         C            2.165101768851    -0.511757414584    -0.145676031049    12.000000000000
         C            1.091352768851    -0.025265414584     0.504070968951    12.000000000000
         C            4.323523768851     0.535791585416    -0.878466031049    12.000000000000
         H           -3.287466231149    -0.525772414584     1.235503968951     1.007825032230
         H           -1.179119831149     0.825474885416     1.648745168951     1.007825032230
         H            3.612233768851     0.347536585416     1.156708968951     1.007825032230
         H            4.113327768851    -1.170743414584     0.420783968951     1.007825032230
         H           -2.982223231149     1.742733585416    -0.785618031049     1.007825032230
         H           -4.528630231149     1.097080585416    -0.184554031049     1.007825032230
         H           -3.444486231149     1.955604585416     0.919575968951     1.007825032230
         H           -0.447922231149    -0.925823414584    -0.754504031049     1.007825032230
         H            2.005423768851    -1.142642414584    -1.022540031049     1.007825032230
         H            1.246221768851     0.608040585416     1.380001968951     1.007825032230
         H            4.313365768851    -0.027707414584    -1.815876031049     1.007825032230
         H            5.367019768851     0.716521585416    -0.604780031049     1.007825032230
         H            3.843360768851     1.500456585416    -1.061476031049     1.007825032230
         H           -3.718496231149    -1.057762414584    -0.977338031049     1.007825032230

  Basis Set: AUG-CC-PVTZ
    Blend: AUG-CC-PVTZ
  Basis Set: (AUG-CC-PVTZ AUX)
    Blend: AUG-CC-PVTZ-JKFIT
	 Reference Energy          =    -386.0623158012984391 [Eh]
	 Singles Energy            =      -0.0000000000000000 [Eh]
	 Same-Spin Energy          =      -0.4003356082870148 [Eh]
	 Opposite-Spin Energy      =      -1.3779049536514445 [Eh]
	 Correlation Energy        =      -1.7782405619384591 [Eh]
	 Total Energy              =    -387.8405563632368853 [Eh]

	 ================> DF-SCS-MP2 Energies <==================
	-----------------------------------------------------------
	 SCS Same-Spin Scale       =       0.3333333333333333 [-]
	 SCS Opposite-Spin Scale   =       1.2000000000000000 [-]
	 SCS Same-Spin Energy      =      -0.1334452027623382 [Eh]
	 SCS Opposite-Spin Energy  =      -1.6534859443817334 [Eh]
	 SCS Correlation Energy    =      -1.7869311471440716 [Eh]
	 SCS Total Energy          =    -387.8492469484424987 [Eh]
	-----------------------------------------------------------

  Dipole Moment: [D]
     X:    -1.1732      Y:     0.5841      Z:     0.5178     Total:     1.4092

*** Psi4 exiting successfully. Buy a developer a beer!
