                               Psi4 1.3.2 release

  ==> Input File <==

--------------------------------------------------------------------------
#psi4
#
memory 32 gb

molecule  {
0 1
  O       -2.7848290    -0.9154220    -0.7447340
  C       -2.7698910    -0.0438090     0.3861860
  C       -1.3446020     0.1937550     0.7721520
  C        3.5873700    -0.2293000     0.2222030
  C       -3.4755630     1.2700040     0.0649850
  C       -0.2802220    -0.2946410     0.1124460
  C        2.1660230    -0.5131760    -0.1475910
  C        1.0993965    -0.0212894     0.5097811
  C        4.3244450     0.5343730    -0.8803810
  H       -3.2865450    -0.5271910     1.2335890
  H       -1.1970340     0.8260370     1.6487790
  H        3.6131550     0.3461180     1.1547940
  H        4.1142490    -1.1721620     0.4188690
  H       -2.9813020     1.7413150    -0.7875330
  H       -4.5277090     1.0956620    -0.1864690
  H       -3.4435650     1.9541860     0.9176610
  H       -0.4470010    -0.9272420    -0.7564190
  H        2.0157770    -1.1449518    -1.0254799
  H        1.2471430     0.6066220     1.3780870
  H        4.3142870    -0.0291260    -1.8177910
  H        5.3679410     0.7151030    -0.6066950
  H        3.8442820     1.4990380    -1.0633910
  H       -3.7175750    -1.0591810    -0.9792530
units angstrom
no_reorient  #important for SAPT in psi4, default
symmetry c1  #important for SAPT in psi4, default
}

set PROPERTIES_ORIGIN ["COM"]
properties('MP2/aug-cc-pvtz', properties = ['dipole'])
--------------------------------------------------------------------------

    Molecular point group: c1
  Charge       = 0
  Multiplicity = 1
  Basis Set: AUG-CC-PVTZ
    Blend: AUG-CC-PVTZ
  Basis Set: (AUG-CC-PVTZ AUX)
    Blend: AUG-CC-PVTZ-JKFIT

    Orbital Energies [Eh]
    ---------------------

    Doubly Occupied:

       1A    -20.558642     2A    -11.286297     3A    -11.226014
       4A    -11.223827     5A    -11.223049     6A    -11.222692
       7A    -11.221757     8A    -11.220516     9A    -11.212746
      10A     -1.360669    11A     -1.097115    12A     -1.061192
      13A     -1.015422    14A     -0.962369    15A     -0.875999
      16A     -0.828423    17A     -0.753256    18A     -0.747866
      19A     -0.695165    20A     -0.637469    21A     -0.626769
      22A     -0.617366    23A     -0.590684    24A     -0.582175
      25A     -0.546479    26A     -0.543644    27A     -0.528578
      28A     -0.518675    29A     -0.501139    30A     -0.492770
      31A     -0.479409    32A     -0.466650    33A     -0.452634
      34A     -0.417140    35A     -0.298042

  @DF-RHF Final Energy:  -386.06265394578560

   => Energetics <=

    Nuclear Repulsion Energy =            418.1725496065417929
    One-Electron Energy =               -1352.2851291355586909
    Two-Electron Energy =                 548.0499255832312429
    Total Energy =                       -386.0626539457856552
  Basis Set: (AUG-CC-PVTZ AUX)
    Blend: AUG-CC-PVTZ-RI
    Molecular point group: c1

    Geometry (in Angstrom), charge = 0, multiplicity = 1:

       Center              X                  Y                   Z               Mass
    ------------   -----------------  -----------------  -----------------  -----------------
         O           -2.785581927973    -0.915928222150    -0.745451476533    15.994914619570
         C           -2.770643927973    -0.044315222150     0.385468523467    12.000000000000
         C           -1.345354927973     0.193248777850     0.771434523467    12.000000000000
         C            3.586617072027    -0.229806222150     0.221485523467    12.000000000000
         C           -3.476315927973     1.269497777850     0.064267523467    12.000000000000
         C           -0.280974927973    -0.295147222150     0.111728523467    12.000000000000
         C            2.165270072027    -0.513682222150    -0.148308476533    12.000000000000
         C            1.098643572027    -0.021795622150     0.509063623467    12.000000000000
         C            4.323692072027     0.533866777850    -0.881098476533    12.000000000000
         H           -3.287297927973    -0.527697222150     1.232871523467     1.007825032230
         H           -1.197786927973     0.825530777850     1.648061523467     1.007825032230
         H            3.612402072027     0.345611777850     1.154076523467     1.007825032230
         H            4.113496072027    -1.172668222150     0.418151523467     1.007825032230
         H           -2.982054927973     1.740808777850    -0.788250476533     1.007825032230
         H           -4.528461927973     1.095155777850    -0.187186476533     1.007825032230
         H           -3.444317927973     1.953679777850     0.916943523467     1.007825032230
         H           -0.447753927973    -0.927748222150    -0.757136476533     1.007825032230
         H            2.015024072027    -1.145458022150    -1.026197376533     1.007825032230
         H            1.246390072027     0.606115777850     1.377369523467     1.007825032230
         H            4.313534072027    -0.029632222150    -1.818508476533     1.007825032230
         H            5.367188072027     0.714596777850    -0.607412476533     1.007825032230
         H            3.843529072027     1.498531777850    -1.064108476533     1.007825032230
         H           -3.718327927973    -1.059687222150    -0.979970476533     1.007825032230

  Basis Set: AUG-CC-PVTZ
    Blend: AUG-CC-PVTZ
  Basis Set: (AUG-CC-PVTZ AUX)
    Blend: AUG-CC-PVTZ-JKFIT
	 Reference Energy          =    -386.0626539457855984 [Eh]
	 Singles Energy            =      -0.0000000000000000 [Eh]
	 Same-Spin Energy          =      -0.4001993220821538 [Eh]
	 Opposite-Spin Energy      =      -1.3781682014863814 [Eh]
	 Correlation Energy        =      -1.7783675235685352 [Eh]
	 Total Energy              =    -387.8410214693541320 [Eh]

	 ================> DF-SCS-MP2 Energies <==================
	-----------------------------------------------------------
	 SCS Same-Spin Scale       =       0.3333333333333333 [-]
	 SCS Opposite-Spin Scale   =       1.2000000000000000 [-]
	 SCS Same-Spin Energy      =      -0.1333997740273846 [Eh]
	 SCS Opposite-Spin Energy  =      -1.6538018417836577 [Eh]
	 SCS Correlation Energy    =      -1.7872016158110424 [Eh]
	 SCS Total Energy          =    -387.8498555615966552 [Eh]
	-----------------------------------------------------------

  Dipole Moment: [D]
     X:    -1.1541      Y:     0.6414      Z:     0.5800     Total:     1.4421

*** Psi4 exiting successfully. Buy a developer a beer!
