                               Psi4 1.3.2 release

  ==> Input File <==

--------------------------------------------------------------------------
#psi4
#
memory 32 gb

molecule  {
0 1
  O       -2.7848290    -0.9154220    -0.7447340
  C       -2.7698910    -0.0438090     0.3861860
  C       -1.3446020     0.1937550     0.7721520
  C        3.5952849    -0.2437289     0.2019361
  C       -3.4755630     1.2700040     0.0649850
  C       -0.2802220    -0.2946410     0.1124460
  C        2.1660230    -0.5131760    -0.1475910
  C        1.0922740    -0.0266840     0.5021560
  C        4.3244450     0.5343730    -0.8803810
  H       -3.2865450    -0.5271910     1.2335890
  H       -1.1970340     0.8260370     1.6487790
  H        3.6131550     0.3461180     1.1547940
  H        4.1142490    -1.1721620     0.4188690
  H       -2.9813020     1.7413150    -0.7875330
  H       -4.5277090     1.0956620    -0.1864690
  H       -3.4435650     1.9541860     0.9176610
  H       -0.4470010    -0.9272420    -0.7564190
  H        2.0252209    -1.1454251    -1.0267037
  H        1.2471430     0.6066220     1.3780870
  H        4.3142870    -0.0291260    -1.8177910
  H        5.3679410     0.7151030    -0.6066950
  H        3.8442820     1.4990380    -1.0633910
  H       -3.7175750    -1.0591810    -0.9792530
units angstrom
no_reorient  #important for SAPT in psi4, default
symmetry c1  #important for SAPT in psi4, default
}

set PROPERTIES_ORIGIN ["COM"]
properties('MP2/aug-cc-pvtz', properties = ['dipole'])
--------------------------------------------------------------------------

    Molecular point group: c1
  Charge       = 0
  Multiplicity = 1
  Basis Set: AUG-CC-PVTZ
    Blend: AUG-CC-PVTZ
  Basis Set: (AUG-CC-PVTZ AUX)
    Blend: AUG-CC-PVTZ-JKFIT

    Orbital Energies [Eh]
    ---------------------

    Doubly Occupied:

       1A    -20.558813     2A    -11.286601     3A    -11.226178
       4A    -11.224180     5A    -11.223566     6A    -11.223349
       7A    -11.222030     8A    -11.220730     9A    -11.212538
      10A     -1.360858    11A     -1.097916    12A     -1.061905
      13A     -1.016953    14A     -0.963060    15A     -0.876961
      16A     -0.828487    17A     -0.751568    18A     -0.748195
      19A     -0.695349    20A     -0.637196    21A     -0.628479
      22A     -0.617372    23A     -0.590697    24A     -0.583074
      25A     -0.546638    26A     -0.544048    27A     -0.527611
      28A     -0.522828    29A     -0.501423    30A     -0.492489
      31A     -0.473011    32A     -0.466797    33A     -0.453016
      34A     -0.418993    35A     -0.298060

  @DF-RHF Final Energy:  -386.06155453954239

   => Energetics <=

    Nuclear Repulsion Energy =            418.2707198846878782
    One-Electron Energy =               -1352.4626086196897177
    Two-Electron Energy =                 548.1303341954594543
    Total Energy =                       -386.0615545395423851
  Basis Set: (AUG-CC-PVTZ AUX)
    Blend: AUG-CC-PVTZ-RI
    Molecular point group: c1

    Geometry (in Angstrom), charge = 0, multiplicity = 1:

       Center              X                  Y                   Z               Mass
    ------------   -----------------  -----------------  -----------------  -----------------
         O           -2.785732807633    -0.914038051144    -0.742787515538    15.994914619570
         C           -2.770794807633    -0.042425051144     0.388132484462    12.000000000000
         C           -1.345505807633     0.195138948856     0.774098484462    12.000000000000
         C            3.594381092367    -0.242344951144     0.203882584462    12.000000000000
         C           -3.476466807633     1.271387948856     0.066931484462    12.000000000000
         C           -0.281125807633    -0.293257051144     0.114392484462    12.000000000000
         C            2.165119192367    -0.511792051144    -0.145644515538    12.000000000000
         C            1.091370192367    -0.025300051144     0.504102484462    12.000000000000
         C            4.323541192367     0.535756948856    -0.878434515538    12.000000000000
         H           -3.287448807633    -0.525807051144     1.235535484462     1.007825032230
         H           -1.197937807633     0.827420948856     1.650725484462     1.007825032230
         H            3.612251192367     0.347501948856     1.156740484462     1.007825032230
         H            4.113345192367    -1.170778051144     0.420815484462     1.007825032230
         H           -2.982205807633     1.742698948856    -0.785586515538     1.007825032230
         H           -4.528612807633     1.097045948856    -0.184522515538     1.007825032230
         H           -3.444468807633     1.955569948856     0.919607484462     1.007825032230
         H           -0.447904807633    -0.925858051144    -0.754472515538     1.007825032230
         H            2.024317092367    -1.144041151144    -1.024757215538     1.007825032230
         H            1.246239192367     0.608005948856     1.380033484462     1.007825032230
         H            4.313383192367    -0.027742051144    -1.815844515538     1.007825032230
         H            5.367037192367     0.716486948856    -0.604748515538     1.007825032230
         H            3.843378192367     1.500421948856    -1.061444515538     1.007825032230
         H           -3.718478807633    -1.057797051144    -0.977306515538     1.007825032230

  Basis Set: AUG-CC-PVTZ
    Blend: AUG-CC-PVTZ
  Basis Set: (AUG-CC-PVTZ AUX)
    Blend: AUG-CC-PVTZ-JKFIT
	 Reference Energy          =    -386.0615545395423851 [Eh]
	 Singles Energy            =      -0.0000000000000000 [Eh]
	 Same-Spin Energy          =      -0.4004042529674737 [Eh]
	 Opposite-Spin Energy      =      -1.3784510721573968 [Eh]
	 Correlation Energy        =      -1.7788553251248707 [Eh]
	 Total Energy              =    -387.8404098646672651 [Eh]

	 ================> DF-SCS-MP2 Energies <==================
	-----------------------------------------------------------
	 SCS Same-Spin Scale       =       0.3333333333333333 [-]
	 SCS Opposite-Spin Scale   =       1.2000000000000000 [-]
	 SCS Same-Spin Energy      =      -0.1334680843224912 [Eh]
	 SCS Opposite-Spin Energy  =      -1.6541412865888760 [Eh]
	 SCS Correlation Energy    =      -1.7876093709113672 [Eh]
	 SCS Total Energy          =    -387.8491639104537398 [Eh]
	-----------------------------------------------------------

  Dipole Moment: [D]
     X:    -1.1706      Y:     0.6361      Z:     0.5673     Total:     1.4480

*** Psi4 exiting successfully. Buy a developer a beer!
