                               Psi4 1.3.2 release

  ==> Input File <==

--------------------------------------------------------------------------
#psi4
#
memory 32 gb

molecule  {
0 1
  O       -2.7848290    -0.9154220    -0.7447340
  C       -2.7698910    -0.0438090     0.3861860
  C       -1.3446020     0.1937550     0.7721520
  C        3.5873700    -0.2293000     0.2222030
  C       -3.4755630     1.2700040     0.0649850
  C       -0.2802220    -0.2946410     0.1124460
  C        2.1660230    -0.5131760    -0.1475910
  C        1.0922740    -0.0266840     0.5021560
  C        4.3244450     0.5343730    -0.8803810
  H       -3.2865450    -0.5271910     1.2335890
  H       -1.1699793     0.9419578     1.8094974
  H        3.6131550     0.3461180     1.1547940
  H        4.1142490    -1.1721620     0.4188690
  H       -2.9813020     1.7413150    -0.7875330
  H       -4.5277090     1.0956620    -0.1864690
  H       -3.4435650     1.9541860     0.9176610
  H       -0.4470010    -0.9272420    -0.7564190
  H        2.0063450    -1.1440610    -1.0244550
  H        1.2471430     0.6066220     1.3780870
  H        4.3142870    -0.0291260    -1.8177910
  H        5.3679410     0.7151030    -0.6066950
  H        3.8442820     1.4990380    -1.0633910
  H       -3.7175750    -1.0591810    -0.9792530
units angstrom
no_reorient  #important for SAPT in psi4, default
symmetry c1  #important for SAPT in psi4, default
}

set PROPERTIES_ORIGIN ["COM"]
properties('MP2/aug-cc-pvtz', properties = ['dipole'])
--------------------------------------------------------------------------

    Molecular point group: c1
  Charge       = 0
  Multiplicity = 1
  Basis Set: AUG-CC-PVTZ
    Blend: AUG-CC-PVTZ
  Basis Set: (AUG-CC-PVTZ AUX)
    Blend: AUG-CC-PVTZ-JKFIT

    Orbital Energies [Eh]
    ---------------------

    Doubly Occupied:

       1A    -20.560721     2A    -11.289246     3A    -11.244929
       4A    -11.226385     5A    -11.225376     6A    -11.223572
       7A    -11.223355     8A    -11.220641     9A    -11.213072
      10A     -1.362800    11A     -1.097262    12A     -1.059625
      13A     -1.016775    14A     -0.961423    15A     -0.876531
      16A     -0.829474    17A     -0.752787    18A     -0.729143
      19A     -0.695908    20A     -0.638404    21A     -0.626126
      22A     -0.618273    23A     -0.589353    24A     -0.577509
      25A     -0.545737    26A     -0.536973    27A     -0.526245
      28A     -0.516973    29A     -0.493737    30A     -0.490586
      31A     -0.479000    32A     -0.465257    33A     -0.454429
      34A     -0.419423    35A     -0.298921

  @DF-RHF Final Energy:  -386.04112262937701

   => Energetics <=

    Nuclear Repulsion Energy =            417.3973841955364037
    One-Electron Energy =               -1350.7050740472095640
    Two-Electron Energy =                 547.2665672222960893
    Total Energy =                       -386.0411226293770142
  Basis Set: (AUG-CC-PVTZ AUX)
    Blend: AUG-CC-PVTZ-RI
    Molecular point group: c1

    Geometry (in Angstrom), charge = 0, multiplicity = 1:

       Center              X                  Y                   Z               Mass
    ------------   -----------------  -----------------  -----------------  -----------------
         O           -2.785044996932    -0.916348432921    -0.746018528195    15.994914619570
         C           -2.770106996932    -0.044735432921     0.384901471805    12.000000000000
         C           -1.344817996932     0.192828567079     0.770867471805    12.000000000000
         C            3.587154003068    -0.230226432921     0.220918471805    12.000000000000
         C           -3.475778996932     1.269077567079     0.063700471805    12.000000000000
         C           -0.280437996932    -0.295567432921     0.111161471805    12.000000000000
         C            2.165807003068    -0.514102432921    -0.148875528195    12.000000000000
         C            1.092058003068    -0.027610432921     0.500871471805    12.000000000000
         C            4.324229003068     0.533446567079    -0.881665528195    12.000000000000
         H           -3.286760996932    -0.528117432921     1.232304471805     1.007825032230
         H           -1.170195296932     0.941031367079     1.808212871805     1.007825032230
         H            3.612939003068     0.345191567079     1.153509471805     1.007825032230
         H            4.114033003068    -1.173088432921     0.417584471805     1.007825032230
         H           -2.981517996932     1.740388567079    -0.788817528195     1.007825032230
         H           -4.527924996932     1.094735567079    -0.187753528195     1.007825032230
         H           -3.443780996932     1.953259567079     0.916376471805     1.007825032230
         H           -0.447216996932    -0.928168432921    -0.757703528195     1.007825032230
         H            2.006129003068    -1.144987432921    -1.025739528195     1.007825032230
         H            1.246927003068     0.605695567079     1.376802471805     1.007825032230
         H            4.314071003068    -0.030052432921    -1.819075528195     1.007825032230
         H            5.367725003068     0.714176567079    -0.607979528195     1.007825032230
         H            3.844066003068     1.498111567079    -1.064675528195     1.007825032230
         H           -3.717790996932    -1.060107432921    -0.980537528195     1.007825032230

  Basis Set: AUG-CC-PVTZ
    Blend: AUG-CC-PVTZ
  Basis Set: (AUG-CC-PVTZ AUX)
    Blend: AUG-CC-PVTZ-JKFIT
	 Reference Energy          =    -386.0411226293770142 [Eh]
	 Singles Energy            =      -0.0000000000000000 [Eh]
	 Same-Spin Energy          =      -0.4008113678377199 [Eh]
	 Opposite-Spin Energy      =      -1.3803734407430259 [Eh]
	 Correlation Energy        =      -1.7811848085807458 [Eh]
	 Total Energy              =    -387.8223074379577611 [Eh]

	 ================> DF-SCS-MP2 Energies <==================
	-----------------------------------------------------------
	 SCS Same-Spin Scale       =       0.3333333333333333 [-]
	 SCS Opposite-Spin Scale   =       1.2000000000000000 [-]
	 SCS Same-Spin Energy      =      -0.1336037892792399 [Eh]
	 SCS Opposite-Spin Energy  =      -1.6564481288916311 [Eh]
	 SCS Correlation Energy    =      -1.7900519181708709 [Eh]
	 SCS Total Energy          =    -387.8311745475479029 [Eh]
	-----------------------------------------------------------

  Dipole Moment: [D]
     X:    -1.1775      Y:     0.5779      Z:     0.4831     Total:     1.3978

*** Psi4 exiting successfully. Buy a developer a beer!
