                               Psi4 1.3.2 release

  ==> Input File <==

--------------------------------------------------------------------------
#psi4
#
memory 32 gb

molecule  {
0 1
  O       -2.7848290    -0.9154220    -0.7447340
  C       -2.7916094    -0.0002287     0.4475060
  C       -1.3446020     0.1937550     0.7721520
  C        3.5873700    -0.2293000     0.2222030
  C       -3.4755630     1.2700040     0.0649850
  C       -0.2387437    -0.2626247     0.1594184
  C        2.1660230    -0.5131760    -0.1475910
  C        1.0922740    -0.0266840     0.5021560
  C        4.3244450     0.5343730    -0.8803810
  H       -3.2865450    -0.5271910     1.2335890
  H       -1.1970340     0.8260370     1.6487790
  H        3.6131550     0.3461180     1.1547940
  H        4.1142490    -1.1721620     0.4188690
  H       -2.9813020     1.7413150    -0.7875330
  H       -4.5277090     1.0956620    -0.1864690
  H       -3.4435650     1.9541860     0.9176610
  H       -0.4470010    -0.9272420    -0.7564190
  H        2.0063450    -1.1440610    -1.0244550
  H        1.2471430     0.6066220     1.3780870
  H        4.3142870    -0.0291260    -1.8177910
  H        5.3679410     0.7151030    -0.6066950
  H        3.8442820     1.4990380    -1.0633910
  H       -3.7175750    -1.0591810    -0.9792530
units angstrom
no_reorient  #important for SAPT in psi4, default
symmetry c1  #important for SAPT in psi4, default
}

set PROPERTIES_ORIGIN ["COM"]
properties('MP2/aug-cc-pvtz', properties = ['dipole'])
--------------------------------------------------------------------------

    Molecular point group: c1
  Charge       = 0
  Multiplicity = 1
  Basis Set: AUG-CC-PVTZ
    Blend: AUG-CC-PVTZ
  Basis Set: (AUG-CC-PVTZ AUX)
    Blend: AUG-CC-PVTZ-JKFIT

    Orbital Energies [Eh]
    ---------------------

    Doubly Occupied:

       1A    -20.549718     2A    -11.288498     3A    -11.229562
       4A    -11.225851     5A    -11.224895     6A    -11.223528
       7A    -11.222773     8A    -11.220652     9A    -11.214155
      10A     -1.332837    11A     -1.104281    12A     -1.064827
      13A     -1.026165    14A     -0.965217    15A     -0.882254
      16A     -0.831361    17A     -0.759925    18A     -0.736913
      19A     -0.689396    20A     -0.636038    21A     -0.630076
      22A     -0.612444    23A     -0.592376    24A     -0.580806
      25A     -0.550728    26A     -0.543919    27A     -0.519734
      28A     -0.518569    29A     -0.496589    30A     -0.484361
      31A     -0.480916    32A     -0.467180    33A     -0.455949
      34A     -0.429003    35A     -0.296140

  @DF-RHF Final Energy:  -386.04773026443223

   => Energetics <=

    Nuclear Repulsion Energy =            417.8852321613726986
    One-Electron Energy =               -1351.6906482269589560
    Two-Electron Energy =                 547.7576858011540253
    Total Energy =                       -386.0477302644322890
  Basis Set: (AUG-CC-PVTZ AUX)
    Blend: AUG-CC-PVTZ-RI
    Molecular point group: c1

    Geometry (in Angstrom), charge = 0, multiplicity = 1:

       Center              X                  Y                   Z               Mass
    ------------   -----------------  -----------------  -----------------  -----------------
         O           -2.786709112441    -0.922615707562    -0.755039087243    15.994914619570
         C           -2.793489512441    -0.007422407562     0.437200912757    12.000000000000
         C           -1.346482112441     0.186561292438     0.761846912757    12.000000000000
         C            3.585489887559    -0.236493707562     0.211897912757    12.000000000000
         C           -3.477443112441     1.262810292438     0.054679912757    12.000000000000
         C           -0.240623812441    -0.269818407562     0.149113312757    12.000000000000
         C            2.164142887559    -0.520369707562    -0.157896087243    12.000000000000
         C            1.090393887559    -0.033877707562     0.491850912757    12.000000000000
         C            4.322564887559     0.527179292438    -0.890686087243    12.000000000000
         H           -3.288425112441    -0.534384707562     1.223283912757     1.007825032230
         H           -1.198914112441     0.818843292438     1.638473912757     1.007825032230
         H            3.611274887559     0.338924292438     1.144488912757     1.007825032230
         H            4.112368887559    -1.179355707562     0.408563912757     1.007825032230
         H           -2.983182112441     1.734121292438    -0.797838087243     1.007825032230
         H           -4.529589112441     1.088468292438    -0.196774087243     1.007825032230
         H           -3.445445112441     1.946992292438     0.907355912757     1.007825032230
         H           -0.448881112441    -0.934435707562    -0.766724087243     1.007825032230
         H            2.004464887559    -1.151254707562    -1.034760087243     1.007825032230
         H            1.245262887559     0.599428292438     1.367781912757     1.007825032230
         H            4.312406887559    -0.036319707562    -1.828096087243     1.007825032230
         H            5.366060887559     0.707909292438    -0.617000087243     1.007825032230
         H            3.842401887559     1.491844292438    -1.073696087243     1.007825032230
         H           -3.719455112441    -1.066374707562    -0.989558087243     1.007825032230

  Basis Set: AUG-CC-PVTZ
    Blend: AUG-CC-PVTZ
  Basis Set: (AUG-CC-PVTZ AUX)
    Blend: AUG-CC-PVTZ-JKFIT
	 Reference Energy          =    -386.0477302644322322 [Eh]
	 Singles Energy            =      -0.0000000000000000 [Eh]
	 Same-Spin Energy          =      -0.4017732891544066 [Eh]
	 Opposite-Spin Energy      =      -1.3813027171581653 [Eh]
	 Correlation Energy        =      -1.7830760063125719 [Eh]
	 Total Energy              =    -387.8308062707448016 [Eh]

	 ================> DF-SCS-MP2 Energies <==================
	-----------------------------------------------------------
	 SCS Same-Spin Scale       =       0.3333333333333333 [-]
	 SCS Opposite-Spin Scale   =       1.2000000000000000 [-]
	 SCS Same-Spin Energy      =      -0.1339244297181355 [Eh]
	 SCS Opposite-Spin Energy  =      -1.6575632605897983 [Eh]
	 SCS Correlation Energy    =      -1.7914876903079338 [Eh]
	 SCS Total Energy          =    -387.8392179547401497 [Eh]
	-----------------------------------------------------------

  Dipole Moment: [D]
     X:    -1.0742      Y:     0.8160      Z:     0.7325     Total:     1.5350

*** Psi4 exiting successfully. Buy a developer a beer!
