                               Psi4 1.3.2 release

  ==> Input File <==

--------------------------------------------------------------------------
#psi4
#
memory 32 gb

molecule  {
0 1
  O       -2.7848290    -0.9154220    -0.7447340
  C       -2.7823454    -0.0434518     0.3860066
  C       -1.3446020     0.1937550     0.7721520
  C        3.5873700    -0.2293000     0.2222030
  C       -3.4755630     1.2700040     0.0649850
  C       -0.2802220    -0.2946410     0.1124460
  C        2.1660230    -0.5131760    -0.1475910
  C        1.0922740    -0.0266840     0.5021560
  C        4.3244450     0.5343730    -0.8803810
  H       -3.2865450    -0.5271910     1.2335890
  H       -1.1970340     0.8260370     1.6487790
  H        3.6131550     0.3461180     1.1547940
  H        4.1142490    -1.1721620     0.4188690
  H       -2.9813020     1.7413150    -0.7875330
  H       -4.5277090     1.0956620    -0.1864690
  H       -3.4435650     1.9541860     0.9176610
  H       -0.4470010    -0.9272420    -0.7564190
  H        2.0063450    -1.1440610    -1.0244550
  H        1.2471430     0.6066220     1.3780870
  H        4.3142870    -0.0291260    -1.8177910
  H        5.3679410     0.7151030    -0.6066950
  H        3.8442820     1.4990380    -1.0633910
  H       -3.7199250    -1.0541426    -0.9728414
units angstrom
no_reorient  #important for SAPT in psi4, default
symmetry c1  #important for SAPT in psi4, default
}

set PROPERTIES_ORIGIN ["COM"]
properties('MP2/aug-cc-pvtz', properties = ['dipole'])
--------------------------------------------------------------------------

    Molecular point group: c1
  Charge       = 0
  Multiplicity = 1
  Basis Set: AUG-CC-PVTZ
    Blend: AUG-CC-PVTZ
  Basis Set: (AUG-CC-PVTZ AUX)
    Blend: AUG-CC-PVTZ-JKFIT

    Orbital Energies [Eh]
    ---------------------

    Doubly Occupied:

       1A    -20.559368     2A    -11.286317     3A    -11.225730
       4A    -11.223604     5A    -11.223150     6A    -11.222927
       7A    -11.221694     8A    -11.220692     9A    -11.212773
      10A     -1.361549    11A     -1.097292    12A     -1.060521
      13A     -1.016681    14A     -0.962515    15A     -0.875822
      16A     -0.828540    17A     -0.752472    18A     -0.747227
      19A     -0.695885    20A     -0.636800    21A     -0.627460
      22A     -0.618223    23A     -0.590277    24A     -0.582526
      25A     -0.547443    26A     -0.543771    27A     -0.527063
      28A     -0.518680    29A     -0.500382    30A     -0.492383
      31A     -0.478881    32A     -0.466632    33A     -0.453848
      34A     -0.418753    35A     -0.297505

  @DF-RHF Final Energy:  -386.06233827080223

   => Energetics <=

    Nuclear Repulsion Energy =            418.1722043063263072
    One-Electron Energy =               -1352.2783091079948008
    Two-Electron Energy =                 548.0437665308662645
    Total Energy =                       -386.0623382708022291
  Basis Set: (AUG-CC-PVTZ AUX)
    Blend: AUG-CC-PVTZ-RI
    Molecular point group: c1

    Geometry (in Angstrom), charge = 0, multiplicity = 1:

       Center              X                  Y                   Z               Mass
    ------------   -----------------  -----------------  -----------------  -----------------
         O           -2.783624844262    -0.915496253276    -0.744768238956    15.994914619570
         C           -2.781141244262    -0.043526053276     0.385972361044    12.000000000000
         C           -1.343397844262     0.193680746724     0.772117761044    12.000000000000
         C            3.588574155738    -0.229374253276     0.222168761044    12.000000000000
         C           -3.474358844262     1.269929746724     0.064950761044    12.000000000000
         C           -0.279017844262    -0.294715253276     0.112411761044    12.000000000000
         C            2.167227155738    -0.513250253276    -0.147625238956    12.000000000000
         C            1.093478155738    -0.026758253276     0.502121761044    12.000000000000
         C            4.325649155738     0.534298746724    -0.880415238956    12.000000000000
         H           -3.285340844262    -0.527265253276     1.233554761044     1.007825032230
         H           -1.195829844262     0.825962746724     1.648744761044     1.007825032230
         H            3.614359155738     0.346043746724     1.154759761044     1.007825032230
         H            4.115453155738    -1.172236253276     0.418834761044     1.007825032230
         H           -2.980097844262     1.741240746724    -0.787567238956     1.007825032230
         H           -4.526504844262     1.095587746724    -0.186503238956     1.007825032230
         H           -3.442360844262     1.954111746724     0.917626761044     1.007825032230
         H           -0.445796844262    -0.927316253276    -0.756453238956     1.007825032230
         H            2.007549155738    -1.144135253276    -1.024489238956     1.007825032230
         H            1.248347155738     0.606547746724     1.378052761044     1.007825032230
         H            4.315491155738    -0.029200253276    -1.817825238956     1.007825032230
         H            5.369145155738     0.715028746724    -0.606729238956     1.007825032230
         H            3.845486155738     1.498963746724    -1.063425238956     1.007825032230
         H           -3.718720844262    -1.054216853276    -0.972875638956     1.007825032230

  Basis Set: AUG-CC-PVTZ
    Blend: AUG-CC-PVTZ
  Basis Set: (AUG-CC-PVTZ AUX)
    Blend: AUG-CC-PVTZ-JKFIT
	 Reference Energy          =    -386.0623382708022291 [Eh]
	 Singles Energy            =      -0.0000000000000000 [Eh]
	 Same-Spin Energy          =      -0.4003320519202748 [Eh]
	 Opposite-Spin Energy      =      -1.3783753429352938 [Eh]
	 Correlation Energy        =      -1.7787073948555687 [Eh]
	 Total Energy              =    -387.8410456656578162 [Eh]

	 ================> DF-SCS-MP2 Energies <==================
	-----------------------------------------------------------
	 SCS Same-Spin Scale       =       0.3333333333333333 [-]
	 SCS Opposite-Spin Scale   =       1.2000000000000000 [-]
	 SCS Same-Spin Energy      =      -0.1334440173067583 [Eh]
	 SCS Opposite-Spin Energy  =      -1.6540504115223527 [Eh]
	 SCS Correlation Energy    =      -1.7874944288291110 [Eh]
	 SCS Total Energy          =    -387.8498326996313494 [Eh]
	-----------------------------------------------------------

  Dipole Moment: [D]
     X:    -1.1816      Y:     0.6516      Z:     0.5836     Total:     1.4702

*** Psi4 exiting successfully. Buy a developer a beer!
