                               Psi4 1.3.2 release

  ==> Input File <==

--------------------------------------------------------------------------
#psi4
#
memory 32 gb

molecule  {
0 1
  O       -2.7848290    -0.9154220    -0.7447340
  C       -2.7532565    -0.0732143     0.3463879
  C       -1.3446020     0.1937550     0.7721520
  C        3.5873700    -0.2293000     0.2222030
  C       -3.4755630     1.2700040     0.0649850
  C       -0.2802220    -0.2946410     0.1124460
  C        2.1660230    -0.5131760    -0.1475910
  C        1.0922740    -0.0266840     0.5021560
  C        4.3244450     0.5343730    -0.8803810
  H       -3.2865450    -0.5271910     1.2335890
  H       -1.1594138     0.8218836     1.6446149
  H        3.6131550     0.3461180     1.1547940
  H        4.1142490    -1.1721620     0.4188690
  H       -2.9813020     1.7413150    -0.7875330
  H       -4.5277090     1.0956620    -0.1864690
  H       -3.4435650     1.9541860     0.9176610
  H       -0.4470010    -0.9272420    -0.7564190
  H        2.0063450    -1.1440610    -1.0244550
  H        1.2471430     0.6066220     1.3780870
  H        4.3142870    -0.0291260    -1.8177910
  H        5.3679410     0.7151030    -0.6066950
  H        3.8442820     1.4990380    -1.0633910
  H       -3.7175750    -1.0591810    -0.9792530
units angstrom
no_reorient  #important for SAPT in psi4, default
symmetry c1  #important for SAPT in psi4, default
}

set PROPERTIES_ORIGIN ["COM"]
properties('MP2/aug-cc-pvtz', properties = ['dipole'])
--------------------------------------------------------------------------

    Molecular point group: c1
  Charge       = 0
  Multiplicity = 1
  Basis Set: AUG-CC-PVTZ
    Blend: AUG-CC-PVTZ
  Basis Set: (AUG-CC-PVTZ AUX)
    Blend: AUG-CC-PVTZ-JKFIT

    Orbital Energies [Eh]
    ---------------------

    Doubly Occupied:

       1A    -20.564861     2A    -11.288517     3A    -11.225304
       4A    -11.222978     5A    -11.222738     6A    -11.222387
       7A    -11.220270     8A    -11.219648     9A    -11.212627
      10A     -1.382134    11A     -1.097538    12A     -1.059754
      13A     -1.011930    14A     -0.960885    15A     -0.876130
      16A     -0.828579    17A     -0.753364    18A     -0.751005
      19A     -0.699102    20A     -0.643136    21A     -0.625942
      22A     -0.621983    23A     -0.592559    24A     -0.583565
      25A     -0.547266    26A     -0.540822    27A     -0.531777
      28A     -0.518810    29A     -0.502531    30A     -0.491003
      31A     -0.478588    32A     -0.466177    33A     -0.448913
      34A     -0.414682    35A     -0.295975

  @DF-RHF Final Energy:  -386.06046954744448

   => Energetics <=

    Nuclear Repulsion Energy =            418.7713371922862962
    One-Electron Energy =               -1353.4166567870997824
    Two-Electron Energy =                 548.5848500473689455
    Total Energy =                       -386.0604695474445407
  Basis Set: (AUG-CC-PVTZ AUX)
    Blend: AUG-CC-PVTZ-RI
    Molecular point group: c1

    Geometry (in Angstrom), charge = 0, multiplicity = 1:

       Center              X                  Y                   Z               Mass
    ------------   -----------------  -----------------  -----------------  -----------------
         O           -2.786712361963    -0.912590616858    -0.740913634324    15.994914619570
         C           -2.755139861963    -0.070382916858     0.350208265676    12.000000000000
         C           -1.346485361963     0.196586383142     0.775972365676    12.000000000000
         C            3.585486638037    -0.226468616858     0.226023365676    12.000000000000
         C           -3.477446361963     1.272835383142     0.068805365676    12.000000000000
         C           -0.282105361963    -0.291809616858     0.116266365676    12.000000000000
         C            2.164139638037    -0.510344616858    -0.143770634324    12.000000000000
         C            1.090390638037    -0.023852616858     0.505976365676    12.000000000000
         C            4.322561638037     0.537204383142    -0.876560634324    12.000000000000
         H           -3.288428361963    -0.524359616858     1.237409365676     1.007825032230
         H           -1.161297161963     0.824714983142     1.648435265676     1.007825032230
         H            3.611271638037     0.348949383142     1.158614365676     1.007825032230
         H            4.112365638037    -1.169330616858     0.422689365676     1.007825032230
         H           -2.983185361963     1.744146383142    -0.783712634324     1.007825032230
         H           -4.529592361963     1.098493383142    -0.182648634324     1.007825032230
         H           -3.445448361963     1.957017383142     0.921481365676     1.007825032230
         H           -0.448884361963    -0.924410616858    -0.752598634324     1.007825032230
         H            2.004461638037    -1.141229616858    -1.020634634324     1.007825032230
         H            1.245259638037     0.609453383142     1.381907365676     1.007825032230
         H            4.312403638037    -0.026294616858    -1.813970634324     1.007825032230
         H            5.366057638037     0.717934383142    -0.602874634324     1.007825032230
         H            3.842398638037     1.501869383142    -1.059570634324     1.007825032230
         H           -3.719458361963    -1.056349616858    -0.975432634324     1.007825032230

  Basis Set: AUG-CC-PVTZ
    Blend: AUG-CC-PVTZ
  Basis Set: (AUG-CC-PVTZ AUX)
    Blend: AUG-CC-PVTZ-JKFIT
	 Reference Energy          =    -386.0604695474444839 [Eh]
	 Singles Energy            =      -0.0000000000000000 [Eh]
	 Same-Spin Energy          =      -0.4003812756786423 [Eh]
	 Opposite-Spin Energy      =      -1.3776080162718991 [Eh]
	 Correlation Energy        =      -1.7779892919505413 [Eh]
	 Total Energy              =    -387.8384588393950025 [Eh]

	 ================> DF-SCS-MP2 Energies <==================
	-----------------------------------------------------------
	 SCS Same-Spin Scale       =       0.3333333333333333 [-]
	 SCS Opposite-Spin Scale   =       1.2000000000000000 [-]
	 SCS Same-Spin Energy      =      -0.1334604252262141 [Eh]
	 SCS Opposite-Spin Energy  =      -1.6531296195262788 [Eh]
	 SCS Correlation Energy    =      -1.7865900447524929 [Eh]
	 SCS Total Energy          =    -387.8470595921969561 [Eh]
	-----------------------------------------------------------

  Dipole Moment: [D]
     X:    -1.1849      Y:     0.5249      Z:     0.4547     Total:     1.3734

*** Psi4 exiting successfully. Buy a developer a beer!
