                               Psi4 1.3.2 release

  ==> Input File <==

--------------------------------------------------------------------------
#psi4
#
memory 32 gb

molecule  {
0 1
  O       -2.7848290    -0.9154220    -0.7447340
  C       -2.7442660    -0.0867381     0.3259239
  C       -1.3446020     0.1937550     0.7721520
  C        3.5873700    -0.2293000     0.2222030
  C       -3.4755630     1.2700040     0.0649850
  C       -0.3246177    -0.3253187     0.0672818
  C        2.1660230    -0.5131760    -0.1475910
  C        1.0922740    -0.0266840     0.5021560
  C        4.3244450     0.5343730    -0.8803810
  H       -3.2865450    -0.5271910     1.2335890
  H       -1.1970340     0.8260370     1.6487790
  H        3.6131550     0.3461180     1.1547940
  H        4.1142490    -1.1721620     0.4188690
  H       -2.9813020     1.7413150    -0.7875330
  H       -4.5277090     1.0956620    -0.1864690
  H       -3.4435650     1.9541860     0.9176610
  H       -0.4470010    -0.9272420    -0.7564190
  H        2.0063450    -1.1440610    -1.0244550
  H        1.2471430     0.6066220     1.3780870
  H        4.3142870    -0.0291260    -1.8177910
  H        5.3679410     0.7151030    -0.6066950
  H        3.8442820     1.4990380    -1.0633910
  H       -3.7175750    -1.0591810    -0.9792530
units angstrom
no_reorient  #important for SAPT in psi4, default
symmetry c1  #important for SAPT in psi4, default
}

set PROPERTIES_ORIGIN ["COM"]
properties('MP2/aug-cc-pvtz', properties = ['dipole'])
--------------------------------------------------------------------------

    Molecular point group: c1
  Charge       = 0
  Multiplicity = 1
  Basis Set: AUG-CC-PVTZ
    Blend: AUG-CC-PVTZ
  Basis Set: (AUG-CC-PVTZ AUX)
    Blend: AUG-CC-PVTZ-JKFIT

    Orbital Energies [Eh]
    ---------------------

    Doubly Occupied:

       1A    -20.567383     2A    -11.287221     3A    -11.225811
       4A    -11.223547     5A    -11.222316     6A    -11.221531
       7A    -11.220463     8A    -11.218698     9A    -11.211735
      10A     -1.393253    11A     -1.092772    12A     -1.059421
      13A     -1.006161    14A     -0.959714    15A     -0.872657
      16A     -0.827610    17A     -0.764117    18A     -0.747685
      19A     -0.700612    20A     -0.648089    21A     -0.625037
      22A     -0.621178    23A     -0.593796    24A     -0.580219
      25A     -0.550472    26A     -0.543525    27A     -0.532537
      28A     -0.522495    29A     -0.510405    30A     -0.489596
      31A     -0.477515    32A     -0.455219    33A     -0.444613
      34A     -0.406528    35A     -0.298706

  @DF-RHF Final Energy:  -386.05232068436834

   => Energetics <=

    Nuclear Repulsion Energy =            418.7694588168900509
    One-Electron Energy =               -1353.3982801916645258
    Two-Electron Energy =                 548.5765006904061920
    Total Energy =                       -386.0523206843682829
  Basis Set: (AUG-CC-PVTZ AUX)
    Blend: AUG-CC-PVTZ-RI
    Molecular point group: c1

    Geometry (in Angstrom), charge = 0, multiplicity = 1:

       Center              X                  Y                   Z               Mass
    ------------   -----------------  -----------------  -----------------  -----------------
         O           -2.783042571373    -0.908417631396    -0.734701786747    15.994914619570
         C           -2.742479571373    -0.079733731396     0.335956113253    12.000000000000
         C           -1.342815571373     0.200759368604     0.782184213253    12.000000000000
         C            3.589156428627    -0.222295631396     0.232235213253    12.000000000000
         C           -3.473776571373     1.277008368604     0.075017213253    12.000000000000
         C           -0.322831271373    -0.318314331396     0.077314013253    12.000000000000
         C            2.167809428627    -0.506171631396    -0.137558786747    12.000000000000
         C            1.094060428627    -0.019679631396     0.512188213253    12.000000000000
         C            4.326231428627     0.541377368604    -0.870348786747    12.000000000000
         H           -3.284758571373    -0.520186631396     1.243621213253     1.007825032230
         H           -1.195247571373     0.833041368604     1.658811213253     1.007825032230
         H            3.614941428627     0.353122368604     1.164826213253     1.007825032230
         H            4.116035428627    -1.165157631396     0.428901213253     1.007825032230
         H           -2.979515571373     1.748319368604    -0.777500786747     1.007825032230
         H           -4.525922571373     1.102666368604    -0.176436786747     1.007825032230
         H           -3.441778571373     1.961190368604     0.927693213253     1.007825032230
         H           -0.445214571373    -0.920237631396    -0.746386786747     1.007825032230
         H            2.008131428627    -1.137056631396    -1.014422786747     1.007825032230
         H            1.248929428627     0.613626368604     1.388119213253     1.007825032230
         H            4.316073428627    -0.022121631396    -1.807758786747     1.007825032230
         H            5.369727428627     0.722107368604    -0.596662786747     1.007825032230
         H            3.846068428627     1.506042368604    -1.053358786747     1.007825032230
         H           -3.715788571373    -1.052176631396    -0.969220786747     1.007825032230

  Basis Set: AUG-CC-PVTZ
    Blend: AUG-CC-PVTZ
  Basis Set: (AUG-CC-PVTZ AUX)
    Blend: AUG-CC-PVTZ-JKFIT
	 Reference Energy          =    -386.0523206843683397 [Eh]
	 Singles Energy            =      -0.0000000000000000 [Eh]
	 Same-Spin Energy          =      -0.3997997685254484 [Eh]
	 Opposite-Spin Energy      =      -1.3770286031511692 [Eh]
	 Correlation Energy        =      -1.7768283716766176 [Eh]
	 Total Energy              =    -387.8291490560449688 [Eh]

	 ================> DF-SCS-MP2 Energies <==================
	-----------------------------------------------------------
	 SCS Same-Spin Scale       =       0.3333333333333333 [-]
	 SCS Opposite-Spin Scale   =       1.2000000000000000 [-]
	 SCS Same-Spin Energy      =      -0.1332665895084828 [Eh]
	 SCS Opposite-Spin Energy  =      -1.6524343237814030 [Eh]
	 SCS Correlation Energy    =      -1.7857009132898858 [Eh]
	 SCS Total Energy          =    -387.8380215976582122 [Eh]
	-----------------------------------------------------------

  Dipole Moment: [D]
     X:    -1.2385      Y:     0.4681      Z:     0.4044     Total:     1.3844

*** Psi4 exiting successfully. Buy a developer a beer!
