                               Psi4 1.3.2 release

  ==> Input File <==

--------------------------------------------------------------------------
#psi4
#
memory 32 gb

molecule  {
0 1
  O       -2.7848290    -0.9154220    -0.7447340
  C       -2.7698910    -0.0438090     0.3861860
  C       -1.3446020     0.1937550     0.7721520
  C        3.5873700    -0.2293000     0.2222030
  C       -3.4755630     1.2700040     0.0649850
  C       -0.2874247    -0.3000147     0.1049076
  C        2.1660230    -0.5131760    -0.1475910
  C        1.0922740    -0.0266840     0.5021560
  C        4.3244450     0.5343730    -0.8803810
  H       -3.2865450    -0.5271910     1.2335890
  H       -1.2064714     0.8268337     1.6497413
  H        3.6131550     0.3461180     1.1547940
  H        4.1142490    -1.1721620     0.4188690
  H       -2.9813020     1.7413150    -0.7875330
  H       -4.5277090     1.0956620    -0.1864690
  H       -3.4435650     1.9541860     0.9176610
  H       -0.4470010    -0.9272420    -0.7564190
  H        2.0063450    -1.1440610    -1.0244550
  H        1.2471430     0.6066220     1.3780870
  H        4.3142870    -0.0291260    -1.8177910
  H        5.3679410     0.7151030    -0.6066950
  H        3.8442820     1.4990380    -1.0633910
  H       -3.7175750    -1.0591810    -0.9792530
units angstrom
no_reorient  #important for SAPT in psi4, default
symmetry c1  #important for SAPT in psi4, default
}

set PROPERTIES_ORIGIN ["COM"]
properties('MP2/aug-cc-pvtz', properties = ['dipole'])
--------------------------------------------------------------------------

    Molecular point group: c1
  Charge       = 0
  Multiplicity = 1
  Basis Set: AUG-CC-PVTZ
    Blend: AUG-CC-PVTZ
  Basis Set: (AUG-CC-PVTZ AUX)
    Blend: AUG-CC-PVTZ-JKFIT

    Orbital Energies [Eh]
    ---------------------

    Doubly Occupied:

       1A    -20.558623     2A    -11.285983     3A    -11.225635
       4A    -11.223865     5A    -11.223374     6A    -11.222991
       7A    -11.221922     8A    -11.220556     9A    -11.212738
      10A     -1.360694    11A     -1.096968    12A     -1.061332
      13A     -1.015467    14A     -0.962386    15A     -0.876071
      16A     -0.828446    17A     -0.751609    18A     -0.749488
      19A     -0.695059    20A     -0.637638    21A     -0.626809
      22A     -0.617205    23A     -0.590330    24A     -0.582285
      25A     -0.546921    26A     -0.543709    27A     -0.527246
      28A     -0.519152    29A     -0.502588    30A     -0.492521
      31A     -0.478957    32A     -0.466689    33A     -0.452639
      34A     -0.417165    35A     -0.298055

  @DF-RHF Final Energy:  -386.06262182982414

   => Energetics <=

    Nuclear Repulsion Energy =            418.2220988530328896
    One-Electron Energy =               -1352.3832111846229509
    Two-Electron Energy =                 548.0984905017659230
    Total Energy =                       -386.0626218298241383
  Basis Set: (AUG-CC-PVTZ AUX)
    Blend: AUG-CC-PVTZ-RI
    Molecular point group: c1

    Geometry (in Angstrom), charge = 0, multiplicity = 1:

       Center              X                  Y                   Z               Mass
    ------------   -----------------  -----------------  -----------------  -----------------
         O           -2.784067949435    -0.914917005813    -0.744024411679    15.994914619570
         C           -2.769129949435    -0.043304005813     0.386895588321    12.000000000000
         C           -1.343840949435     0.194259994187     0.772861588321    12.000000000000
         C            3.588131050565    -0.228795005813     0.222912588321    12.000000000000
         C           -3.474801949435     1.270508994187     0.065694588321    12.000000000000
         C           -0.286663649435    -0.299509705813     0.105617188321    12.000000000000
         C            2.166784050565    -0.512671005813    -0.146881411679    12.000000000000
         C            1.093035050565    -0.026179005813     0.502865588321    12.000000000000
         C            4.325206050565     0.534877994187    -0.879671411679    12.000000000000
         H           -3.285783949435    -0.526686005813     1.234298588321     1.007825032230
         H           -1.205710349435     0.827338694187     1.650450888321     1.007825032230
         H            3.613916050565     0.346622994187     1.155503588321     1.007825032230
         H            4.115010050565    -1.171657005813     0.419578588321     1.007825032230
         H           -2.980540949435     1.741819994187    -0.786823411679     1.007825032230
         H           -4.526947949435     1.096166994187    -0.185759411679     1.007825032230
         H           -3.442803949435     1.954690994187     0.918370588321     1.007825032230
         H           -0.446239949435    -0.926737005813    -0.755709411679     1.007825032230
         H            2.007106050565    -1.143556005813    -1.023745411679     1.007825032230
         H            1.247904050565     0.607126994187     1.378796588321     1.007825032230
         H            4.315048050565    -0.028621005813    -1.817081411679     1.007825032230
         H            5.368702050565     0.715607994187    -0.605985411679     1.007825032230
         H            3.845043050565     1.499542994187    -1.062681411679     1.007825032230
         H           -3.716813949435    -1.058676005813    -0.978543411679     1.007825032230

  Basis Set: AUG-CC-PVTZ
    Blend: AUG-CC-PVTZ
  Basis Set: (AUG-CC-PVTZ AUX)
    Blend: AUG-CC-PVTZ-JKFIT
	 Reference Energy          =    -386.0626218298241383 [Eh]
	 Singles Energy            =      -0.0000000000000000 [Eh]
	 Same-Spin Energy          =      -0.4002093554901635 [Eh]
	 Opposite-Spin Energy      =      -1.3781859403072272 [Eh]
	 Correlation Energy        =      -1.7783952957973908 [Eh]
	 Total Energy              =    -387.8410171256215335 [Eh]

	 ================> DF-SCS-MP2 Energies <==================
	-----------------------------------------------------------
	 SCS Same-Spin Scale       =       0.3333333333333333 [-]
	 SCS Opposite-Spin Scale   =       1.2000000000000000 [-]
	 SCS Same-Spin Energy      =      -0.1334031184967212 [Eh]
	 SCS Opposite-Spin Energy  =      -1.6538231283686726 [Eh]
	 SCS Correlation Energy    =      -1.7872262468653939 [Eh]
	 SCS Total Energy          =    -387.8498480766895113 [Eh]
	-----------------------------------------------------------

  Dipole Moment: [D]
     X:    -1.1671      Y:     0.6417      Z:     0.5799     Total:     1.4527

*** Psi4 exiting successfully. Buy a developer a beer!
