                               Psi4 1.3.2 release

  ==> Input File <==

--------------------------------------------------------------------------
#psi4
#
memory 32 gb

molecule  {
0 1
  O       -2.7848290    -0.9154220    -0.7447340
  C       -2.7698910    -0.0438090     0.3861860
  C       -1.3446020     0.1937550     0.7721520
  C        3.5873700    -0.2293000     0.2222030
  C       -3.4755630     1.2700040     0.0649850
  C       -0.2010339    -0.3309769     0.0633650
  C        2.1660230    -0.5131760    -0.1475910
  C        1.0922740    -0.0266840     0.5021560
  C        4.3244450     0.5343730    -0.8803810
  H       -3.2865450    -0.5271910     1.2335890
  H       -1.1970340     0.8260370     1.6487790
  H        3.6131550     0.3461180     1.1547940
  H        4.1142490    -1.1721620     0.4188690
  H       -2.9813020     1.7413150    -0.7875330
  H       -4.5277090     1.0956620    -0.1864690
  H       -3.4435650     1.9541860     0.9176610
  H       -0.4470010    -0.9272420    -0.7564190
  H        2.0063450    -1.1440610    -1.0244550
  H        1.2471430     0.6066220     1.3780870
  H        4.3142870    -0.0291260    -1.8177910
  H        5.3679410     0.7151030    -0.6066950
  H        3.8442820     1.4990380    -1.0633910
  H       -3.7175750    -1.0591810    -0.9792530
units angstrom
no_reorient  #important for SAPT in psi4, default
symmetry c1  #important for SAPT in psi4, default
}

set PROPERTIES_ORIGIN ["COM"]
properties('MP2/aug-cc-pvtz', properties = ['dipole'])
--------------------------------------------------------------------------

    Molecular point group: c1
  Charge       = 0
  Multiplicity = 1
  Basis Set: AUG-CC-PVTZ
    Blend: AUG-CC-PVTZ
  Basis Set: (AUG-CC-PVTZ AUX)
    Blend: AUG-CC-PVTZ-JKFIT

    Orbital Energies [Eh]
    ---------------------

    Doubly Occupied:

       1A    -20.558907     2A    -11.286807     3A    -11.234288
       4A    -11.229536     5A    -11.225387     6A    -11.222989
       7A    -11.220931     8A    -11.220354     9A    -11.213064
      10A     -1.360668    11A     -1.100661    12A     -1.054742
      13A     -1.020066    14A     -0.953386    15A     -0.880498
      16A     -0.825116    17A     -0.756205    18A     -0.751937
      19A     -0.696413    20A     -0.640194    21A     -0.625068
      22A     -0.617181    23A     -0.589941    24A     -0.583203
      25A     -0.546207    26A     -0.542167    27A     -0.526599
      28A     -0.517375    29A     -0.510271    30A     -0.492096
      31A     -0.479487    32A     -0.470572    33A     -0.451612
      34A     -0.419547    35A     -0.279061

  @DF-RHF Final Energy:  -386.04353177315619

   => Energetics <=

    Nuclear Repulsion Energy =            417.7551393687447217
    One-Electron Energy =               -1351.3922684506708265
    Two-Electron Energy =                 547.5935973087698585
    Total Energy =                       -386.0435317731562463
  Basis Set: (AUG-CC-PVTZ AUX)
    Blend: AUG-CC-PVTZ-RI
    Molecular point group: c1

    Geometry (in Angstrom), charge = 0, multiplicity = 1:

       Center              X                  Y                   Z               Mass
    ------------   -----------------  -----------------  -----------------  -----------------
         O           -2.792364252404    -0.911964300419    -0.740063560413    15.994914619570
         C           -2.777426252404    -0.040351300419     0.390856439587    12.000000000000
         C           -1.352137252404     0.197212699581     0.776822439587    12.000000000000
         C            3.579834747596    -0.225842300419     0.226873439587    12.000000000000
         C           -3.483098252404     1.273461699581     0.069655439587    12.000000000000
         C           -0.208569152404    -0.327519200419     0.068035439587    12.000000000000
         C            2.158487747596    -0.509718300419    -0.142920560413    12.000000000000
         C            1.084738747596    -0.023226300419     0.506826439587    12.000000000000
         C            4.316909747596     0.537830699581    -0.875710560413    12.000000000000
         H           -3.294080252404    -0.523733300419     1.238259439587     1.007825032230
         H           -1.204569252404     0.829494699581     1.653449439587     1.007825032230
         H            3.605619747596     0.349575699581     1.159464439587     1.007825032230
         H            4.106713747596    -1.168704300419     0.423539439587     1.007825032230
         H           -2.988837252404     1.744772699581    -0.782862560413     1.007825032230
         H           -4.535244252404     1.099119699581    -0.181798560413     1.007825032230
         H           -3.451100252404     1.957643699581     0.922331439587     1.007825032230
         H           -0.454536252404    -0.923784300419    -0.751748560413     1.007825032230
         H            1.998809747596    -1.140603300419    -1.019784560413     1.007825032230
         H            1.239607747596     0.610079699581     1.382757439587     1.007825032230
         H            4.306751747596    -0.025668300419    -1.813120560413     1.007825032230
         H            5.360405747596     0.718560699581    -0.602024560413     1.007825032230
         H            3.836746747596     1.502495699581    -1.058720560413     1.007825032230
         H           -3.725110252404    -1.055723300419    -0.974582560413     1.007825032230

  Basis Set: AUG-CC-PVTZ
    Blend: AUG-CC-PVTZ
  Basis Set: (AUG-CC-PVTZ AUX)
    Blend: AUG-CC-PVTZ-JKFIT
	 Reference Energy          =    -386.0435317731561895 [Eh]
	 Singles Energy            =      -0.0000000000000000 [Eh]
	 Same-Spin Energy          =      -0.4025750778772670 [Eh]
	 Opposite-Spin Energy      =      -1.3822890287665144 [Eh]
	 Correlation Energy        =      -1.7848641066437814 [Eh]
	 Total Energy              =    -387.8283958797999844 [Eh]

	 ================> DF-SCS-MP2 Energies <==================
	-----------------------------------------------------------
	 SCS Same-Spin Scale       =       0.3333333333333333 [-]
	 SCS Opposite-Spin Scale   =       1.2000000000000000 [-]
	 SCS Same-Spin Energy      =      -0.1341916926257557 [Eh]
	 SCS Opposite-Spin Energy  =      -1.6587468345198173 [Eh]
	 SCS Correlation Energy    =      -1.7929385271455729 [Eh]
	 SCS Total Energy          =    -387.8364703003017553 [Eh]
	-----------------------------------------------------------

  Dipole Moment: [D]
     X:    -1.1241      Y:     0.6376      Z:     0.5761     Total:     1.4149

*** Psi4 exiting successfully. Buy a developer a beer!
