                               Psi4 1.3.2 release

  ==> Input File <==

--------------------------------------------------------------------------
#psi4
#
memory 32 gb

molecule  {
0 1
  O       -2.7848290    -0.9154220    -0.7447340
  C       -2.7698910    -0.0438090     0.3861860
  C       -1.3446020     0.1937550     0.7721520
  C        3.5873700    -0.2293000     0.2222030
  C       -3.4755630     1.2700040     0.0649850
  C       -0.2802220    -0.2946410     0.1124460
  C        2.1660230    -0.5131760    -0.1475910
  C        1.0922740    -0.0266840     0.5021560
  C        4.3244450     0.5343730    -0.8803810
  H       -3.2865450    -0.5271910     1.2335890
  H       -1.1970340     0.8260370     1.6487790
  H        3.6131550     0.3461180     1.1547940
  H        4.1142490    -1.1721620     0.4188690
  H       -2.9813020     1.7413150    -0.7875330
  H       -4.5277090     1.0956620    -0.1864690
  H       -3.4435650     1.9541860     0.9176610
  H       -0.4470010    -0.9272420    -0.7564190
  H        2.0355908    -1.0285114    -0.8638531
  H        1.2471430     0.6066220     1.3780870
  H        4.3142870    -0.0291260    -1.8177910
  H        5.3679410     0.7151030    -0.6066950
  H        3.8442820     1.4990380    -1.0633910
  H       -3.7175750    -1.0591810    -0.9792530
units angstrom
no_reorient  #important for SAPT in psi4, default
symmetry c1  #important for SAPT in psi4, default
}

set PROPERTIES_ORIGIN ["COM"]
properties('MP2/aug-cc-pvtz', properties = ['dipole'])
--------------------------------------------------------------------------

    Molecular point group: c1
  Charge       = 0
  Multiplicity = 1
  Basis Set: AUG-CC-PVTZ
    Blend: AUG-CC-PVTZ
  Basis Set: (AUG-CC-PVTZ AUX)
    Blend: AUG-CC-PVTZ-JKFIT

    Orbital Energies [Eh]
    ---------------------

    Doubly Occupied:

       1A    -20.558849     2A    -11.286542     3A    -11.223629
       4A    -11.222362     5A    -11.221694     6A    -11.221053
       7A    -11.220706     8A    -11.212565     9A    -11.200845
      10A     -1.360888    11A     -1.102382    12A     -1.063393
      13A     -1.015836    14A     -0.966145    15A     -0.879515
      16A     -0.828442    17A     -0.784421    18A     -0.748128
      19A     -0.697854    20A     -0.641219    21A     -0.628755
      22A     -0.617720    23A     -0.591799    24A     -0.583904
      25A     -0.553430    26A     -0.545594    27A     -0.530618
      28A     -0.517986    29A     -0.500398    30A     -0.492718
      31A     -0.483295    32A     -0.468378    33A     -0.452932
      34A     -0.417832    35A     -0.296982

  @DF-RHF Final Energy:  -386.02867253123634

   => Energetics <=

    Nuclear Repulsion Energy =            419.2953818217305866
    One-Electron Energy =               -1354.3704911067741250
    Two-Electron Energy =                 549.0464367538071428
    Total Energy =                       -386.0286725312363387
  Basis Set: (AUG-CC-PVTZ AUX)
    Blend: AUG-CC-PVTZ-RI
    Molecular point group: c1

    Geometry (in Angstrom), charge = 0, multiplicity = 1:

       Center              X                  Y                   Z               Mass
    ------------   -----------------  -----------------  -----------------  -----------------
         O           -2.785062508171    -0.916345466296    -0.746017597129    15.994914619570
         C           -2.770124508171    -0.044732466296     0.384902402871    12.000000000000
         C           -1.344835508171     0.192831533704     0.770868402871    12.000000000000
         C            3.587136491829    -0.230223466296     0.220919402871    12.000000000000
         C           -3.475796508171     1.269080533704     0.063701402871    12.000000000000
         C           -0.280455508171    -0.295564466296     0.111162402871    12.000000000000
         C            2.165789491829    -0.514099466296    -0.148874597129    12.000000000000
         C            1.092040491829    -0.027607466296     0.500872402871    12.000000000000
         C            4.324211491829     0.533449533704    -0.881664597129    12.000000000000
         H           -3.286778508171    -0.528114466296     1.232305402871     1.007825032230
         H           -1.197267508171     0.825113533704     1.647495402871     1.007825032230
         H            3.612921491829     0.345194533704     1.153510402871     1.007825032230
         H            4.114015491829    -1.173085466296     0.417585402871     1.007825032230
         H           -2.981535508171     1.740391533704    -0.788816597129     1.007825032230
         H           -4.527942508171     1.094738533704    -0.187752597129     1.007825032230
         H           -3.443798508171     1.953262533704     0.916377402871     1.007825032230
         H           -0.447234508171    -0.928165466296    -0.757702597129     1.007825032230
         H            2.035357291829    -1.029434866296    -0.865136697129     1.007825032230
         H            1.246909491829     0.605698533704     1.376803402871     1.007825032230
         H            4.314053491829    -0.030049466296    -1.819074597129     1.007825032230
         H            5.367707491829     0.714179533704    -0.607978597129     1.007825032230
         H            3.844048491829     1.498114533704    -1.064674597129     1.007825032230
         H           -3.717808508171    -1.060104466296    -0.980536597129     1.007825032230

  Basis Set: AUG-CC-PVTZ
    Blend: AUG-CC-PVTZ
  Basis Set: (AUG-CC-PVTZ AUX)
    Blend: AUG-CC-PVTZ-JKFIT
	 Reference Energy          =    -386.0286725312363387 [Eh]
	 Singles Energy            =      -0.0000000000000000 [Eh]
	 Same-Spin Energy          =      -0.4001344323359232 [Eh]
	 Opposite-Spin Energy      =      -1.3776744770653448 [Eh]
	 Correlation Energy        =      -1.7778089094012679 [Eh]
	 Total Energy              =    -387.8064814406375831 [Eh]

	 ================> DF-SCS-MP2 Energies <==================
	-----------------------------------------------------------
	 SCS Same-Spin Scale       =       0.3333333333333333 [-]
	 SCS Opposite-Spin Scale   =       1.2000000000000000 [-]
	 SCS Same-Spin Energy      =      -0.1333781441119744 [Eh]
	 SCS Opposite-Spin Energy  =      -1.6532093724784138 [Eh]
	 SCS Correlation Energy    =      -1.7865875165903882 [Eh]
	 SCS Total Energy          =    -387.8152600478267118 [Eh]
	-----------------------------------------------------------

  Dipole Moment: [D]
     X:    -1.2033      Y:     0.6034      Z:     0.5259     Total:     1.4452

*** Psi4 exiting successfully. Buy a developer a beer!
