                               Psi4 1.3.2 release

  ==> Input File <==

--------------------------------------------------------------------------
#psi4
#
memory 32 gb

molecule  {
0 1
  O       -2.7848290    -0.9154220    -0.7447340
  C       -2.7698910    -0.0438090     0.3861860
  C       -1.3446020     0.1937550     0.7721520
  C        3.5873700    -0.2293000     0.2222030
  C       -3.4755630     1.2700040     0.0649850
  C       -0.2802220    -0.2946410     0.1124460
  C        2.1660230    -0.5131760    -0.1475910
  C        1.0922740    -0.0266840     0.5021560
  C        4.3244450     0.5343730    -0.8803810
  H       -3.2865450    -0.5271910     1.2335890
  H       -1.1970340     0.8260370     1.6487790
  H        3.6131550     0.3461180     1.1547940
  H        4.1142490    -1.1721620     0.4188690
  H       -2.9813020     1.7413150    -0.7875330
  H       -4.5277090     1.0956620    -0.1864690
  H       -3.4435650     1.9541860     0.9176610
  H       -0.4470010    -0.9272420    -0.7564190
  H        2.0063450    -1.1440610    -1.0244550
  H        1.2755090     0.7226193     1.5385239
  H        4.3142870    -0.0291260    -1.8177910
  H        5.3679410     0.7151030    -0.6066950
  H        3.8442820     1.4990380    -1.0633910
  H       -3.7175750    -1.0591810    -0.9792530
units angstrom
no_reorient  #important for SAPT in psi4, default
symmetry c1  #important for SAPT in psi4, default
}

set PROPERTIES_ORIGIN ["COM"]
properties('MP2/aug-cc-pvtz', properties = ['dipole'])
--------------------------------------------------------------------------

    Molecular point group: c1
  Charge       = 0
  Multiplicity = 1
  Basis Set: AUG-CC-PVTZ
    Blend: AUG-CC-PVTZ
  Basis Set: (AUG-CC-PVTZ AUX)
    Blend: AUG-CC-PVTZ-JKFIT

    Orbital Energies [Eh]
    ---------------------

    Doubly Occupied:

       1A    -20.559417     2A    -11.287074     3A    -11.245736
       4A    -11.227941     5A    -11.225523     6A    -11.223427
       7A    -11.223214     8A    -11.221109     9A    -11.212862
      10A     -1.361482    11A     -1.096286    12A     -1.061914
      13A     -1.015504    14A     -0.962182    15A     -0.876793
      16A     -0.828322    17A     -0.751171    18A     -0.735523
      19A     -0.691848    20A     -0.635915    21A     -0.627898
      22A     -0.616913    23A     -0.587800    24A     -0.578184
      25A     -0.546934    26A     -0.542789    27A     -0.520424
      28A     -0.519435    29A     -0.499107    30A     -0.486695
      31A     -0.478091    32A     -0.461932    33A     -0.453577
      34A     -0.420045    35A     -0.298814

  @DF-RHF Final Energy:  -386.04106601250129

   => Energetics <=

    Nuclear Repulsion Energy =            417.4345334888768662
    One-Electron Energy =               -1350.7874405219272376
    Two-Electron Energy =                 547.3118410205489681
    Total Energy =                       -386.0410660125013464
  Basis Set: (AUG-CC-PVTZ AUX)
    Blend: AUG-CC-PVTZ-RI
    Molecular point group: c1

    Geometry (in Angstrom), charge = 0, multiplicity = 1:

       Center              X                  Y                   Z               Mass
    ------------   -----------------  -----------------  -----------------  -----------------
         O           -2.785055476822    -0.916349044308    -0.746016278451    15.994914619570
         C           -2.770117476822    -0.044736044308     0.384903721549    12.000000000000
         C           -1.344828476822     0.192827955692     0.770869721549    12.000000000000
         C            3.587143523178    -0.230227044308     0.220920721549    12.000000000000
         C           -3.475789476822     1.269076955692     0.063702721549    12.000000000000
         C           -0.280448476822    -0.295568044308     0.111163721549    12.000000000000
         C            2.165796523178    -0.514103044308    -0.148873278451    12.000000000000
         C            1.092047523178    -0.027611044308     0.500873721549    12.000000000000
         C            4.324218523178     0.533445955692    -0.881663278451    12.000000000000
         H           -3.286771476822    -0.528118044308     1.232306721549     1.007825032230
         H           -1.197260476822     0.825109955692     1.647496721549     1.007825032230
         H            3.612928523178     0.345190955692     1.153511721549     1.007825032230
         H            4.114022523178    -1.173089044308     0.417586721549     1.007825032230
         H           -2.981528476822     1.740387955692    -0.788815278451     1.007825032230
         H           -4.527935476822     1.094734955692    -0.187751278451     1.007825032230
         H           -3.443791476822     1.953258955692     0.916378721549     1.007825032230
         H           -0.447227476822    -0.928169044308    -0.757701278451     1.007825032230
         H            2.006118523178    -1.144988044308    -1.025737278451     1.007825032230
         H            1.275282523178     0.721692255692     1.537241621549     1.007825032230
         H            4.314060523178    -0.030053044308    -1.819073278451     1.007825032230
         H            5.367714523178     0.714175955692    -0.607977278451     1.007825032230
         H            3.844055523178     1.498110955692    -1.064673278451     1.007825032230
         H           -3.717801476822    -1.060108044308    -0.980535278451     1.007825032230

  Basis Set: AUG-CC-PVTZ
    Blend: AUG-CC-PVTZ
  Basis Set: (AUG-CC-PVTZ AUX)
    Blend: AUG-CC-PVTZ-JKFIT
	 Reference Energy          =    -386.0410660125012896 [Eh]
	 Singles Energy            =      -0.0000000000000000 [Eh]
	 Same-Spin Energy          =      -0.4009508876855160 [Eh]
	 Opposite-Spin Energy      =      -1.3804609906107916 [Eh]
	 Correlation Energy        =      -1.7814118782963075 [Eh]
	 Total Energy              =    -387.8224778907975860 [Eh]

	 ================> DF-SCS-MP2 Energies <==================
	-----------------------------------------------------------
	 SCS Same-Spin Scale       =       0.3333333333333333 [-]
	 SCS Opposite-Spin Scale   =       1.2000000000000000 [-]
	 SCS Same-Spin Energy      =      -0.1336502958951720 [Eh]
	 SCS Opposite-Spin Energy  =      -1.6565531887329499 [Eh]
	 SCS Correlation Energy    =      -1.7902034846281218 [Eh]
	 SCS Total Energy          =    -387.8312694971294263 [Eh]
	-----------------------------------------------------------

  Dipole Moment: [D]
     X:    -1.2264      Y:     0.5761      Z:     0.4795     Total:     1.4373

*** Psi4 exiting successfully. Buy a developer a beer!
