                               Psi4 1.3.2 release

  ==> Input File <==

--------------------------------------------------------------------------
#psi4
#
memory 32 gb

molecule  {
0 1
  O       -2.7848290    -0.9154220    -0.7447340
  C       -2.7698910    -0.0438090     0.3861860
  C       -1.3446020     0.1937550     0.7721520
  C        3.6098196    -0.2744364     0.1622721
  C       -3.4755630     1.2700040     0.0649850
  C       -0.2802220    -0.2946410     0.1124460
  C        2.1660230    -0.5131760    -0.1475910
  C        1.0512652    -0.0612885     0.4564747
  C        4.3244450     0.5343730    -0.8803810
  H       -3.2865450    -0.5271910     1.2335890
  H       -1.1970340     0.8260370     1.6487790
  H        3.6131550     0.3461180     1.1547940
  H        4.1142490    -1.1721620     0.4188690
  H       -2.9813020     1.7413150    -0.7875330
  H       -4.5277090     1.0956620    -0.1864690
  H       -3.4435650     1.9541860     0.9176610
  H       -0.4470010    -0.9272420    -0.7564190
  H        2.0063450    -1.1440610    -1.0244550
  H        1.2471430     0.6066220     1.3780870
  H        4.3142870    -0.0291260    -1.8177910
  H        5.3679410     0.7151030    -0.6066950
  H        3.8442820     1.4990380    -1.0633910
  H       -3.7175750    -1.0591810    -0.9792530
units angstrom
no_reorient  #important for SAPT in psi4, default
symmetry c1  #important for SAPT in psi4, default
}

set PROPERTIES_ORIGIN ["COM"]
properties('MP2/aug-cc-pvtz', properties = ['dipole'])
--------------------------------------------------------------------------

    Molecular point group: c1
  Charge       = 0
  Multiplicity = 1
  Basis Set: AUG-CC-PVTZ
    Blend: AUG-CC-PVTZ
  Basis Set: (AUG-CC-PVTZ AUX)
    Blend: AUG-CC-PVTZ-JKFIT

    Orbital Energies [Eh]
    ---------------------

    Doubly Occupied:

       1A    -20.559558     2A    -11.287950     3A    -11.227699
       4A    -11.227215     5A    -11.226123     6A    -11.225685
       7A    -11.221680     8A    -11.219855     9A    -11.213036
      10A     -1.361691    11A     -1.103312    12A     -1.064177
      13A     -1.022760    14A     -0.964887    15A     -0.882138
      16A     -0.830060    17A     -0.756104    18A     -0.741825
      19A     -0.694896    20A     -0.638241    21A     -0.632840
      22A     -0.617455    23A     -0.597861    24A     -0.580676
      25A     -0.547436    26A     -0.545407    27A     -0.532747
      28A     -0.522153    29A     -0.502600    30A     -0.486026
      31A     -0.474591    32A     -0.454996    33A     -0.451497
      34A     -0.427241    35A     -0.295912

  @DF-RHF Final Energy:  -386.04766429925371

   => Energetics <=

    Nuclear Repulsion Energy =            418.8626819092175992
    One-Electron Energy =               -1353.5440287665987853
    Two-Electron Energy =                 548.6336825581274752
    Total Energy =                       -386.0476642992537109
  Basis Set: (AUG-CC-PVTZ AUX)
    Blend: AUG-CC-PVTZ-RI
    Molecular point group: c1

    Geometry (in Angstrom), charge = 0, multiplicity = 1:

       Center              X                  Y                   Z               Mass
    ------------   -----------------  -----------------  -----------------  -----------------
         O           -2.783062697544    -0.907833915347    -0.734684096652    15.994914619570
         C           -2.768124697544    -0.036220915347     0.396235903348    12.000000000000
         C           -1.342835697544     0.201343084653     0.782201903348    12.000000000000
         C            3.611585902456    -0.266848315347     0.172322003348    12.000000000000
         C           -3.473796697544     1.277592084653     0.075034903348    12.000000000000
         C           -0.278455697544    -0.287052915347     0.122495903348    12.000000000000
         C            2.167789302456    -0.505587915347    -0.137541096652    12.000000000000
         C            1.053031502456    -0.053700415347     0.466524603348    12.000000000000
         C            4.326211302456     0.541961084653    -0.870331096652    12.000000000000
         H           -3.284778697544    -0.519602915347     1.243638903348     1.007825032230
         H           -1.195267697544     0.833625084653     1.658828903348     1.007825032230
         H            3.614921302456     0.353706084653     1.164843903348     1.007825032230
         H            4.116015302456    -1.164573915347     0.428918903348     1.007825032230
         H           -2.979535697544     1.748903084653    -0.777483096652     1.007825032230
         H           -4.525942697544     1.103250084653    -0.176419096652     1.007825032230
         H           -3.441798697544     1.961774084653     0.927710903348     1.007825032230
         H           -0.445234697544    -0.919653915347    -0.746369096652     1.007825032230
         H            2.008111302456    -1.136472915347    -1.014405096652     1.007825032230
         H            1.248909302456     0.614210084653     1.388136903348     1.007825032230
         H            4.316053302456    -0.021537915347    -1.807741096652     1.007825032230
         H            5.369707302456     0.722691084653    -0.596645096652     1.007825032230
         H            3.846048302456     1.506626084653    -1.053341096652     1.007825032230
         H           -3.715808697544    -1.051592915347    -0.969203096652     1.007825032230

  Basis Set: AUG-CC-PVTZ
    Blend: AUG-CC-PVTZ
  Basis Set: (AUG-CC-PVTZ AUX)
    Blend: AUG-CC-PVTZ-JKFIT
	 Reference Energy          =    -386.0476642992537109 [Eh]
	 Singles Energy            =      -0.0000000000000000 [Eh]
	 Same-Spin Energy          =      -0.4017173613728854 [Eh]
	 Opposite-Spin Energy      =      -1.3802988921860997 [Eh]
	 Correlation Energy        =      -1.7820162535589850 [Eh]
	 Total Energy              =    -387.8296805528127038 [Eh]

	 ================> DF-SCS-MP2 Energies <==================
	-----------------------------------------------------------
	 SCS Same-Spin Scale       =       0.3333333333333333 [-]
	 SCS Opposite-Spin Scale   =       1.2000000000000000 [-]
	 SCS Same-Spin Energy      =      -0.1339057871242951 [Eh]
	 SCS Opposite-Spin Energy  =      -1.6563586706233195 [Eh]
	 SCS Correlation Energy    =      -1.7902644577476146 [Eh]
	 SCS Total Energy          =    -387.8379287570013503 [Eh]
	-----------------------------------------------------------

  Dipole Moment: [D]
     X:    -1.2319      Y:     0.6195      Z:     0.5136     Total:     1.4714

*** Psi4 exiting successfully. Buy a developer a beer!
