                               Psi4 1.3.2 release

  ==> Input File <==

--------------------------------------------------------------------------
#psi4
#
memory 32 gb

molecule  {
0 1
  O       -2.7848290    -0.9154220    -0.7447340
  C       -2.7698910    -0.0438090     0.3861860
  C       -1.3446020     0.1937550     0.7721520
  C        3.5873700    -0.2293000     0.2222030
  C       -3.4755630     1.2700040     0.0649850
  C       -0.2802220    -0.2946410     0.1124460
  C        2.1660230    -0.5131760    -0.1475910
  C        1.1079359    -0.0552319     0.4633322
  C        4.3244450     0.5343730    -0.8803810
  H       -3.2865450    -0.5271910     1.2335890
  H       -1.1970340     0.8260370     1.6487790
  H        3.6131550     0.3461180     1.1547940
  H        4.1142490    -1.1721620     0.4188690
  H       -2.9813020     1.7413150    -0.7875330
  H       -4.5277090     1.0956620    -0.1864690
  H       -3.4435650     1.9541860     0.9176610
  H       -0.4093926    -0.9305874    -0.7603729
  H        2.0063450    -1.1440610    -1.0244550
  H        1.2471430     0.6066220     1.3780870
  H        4.3142870    -0.0291260    -1.8177910
  H        5.3679410     0.7151030    -0.6066950
  H        3.8442820     1.4990380    -1.0633910
  H       -3.7175750    -1.0591810    -0.9792530
units angstrom
no_reorient  #important for SAPT in psi4, default
symmetry c1  #important for SAPT in psi4, default
}

set PROPERTIES_ORIGIN ["COM"]
properties('MP2/aug-cc-pvtz', properties = ['dipole'])
--------------------------------------------------------------------------

    Molecular point group: c1
  Charge       = 0
  Multiplicity = 1
  Basis Set: AUG-CC-PVTZ
    Blend: AUG-CC-PVTZ
  Basis Set: (AUG-CC-PVTZ AUX)
    Blend: AUG-CC-PVTZ-JKFIT

    Orbital Energies [Eh]
    ---------------------

    Doubly Occupied:

       1A    -20.558672     2A    -11.287293     3A    -11.225398
       4A    -11.223654     5A    -11.223278     6A    -11.221552
       7A    -11.221079     8A    -11.219041     9A    -11.213039
      10A     -1.360712    11A     -1.101674    12A     -1.062585
      13A     -1.016938    14A     -0.966769    15A     -0.877218
      16A     -0.830661    17A     -0.753348    18A     -0.743261
      19A     -0.695132    20A     -0.637532    21A     -0.629048
      22A     -0.617237    23A     -0.593053    24A     -0.582291
      25A     -0.546657    26A     -0.543568    27A     -0.525193
      28A     -0.520918    29A     -0.500435    30A     -0.490278
      31A     -0.479342    32A     -0.461247    33A     -0.453185
      34A     -0.421983    35A     -0.304135

  @DF-RHF Final Energy:  -386.06004858782234

   => Energetics <=

    Nuclear Repulsion Energy =            418.6284663668160420
    One-Electron Energy =               -1353.1622213241953432
    Two-Electron Energy =                 548.4737063695570214
    Total Energy =                       -386.0600485878222798
  Basis Set: (AUG-CC-PVTZ AUX)
    Blend: AUG-CC-PVTZ-RI
    Molecular point group: c1

    Geometry (in Angstrom), charge = 0, multiplicity = 1:

       Center              X                  Y                   Z               Mass
    ------------   -----------------  -----------------  -----------------  -----------------
         O           -2.786619715820    -0.912678663880    -0.741008027848    15.994914619570
         C           -2.771681715820    -0.041065663880     0.389911972152    12.000000000000
         C           -1.346392715820     0.196498336120     0.775877972152    12.000000000000
         C            3.585579284180    -0.226556663880     0.225928972152    12.000000000000
         C           -3.477353715820     1.272747336120     0.068710972152    12.000000000000
         C           -0.282012715820    -0.291897663880     0.116171972152    12.000000000000
         C            2.164232284180    -0.510432663880    -0.143865027848    12.000000000000
         C            1.106145184180    -0.052488563880     0.467058172152    12.000000000000
         C            4.322654284180     0.537116336120    -0.876655027848    12.000000000000
         H           -3.288335715820    -0.524447663880     1.237314972152     1.007825032230
         H           -1.198824715820     0.828780336120     1.652504972152     1.007825032230
         H            3.611364284180     0.348861336120     1.158519972152     1.007825032230
         H            4.112458284180    -1.169418663880     0.422594972152     1.007825032230
         H           -2.983092715820     1.744058336120    -0.783807027848     1.007825032230
         H           -4.529499715820     1.098405336120    -0.182743027848     1.007825032230
         H           -3.445355715820     1.956929336120     0.921386972152     1.007825032230
         H           -0.411183315820    -0.927844063880    -0.756646927848     1.007825032230
         H            2.004554284180    -1.141317663880    -1.020729027848     1.007825032230
         H            1.245352284180     0.609365336120     1.381812972152     1.007825032230
         H            4.312496284180    -0.026382663880    -1.814065027848     1.007825032230
         H            5.366150284180     0.717846336120    -0.602969027848     1.007825032230
         H            3.842491284180     1.501781336120    -1.059665027848     1.007825032230
         H           -3.719365715820    -1.056437663880    -0.975527027848     1.007825032230

  Basis Set: AUG-CC-PVTZ
    Blend: AUG-CC-PVTZ
  Basis Set: (AUG-CC-PVTZ AUX)
    Blend: AUG-CC-PVTZ-JKFIT
	 Reference Energy          =    -386.0600485878223367 [Eh]
	 Singles Energy            =      -0.0000000000000000 [Eh]
	 Same-Spin Energy          =      -0.4000223761611570 [Eh]
	 Opposite-Spin Energy      =      -1.3775872745715656 [Eh]
	 Correlation Energy        =      -1.7776096507327226 [Eh]
	 Total Energy              =    -387.8376582385550364 [Eh]

	 ================> DF-SCS-MP2 Energies <==================
	-----------------------------------------------------------
	 SCS Same-Spin Scale       =       0.3333333333333333 [-]
	 SCS Opposite-Spin Scale   =       1.2000000000000000 [-]
	 SCS Same-Spin Energy      =      -0.1333407920537190 [Eh]
	 SCS Opposite-Spin Energy  =      -1.6531047294858787 [Eh]
	 SCS Correlation Energy    =      -1.7864455215395978 [Eh]
	 SCS Total Energy          =    -387.8464941093619132 [Eh]
	-----------------------------------------------------------

  Dipole Moment: [D]
     X:    -1.1700      Y:     0.6334      Z:     0.5562     Total:     1.4420

*** Psi4 exiting successfully. Buy a developer a beer!
