                               Psi4 1.3.2 release

  ==> Input File <==

--------------------------------------------------------------------------
#psi4
#
memory 32 gb

molecule  {
0 1
  O       -2.8096659    -0.8805181    -0.7702085
  C       -2.7698910    -0.0438090     0.3861860
  C       -1.3446020     0.1937550     0.7721520
  C        3.5873700    -0.2293000     0.2222030
  C       -3.4850535     1.2518144     0.0158478
  C       -0.2802220    -0.2946410     0.1124460
  C        2.1660230    -0.5131760    -0.1475910
  C        1.0922740    -0.0266840     0.5021560
  C        4.3244450     0.5343730    -0.8803810
  H       -3.2865450    -0.5271910     1.2335890
  H       -1.1970340     0.8260370     1.6487790
  H        3.6131550     0.3461180     1.1547940
  H        4.1142490    -1.1721620     0.4188690
  H       -2.9813020     1.7413150    -0.7875330
  H       -4.5277090     1.0956620    -0.1864690
  H       -3.4435650     1.9541860     0.9176610
  H       -0.4470010    -0.9272420    -0.7564190
  H        2.0063450    -1.1440610    -1.0244550
  H        1.2471430     0.6066220     1.3780870
  H        4.3142870    -0.0291260    -1.8177910
  H        5.3679410     0.7151030    -0.6066950
  H        3.8442820     1.4990380    -1.0633910
  H       -3.7175750    -1.0591810    -0.9792530
units angstrom
no_reorient  #important for SAPT in psi4, default
symmetry c1  #important for SAPT in psi4, default
}

set PROPERTIES_ORIGIN ["COM"]
properties('MP2/aug-cc-pvtz', properties = ['dipole'])
--------------------------------------------------------------------------

    Molecular point group: c1
  Charge       = 0
  Multiplicity = 1
  Basis Set: AUG-CC-PVTZ
    Blend: AUG-CC-PVTZ
  Basis Set: (AUG-CC-PVTZ AUX)
    Blend: AUG-CC-PVTZ-JKFIT

    Orbital Energies [Eh]
    ---------------------

    Doubly Occupied:

       1A    -20.553726     2A    -11.286916     3A    -11.226691
       4A    -11.224758     5A    -11.223857     6A    -11.223631
       7A    -11.222926     8A    -11.219099     9A    -11.213238
      10A     -1.364511    11A     -1.098625    12A     -1.061810
      13A     -1.015836    14A     -0.962737    15A     -0.877740
      16A     -0.829697    17A     -0.753244    18A     -0.750310
      19A     -0.699235    20A     -0.638175    21A     -0.629362
      22A     -0.612823    23A     -0.591157    24A     -0.583828
      25A     -0.554562    26A     -0.541664    27A     -0.522406
      28A     -0.518960    29A     -0.501756    30A     -0.490706
      31A     -0.479664    32A     -0.469140    33A     -0.450495
      34A     -0.418830    35A     -0.298429

  @DF-RHF Final Energy:  -386.06031861179503

   => Energetics <=

    Nuclear Repulsion Energy =            418.3499073668490951
    One-Electron Energy =               -1352.5993577662507050
    Two-Electron Energy =                 548.1891317876065841
    Total Energy =                       -386.0603186117950827
  Basis Set: (AUG-CC-PVTZ AUX)
    Blend: AUG-CC-PVTZ-RI
    Molecular point group: c1

    Geometry (in Angstrom), charge = 0, multiplicity = 1:

       Center              X                  Y                   Z               Mass
    ------------   -----------------  -----------------  -----------------  -----------------
         O           -2.805612289995    -0.883214349845    -0.762301562386    15.994914619570
         C           -2.765837389995    -0.046505249845     0.394092937614    12.000000000000
         C           -1.340548389995     0.191058750155     0.780058937614    12.000000000000
         C            3.591423610005    -0.231996249845     0.230109937614    12.000000000000
         C           -3.480999889995     1.249118150155     0.023754737614    12.000000000000
         C           -0.276168389995    -0.297337249845     0.120352937614    12.000000000000
         C            2.170076610005    -0.515872249845    -0.139684062386    12.000000000000
         C            1.096327610005    -0.029380249845     0.510062937614    12.000000000000
         C            4.328498610005     0.531676750155    -0.872474062386    12.000000000000
         H           -3.282491389995    -0.529887249845     1.241495937614     1.007825032230
         H           -1.192980389995     0.823340750155     1.656685937614     1.007825032230
         H            3.617208610005     0.343421750155     1.162700937614     1.007825032230
         H            4.118302610005    -1.174858249845     0.426775937614     1.007825032230
         H           -2.977248389995     1.738618750155    -0.779626062386     1.007825032230
         H           -4.523655389995     1.092965750155    -0.178562062386     1.007825032230
         H           -3.439511389995     1.951489750155     0.925567937614     1.007825032230
         H           -0.442947389995    -0.929938249845    -0.748512062386     1.007825032230
         H            2.010398610005    -1.146757249845    -1.016548062386     1.007825032230
         H            1.251196610005     0.603925750155     1.385993937614     1.007825032230
         H            4.318340610005    -0.031822249845    -1.809884062386     1.007825032230
         H            5.371994610005     0.712406750155    -0.598788062386     1.007825032230
         H            3.848335610005     1.496341750155    -1.055484062386     1.007825032230
         H           -3.713521389995    -1.061877249845    -0.971346062386     1.007825032230

  Basis Set: AUG-CC-PVTZ
    Blend: AUG-CC-PVTZ
  Basis Set: (AUG-CC-PVTZ AUX)
    Blend: AUG-CC-PVTZ-JKFIT
	 Reference Energy          =    -386.0603186117950258 [Eh]
	 Singles Energy            =      -0.0000000000000000 [Eh]
	 Same-Spin Energy          =      -0.3999745062448492 [Eh]
	 Opposite-Spin Energy      =      -1.3774968953029207 [Eh]
	 Correlation Energy        =      -1.7774714015477699 [Eh]
	 Total Energy              =    -387.8377900133427829 [Eh]

	 ================> DF-SCS-MP2 Energies <==================
	-----------------------------------------------------------
	 SCS Same-Spin Scale       =       0.3333333333333333 [-]
	 SCS Opposite-Spin Scale   =       1.2000000000000000 [-]
	 SCS Same-Spin Energy      =      -0.1333248354149497 [Eh]
	 SCS Opposite-Spin Energy  =      -1.6529962743635049 [Eh]
	 SCS Correlation Energy    =      -1.7863211097784546 [Eh]
	 SCS Total Energy          =    -387.8466397215734673 [Eh]
	-----------------------------------------------------------

  Dipole Moment: [D]
     X:    -1.0748      Y:     0.5383      Z:     0.6195     Total:     1.3522

*** Psi4 exiting successfully. Buy a developer a beer!
