                               Psi4 1.3.2 release

  ==> Input File <==

--------------------------------------------------------------------------
#psi4
#
memory 32 gb

molecule  {
0 1
  O       -2.7848290    -0.9154220    -0.7447340
  C       -2.7698910    -0.0438090     0.3861860
  C       -1.3446020     0.1937550     0.7721520
  C        3.5873700    -0.2293000     0.2222030
  C       -3.4755630     1.2700040     0.0649850
  C       -0.2802220    -0.2946410     0.1124460
  C        2.1660230    -0.5131760    -0.1475910
  C        1.0922740    -0.0266840     0.5021560
  C        4.3244450     0.5343730    -0.8803810
  H       -3.2865450    -0.5271910     1.2335890
  H       -1.1835066     0.8839974     1.7291382
  H        3.6131550     0.3461180     1.1547940
  H        4.1142490    -1.1721620     0.4188690
  H       -2.9813020     1.7413150    -0.7875330
  H       -4.5277090     1.0956620    -0.1864690
  H       -3.4435650     1.9541860     0.9176610
  H       -0.4470010    -0.9272420    -0.7564190
  H        2.0063450    -1.1440610    -1.0244550
  H        1.2471430     0.6066220     1.3780870
  H        4.3142870    -0.0291260    -1.8177910
  H        5.3679410     0.7151030    -0.6066950
  H        3.8442820     1.4990380    -1.0633910
  H       -3.7175750    -1.0591810    -0.9792530
units angstrom
no_reorient  #important for SAPT in psi4, default
symmetry c1  #important for SAPT in psi4, default
}

set PROPERTIES_ORIGIN ["COM"]
properties('MP2/aug-cc-pvtz', properties = ['dipole'])
--------------------------------------------------------------------------

    Molecular point group: c1
  Charge       = 0
  Multiplicity = 1
  Basis Set: AUG-CC-PVTZ
    Blend: AUG-CC-PVTZ
  Basis Set: (AUG-CC-PVTZ AUX)
    Blend: AUG-CC-PVTZ-JKFIT

    Orbital Energies [Eh]
    ---------------------

    Doubly Occupied:

       1A    -20.559651     2A    -11.287769     3A    -11.234326
       4A    -11.226075     5A    -11.224001     6A    -11.223327
       7A    -11.223026     8A    -11.220633     9A    -11.212941
      10A     -1.361715    11A     -1.097313    12A     -1.060163
      13A     -1.016402    14A     -0.961694    15A     -0.876439
      16A     -0.828986    17A     -0.752467    18A     -0.737036
      19A     -0.695525    20A     -0.637782    21A     -0.626560
      22A     -0.617772    23A     -0.589431    24A     -0.579911
      25A     -0.545575    26A     -0.540112    27A     -0.526816
      28A     -0.518047    29A     -0.496622    30A     -0.493019
      31A     -0.479118    32A     -0.467258    33A     -0.453576
      34A     -0.418763    35A     -0.298082

  @DF-RHF Final Energy:  -386.05547249128972

   => Energetics <=

    Nuclear Repulsion Energy =            417.8122964912146813
    One-Electron Energy =               -1351.5596751260247856
    Two-Electron Energy =                 547.6919061435203275
    Total Energy =                       -386.0554724912897200
  Basis Set: (AUG-CC-PVTZ AUX)
    Blend: AUG-CC-PVTZ-RI
    Molecular point group: c1

    Geometry (in Angstrom), charge = 0, multiplicity = 1:

       Center              X                  Y                   Z               Mass
    ------------   -----------------  -----------------  -----------------  -----------------
         O           -2.784936886949    -0.915885214256    -0.745376298649    15.994914619570
         C           -2.769998886949    -0.044272214256     0.385543701351    12.000000000000
         C           -1.344709886949     0.193291785744     0.771509701351    12.000000000000
         C            3.587262113051    -0.229763214256     0.221560701351    12.000000000000
         C           -3.475670886949     1.269540785744     0.064342701351    12.000000000000
         C           -0.280329886949    -0.295104214256     0.111803701351    12.000000000000
         C            2.165915113051    -0.513639214256    -0.148233298649    12.000000000000
         C            1.092166113051    -0.027147214256     0.501513701351    12.000000000000
         C            4.324337113051     0.533909785744    -0.881023298649    12.000000000000
         H           -3.286652886949    -0.527654214256     1.232946701351     1.007825032230
         H           -1.183614486949     0.883534185744     1.728495901351     1.007825032230
         H            3.613047113051     0.345654785744     1.154151701351     1.007825032230
         H            4.114141113051    -1.172625214256     0.418226701351     1.007825032230
         H           -2.981409886949     1.740851785744    -0.788175298649     1.007825032230
         H           -4.527816886949     1.095198785744    -0.187111298649     1.007825032230
         H           -3.443672886949     1.953722785744     0.917018701351     1.007825032230
         H           -0.447108886949    -0.927705214256    -0.757061298649     1.007825032230
         H            2.006237113051    -1.144524214256    -1.025097298649     1.007825032230
         H            1.247035113051     0.606158785744     1.377444701351     1.007825032230
         H            4.314179113051    -0.029589214256    -1.818433298649     1.007825032230
         H            5.367833113051     0.714639785744    -0.607337298649     1.007825032230
         H            3.844174113051     1.498574785744    -1.064033298649     1.007825032230
         H           -3.717682886949    -1.059644214256    -0.979895298649     1.007825032230

  Basis Set: AUG-CC-PVTZ
    Blend: AUG-CC-PVTZ
  Basis Set: (AUG-CC-PVTZ AUX)
    Blend: AUG-CC-PVTZ-JKFIT
	 Reference Energy          =    -386.0554724912897200 [Eh]
	 Singles Energy            =      -0.0000000000000000 [Eh]
	 Same-Spin Energy          =      -0.4005650443324985 [Eh]
	 Opposite-Spin Energy      =      -1.3792148531433268 [Eh]
	 Correlation Energy        =      -1.7797798974758252 [Eh]
	 Total Energy              =    -387.8352523887655252 [Eh]

	 ================> DF-SCS-MP2 Energies <==================
	-----------------------------------------------------------
	 SCS Same-Spin Scale       =       0.3333333333333333 [-]
	 SCS Opposite-Spin Scale   =       1.2000000000000000 [-]
	 SCS Same-Spin Energy      =      -0.1335216814441662 [Eh]
	 SCS Opposite-Spin Energy  =      -1.6550578237719922 [Eh]
	 SCS Correlation Energy    =      -1.7885795052161584 [Eh]
	 SCS Total Energy          =    -387.8440519965058684 [Eh]
	-----------------------------------------------------------

  Dipole Moment: [D]
     X:    -1.1699      Y:     0.6135      Z:     0.5357     Total:     1.4255

*** Psi4 exiting successfully. Buy a developer a beer!
