                               Psi4 1.3.2 release

  ==> Input File <==

--------------------------------------------------------------------------
#psi4
#
memory 32 gb

molecule  {
0 1
  O       -2.7848290    -0.9154220    -0.7447340
  C       -2.7617801    -0.0581969     0.3659729
  C       -1.3446020     0.1937550     0.7721520
  C        3.5873700    -0.2293000     0.2222030
  C       -3.4755630     1.2700040     0.0649850
  C       -0.2947022    -0.3050199     0.0971842
  C        2.1660230    -0.5131760    -0.1475910
  C        1.0922740    -0.0266840     0.5021560
  C        4.3244450     0.5343730    -0.8803810
  H       -3.2865450    -0.5271910     1.2335890
  H       -1.1970340     0.8260370     1.6487790
  H        3.6131550     0.3461180     1.1547940
  H        4.1142490    -1.1721620     0.4188690
  H       -2.9813020     1.7413150    -0.7875330
  H       -4.5277090     1.0956620    -0.1864690
  H       -3.4435650     1.9541860     0.9176610
  H       -0.4470010    -0.9272420    -0.7564190
  H        2.0063450    -1.1440610    -1.0244550
  H        1.2471430     0.6066220     1.3780870
  H        4.3142870    -0.0291260    -1.8177910
  H        5.3679410     0.7151030    -0.6066950
  H        3.8442820     1.4990380    -1.0633910
  H       -3.7175750    -1.0591810    -0.9792530
units angstrom
no_reorient  #important for SAPT in psi4, default
symmetry c1  #important for SAPT in psi4, default
}

set PROPERTIES_ORIGIN ["COM"]
properties('MP2/aug-cc-pvtz', properties = ['dipole'])
--------------------------------------------------------------------------

    Molecular point group: c1
  Charge       = 0
  Multiplicity = 1
  Basis Set: AUG-CC-PVTZ
    Blend: AUG-CC-PVTZ
  Basis Set: (AUG-CC-PVTZ AUX)
    Blend: AUG-CC-PVTZ-JKFIT

    Orbital Energies [Eh]
    ---------------------

    Doubly Occupied:

       1A    -20.561611     2A    -11.286401     3A    -11.225196
       4A    -11.223660     5A    -11.223128     6A    -11.222644
       7A    -11.221339     8A    -11.219980     9A    -11.212480
      10A     -1.371041    11A     -1.095974    12A     -1.060504
      13A     -1.012762    14A     -0.961566    15A     -0.875123
      16A     -0.828068    17A     -0.752885    18A     -0.750540
      19A     -0.696983    20A     -0.640505    21A     -0.625406
      22A     -0.619290    23A     -0.591274    24A     -0.582101
      25A     -0.547619    26A     -0.542532    27A     -0.529420
      28A     -0.519510    29A     -0.505548    30A     -0.491866
      31A     -0.478558    32A     -0.464457    33A     -0.450542
      34A     -0.414519    35A     -0.297912

  @DF-RHF Final Energy:  -386.06210758923021

   => Energetics <=

    Nuclear Repulsion Energy =            418.4231970608033180
    One-Electron Energy =               -1352.7647245047789966
    Two-Electron Energy =                 548.2794198547454698
    Total Energy =                       -386.0621075892302088
  Basis Set: (AUG-CC-PVTZ AUX)
    Blend: AUG-CC-PVTZ-RI
    Molecular point group: c1

    Geometry (in Angstrom), charge = 0, multiplicity = 1:

       Center              X                  Y                   Z               Mass
    ------------   -----------------  -----------------  -----------------  -----------------
         O           -2.784222678675    -0.913065206719    -0.741358306003    15.994914619570
         C           -2.761173778675    -0.055840106719     0.369348593997    12.000000000000
         C           -1.343995678675     0.196111793281     0.775527693997    12.000000000000
         C            3.587976321325    -0.226943206719     0.225578693997    12.000000000000
         C           -3.474956678675     1.272360793281     0.068360693997    12.000000000000
         C           -0.294095878675    -0.302663106719     0.100559893997    12.000000000000
         C            2.166629321325    -0.510819206719    -0.144215306003    12.000000000000
         C            1.092880321325    -0.024327206719     0.505531693997    12.000000000000
         C            4.325051321325     0.536729793281    -0.877005306003    12.000000000000
         H           -3.285938678675    -0.524834206719     1.236964693997     1.007825032230
         H           -1.196427678675     0.828393793281     1.652154693997     1.007825032230
         H            3.613761321325     0.348474793281     1.158169693997     1.007825032230
         H            4.114855321325    -1.169805206719     0.422244693997     1.007825032230
         H           -2.980695678675     1.743671793281    -0.784157306003     1.007825032230
         H           -4.527102678675     1.098018793281    -0.183093306003     1.007825032230
         H           -3.442958678675     1.956542793281     0.921036693997     1.007825032230
         H           -0.446394678675    -0.924885206719    -0.753043306003     1.007825032230
         H            2.006951321325    -1.141704206719    -1.021079306003     1.007825032230
         H            1.247749321325     0.608978793281     1.381462693997     1.007825032230
         H            4.314893321325    -0.026769206719    -1.814415306003     1.007825032230
         H            5.368547321325     0.717459793281    -0.603319306003     1.007825032230
         H            3.844888321325     1.501394793281    -1.060015306003     1.007825032230
         H           -3.716968678675    -1.056824206719    -0.975877306003     1.007825032230

  Basis Set: AUG-CC-PVTZ
    Blend: AUG-CC-PVTZ
  Basis Set: (AUG-CC-PVTZ AUX)
    Blend: AUG-CC-PVTZ-JKFIT
	 Reference Energy          =    -386.0621075892302088 [Eh]
	 Singles Energy            =      -0.0000000000000000 [Eh]
	 Same-Spin Energy          =      -0.4000655571014194 [Eh]
	 Opposite-Spin Energy      =      -1.3776814713248213 [Eh]
	 Correlation Energy        =      -1.7777470284262407 [Eh]
	 Total Energy              =    -387.8398546176564423 [Eh]

	 ================> DF-SCS-MP2 Energies <==================
	-----------------------------------------------------------
	 SCS Same-Spin Scale       =       0.3333333333333333 [-]
	 SCS Opposite-Spin Scale   =       1.2000000000000000 [-]
	 SCS Same-Spin Energy      =      -0.1333551857004731 [Eh]
	 SCS Opposite-Spin Energy  =      -1.6532177655897855 [Eh]
	 SCS Correlation Energy    =      -1.7865729512902586 [Eh]
	 SCS Total Energy          =    -387.8486805405204905 [Eh]
	-----------------------------------------------------------

  Dipole Moment: [D]
     X:    -1.1870      Y:     0.5845      Z:     0.5225     Total:     1.4226

*** Psi4 exiting successfully. Buy a developer a beer!
