                               Psi4 1.3.2 release

  ==> Input File <==

--------------------------------------------------------------------------
#psi4
#
memory 32 gb

molecule  {
0 1
  O       -2.7848290    -0.9154220    -0.7447340
  C       -2.7698910    -0.0438090     0.3861860
  C       -1.3429638     0.1809103     0.7737879
  C        3.5873700    -0.2293000     0.2222030
  C       -3.4867615     1.2632880     0.0623932
  C       -0.2802220    -0.2946410     0.1124460
  C        2.1660230    -0.5131760    -0.1475910
  C        1.0922740    -0.0266840     0.5021560
  C        4.3244450     0.5343730    -0.8803810
  H       -3.2865450    -0.5271910     1.2335890
  H       -1.1970340     0.8260370     1.6487790
  H        3.6131550     0.3461180     1.1547940
  H        4.1142490    -1.1721620     0.4188690
  H       -2.9813020     1.7413150    -0.7875330
  H       -4.5277090     1.0956620    -0.1864690
  H       -3.4435650     1.9541860     0.9176610
  H       -0.4470010    -0.9272420    -0.7564190
  H        2.0063450    -1.1440610    -1.0244550
  H        1.2471430     0.6066220     1.3780870
  H        4.3142870    -0.0291260    -1.8177910
  H        5.3679410     0.7151030    -0.6066950
  H        3.8442820     1.4990380    -1.0633910
  H       -3.7175750    -1.0591810    -0.9792530
units angstrom
no_reorient  #important for SAPT in psi4, default
symmetry c1  #important for SAPT in psi4, default
}

set PROPERTIES_ORIGIN ["COM"]
properties('MP2/aug-cc-pvtz', properties = ['dipole'])
--------------------------------------------------------------------------

    Molecular point group: c1
  Charge       = 0
  Multiplicity = 1
  Basis Set: AUG-CC-PVTZ
    Blend: AUG-CC-PVTZ
  Basis Set: (AUG-CC-PVTZ AUX)
    Blend: AUG-CC-PVTZ-JKFIT

    Orbital Energies [Eh]
    ---------------------

    Doubly Occupied:

       1A    -20.558281     2A    -11.286442     3A    -11.226077
       4A    -11.223541     5A    -11.223271     6A    -11.223004
       7A    -11.221381     8A    -11.220830     9A    -11.212939
      10A     -1.360618    11A     -1.098159    12A     -1.061322
      13A     -1.016114    14A     -0.963172    15A     -0.877011
      16A     -0.829080    17A     -0.752495    18A     -0.746921
      19A     -0.694979    20A     -0.637372    21A     -0.628171
      22A     -0.616856    23A     -0.590911    24A     -0.582852
      25A     -0.547270    26A     -0.542219    27A     -0.526972
      28A     -0.518867    29A     -0.500113    30A     -0.492650
      31A     -0.479282    32A     -0.468341    33A     -0.452293
      34A     -0.418717    35A     -0.298329

  @DF-RHF Final Energy:  -386.06249857890850

   => Energetics <=

    Nuclear Repulsion Energy =            418.2797428851779955
    One-Electron Energy =               -1352.4907785578709536
    Two-Electron Energy =                 548.1485370937845119
    Total Energy =                       -386.0624985789085031
  Basis Set: (AUG-CC-PVTZ AUX)
    Blend: AUG-CC-PVTZ-RI
    Molecular point group: c1

    Geometry (in Angstrom), charge = 0, multiplicity = 1:

       Center              X                  Y                   Z               Mass
    ------------   -----------------  -----------------  -----------------  -----------------
         O           -2.783919025668    -0.913560615029    -0.744643106424    15.994914619570
         C           -2.768981025668    -0.041947615029     0.386276893576    12.000000000000
         C           -1.342053825668     0.182771684971     0.773878793576    12.000000000000
         C            3.588279974332    -0.227438615029     0.222293893576    12.000000000000
         C           -3.485851525668     1.265149384971     0.062484093576    12.000000000000
         C           -0.279312025668    -0.292779615029     0.112536893576    12.000000000000
         C            2.166932974332    -0.511314615029    -0.147500106424    12.000000000000
         C            1.093183974332    -0.024822615029     0.502246893576    12.000000000000
         C            4.325354974332     0.536234384971    -0.880290106424    12.000000000000
         H           -3.285635025668    -0.525329615029     1.233679893576     1.007825032230
         H           -1.196124025668     0.827898384971     1.648869893576     1.007825032230
         H            3.614064974332     0.347979384971     1.154884893576     1.007825032230
         H            4.115158974332    -1.170300615029     0.418959893576     1.007825032230
         H           -2.980392025668     1.743176384971    -0.787442106424     1.007825032230
         H           -4.526799025668     1.097523384971    -0.186378106424     1.007825032230
         H           -3.442655025668     1.956047384971     0.917751893576     1.007825032230
         H           -0.446091025668    -0.925380615029    -0.756328106424     1.007825032230
         H            2.007254974332    -1.142199615029    -1.024364106424     1.007825032230
         H            1.248052974332     0.608483384971     1.378177893576     1.007825032230
         H            4.315196974332    -0.027264615029    -1.817700106424     1.007825032230
         H            5.368850974332     0.716964384971    -0.606604106424     1.007825032230
         H            3.845191974332     1.500899384971    -1.063300106424     1.007825032230
         H           -3.716665025668    -1.057319615029    -0.979162106424     1.007825032230

  Basis Set: AUG-CC-PVTZ
    Blend: AUG-CC-PVTZ
  Basis Set: (AUG-CC-PVTZ AUX)
    Blend: AUG-CC-PVTZ-JKFIT
	 Reference Energy          =    -386.0624985789085031 [Eh]
	 Singles Energy            =      -0.0000000000000000 [Eh]
	 Same-Spin Energy          =      -0.4002825266858903 [Eh]
	 Opposite-Spin Energy      =      -1.3781738047463263 [Eh]
	 Correlation Energy        =      -1.7784563314322166 [Eh]
	 Total Energy              =    -387.8409549103407130 [Eh]

	 ================> DF-SCS-MP2 Energies <==================
	-----------------------------------------------------------
	 SCS Same-Spin Scale       =       0.3333333333333333 [-]
	 SCS Opposite-Spin Scale   =       1.2000000000000000 [-]
	 SCS Same-Spin Energy      =      -0.1334275088952968 [Eh]
	 SCS Opposite-Spin Energy  =      -1.6538085656955916 [Eh]
	 SCS Correlation Energy    =      -1.7872360745908884 [Eh]
	 SCS Total Energy          =    -387.8497346534994108 [Eh]
	-----------------------------------------------------------

  Dipole Moment: [D]
     X:    -1.1588      Y:     0.6486      Z:     0.5645     Total:     1.4429

*** Psi4 exiting successfully. Buy a developer a beer!
