                               Psi4 1.3.2 release

  ==> Input File <==

--------------------------------------------------------------------------
#psi4
#
memory 32 gb

molecule  {
0 1
  O       -2.7848290    -0.9154220    -0.7447340
  C       -2.7698910    -0.0438090     0.3861860
  C       -1.3446020     0.1937550     0.7721520
  C        3.5873700    -0.2293000     0.2222030
  C       -3.4755630     1.2700040     0.0649850
  C       -0.2802220    -0.2946410     0.1124460
  C        2.1660230    -0.5131760    -0.1475910
  C        1.0512746    -0.0598152     0.4553870
  C        4.3244450     0.5343730    -0.8803810
  H       -3.2865450    -0.5271910     1.2335890
  H       -1.1970340     0.8260370     1.6487790
  H        3.6131550     0.3461180     1.1547940
  H        4.1142490    -1.1721620     0.4188690
  H       -2.9813020     1.7413150    -0.7875330
  H       -4.5277090     1.0956620    -0.1864690
  H       -3.4435650     1.9541860     0.9176610
  H       -0.4470010    -0.9272420    -0.7564190
  H        1.9500336    -1.1377099    -1.0169065
  H        1.2471430     0.6066220     1.3780870
  H        4.3142870    -0.0291260    -1.8177910
  H        5.3679410     0.7151030    -0.6066950
  H        3.8442820     1.4990380    -1.0633910
  H       -3.7175750    -1.0591810    -0.9792530
units angstrom
no_reorient  #important for SAPT in psi4, default
symmetry c1  #important for SAPT in psi4, default
}

set PROPERTIES_ORIGIN ["COM"]
properties('MP2/aug-cc-pvtz', properties = ['dipole'])
--------------------------------------------------------------------------

    Molecular point group: c1
  Charge       = 0
  Multiplicity = 1
  Basis Set: AUG-CC-PVTZ
    Blend: AUG-CC-PVTZ
  Basis Set: (AUG-CC-PVTZ AUX)
    Blend: AUG-CC-PVTZ-JKFIT

    Orbital Energies [Eh]
    ---------------------

    Doubly Occupied:

       1A    -20.559295     2A    -11.287530     3A    -11.226604
       4A    -11.225849     5A    -11.225307     6A    -11.223686
       7A    -11.221368     8A    -11.219227     9A    -11.213753
      10A     -1.361408    11A     -1.103034    12A     -1.062152
      13A     -1.020496    14A     -0.963361    15A     -0.881135
      16A     -0.830318    17A     -0.756363    18A     -0.742460
      19A     -0.694567    20A     -0.637419    21A     -0.631421
      22A     -0.617445    23A     -0.592722    24A     -0.584059
      25A     -0.546998    26A     -0.543214    27A     -0.522064
      28A     -0.520687    29A     -0.500054    30A     -0.488857
      31A     -0.478352    32A     -0.467537    33A     -0.454424
      34A     -0.425342    35A     -0.294246

  @DF-RHF Final Energy:  -386.05430000088438

   => Energetics <=

    Nuclear Repulsion Energy =            418.8786219714777417
    One-Electron Energy =               -1353.6203399174632978
    Two-Electron Energy =                 548.6874179451011742
    Total Energy =                       -386.0543000008843819
  Basis Set: (AUG-CC-PVTZ AUX)
    Blend: AUG-CC-PVTZ-RI
    Molecular point group: c1

    Geometry (in Angstrom), charge = 0, multiplicity = 1:

       Center              X                  Y                   Z               Mass
    ------------   -----------------  -----------------  -----------------  -----------------
         O           -2.780477266185    -0.912320015005    -0.740343895985    15.994914619570
         C           -2.765539266185    -0.040707015005     0.390576104015    12.000000000000
         C           -1.340250266185     0.196856984995     0.776542104015    12.000000000000
         C            3.591721733815    -0.226198015005     0.226593104015    12.000000000000
         C           -3.471211266185     1.273105984995     0.069375104015    12.000000000000
         C           -0.275870266185    -0.291539015005     0.116836104015    12.000000000000
         C            2.170374733815    -0.510074015005    -0.143200895985    12.000000000000
         C            1.055626333815    -0.056713215005     0.459777104015    12.000000000000
         C            4.328796733815     0.537474984995    -0.875990895985    12.000000000000
         H           -3.282193266185    -0.524089015005     1.237979104015     1.007825032230
         H           -1.192682266185     0.829138984995     1.653169104015     1.007825032230
         H            3.617506733815     0.349219984995     1.159184104015     1.007825032230
         H            4.118600733815    -1.169060015005     0.423259104015     1.007825032230
         H           -2.976950266185     1.744416984995    -0.783142895985     1.007825032230
         H           -4.523357266185     1.098763984995    -0.182078895985     1.007825032230
         H           -3.439213266185     1.957287984995     0.922051104015     1.007825032230
         H           -0.442649266185    -0.924140015005    -0.752028895985     1.007825032230
         H            1.954385333815    -1.134607915005    -1.012516395985     1.007825032230
         H            1.251494733815     0.609723984995     1.382477104015     1.007825032230
         H            4.318638733815    -0.026024015005    -1.813400895985     1.007825032230
         H            5.372292733815     0.718204984995    -0.602304895985     1.007825032230
         H            3.848633733815     1.502139984995    -1.059000895985     1.007825032230
         H           -3.713223266185    -1.056079015005    -0.974862895985     1.007825032230

  Basis Set: AUG-CC-PVTZ
    Blend: AUG-CC-PVTZ
  Basis Set: (AUG-CC-PVTZ AUX)
    Blend: AUG-CC-PVTZ-JKFIT
	 Reference Energy          =    -386.0543000008843819 [Eh]
	 Singles Energy            =      -0.0000000000000000 [Eh]
	 Same-Spin Energy          =      -0.4015006948552631 [Eh]
	 Opposite-Spin Energy      =      -1.3796904602728191 [Eh]
	 Correlation Energy        =      -1.7811911551280821 [Eh]
	 Total Energy              =    -387.8354911560124378 [Eh]

	 ================> DF-SCS-MP2 Energies <==================
	-----------------------------------------------------------
	 SCS Same-Spin Scale       =       0.3333333333333333 [-]
	 SCS Opposite-Spin Scale   =       1.2000000000000000 [-]
	 SCS Same-Spin Energy      =      -0.1338335649517544 [Eh]
	 SCS Opposite-Spin Energy  =      -1.6556285523273828 [Eh]
	 SCS Correlation Energy    =      -1.7894621172791372 [Eh]
	 SCS Total Energy          =    -387.8437621181635109 [Eh]
	-----------------------------------------------------------

  Dipole Moment: [D]
     X:    -1.1947      Y:     0.6392      Z:     0.5515     Total:     1.4629

*** Psi4 exiting successfully. Buy a developer a beer!
