                               Psi4 1.4a3.dev225

  ==> Input File <==

--------------------------------------------------------------------------
#psi4
#
memory 32 gb

molecule  {
0 1
  O       -2.7624640     1.3159430     0.2248240
  C       -2.8209640    -0.0168770    -0.2887760
  C       -1.4198970    -0.4865040    -0.5315690
  C        3.5469730    -0.0618850    -0.4287090
  C       -3.5485140    -0.9406360     0.6857820
  C       -0.3124200     0.2274490    -0.2577540
  C        2.1505970     0.4383770    -0.2221580
  C        1.0342680    -0.2689350    -0.4861660
  C        4.3265940    -0.1505530     0.8872490
  H       -3.3622360    -0.0200820    -1.2509840
  H       -1.3293920    -1.4912640    -0.9473420
  H        3.5136740    -1.0471260    -0.9088000
  H        4.0812660     0.6062640    -1.1173180
  H       -3.0279280    -0.9272120     1.6463760
  H       -4.5820380    -0.6089360     0.8383050
  H       -3.5770120    -1.9680220     0.3103630
  H       -0.4219900     1.2292040     0.1523950
  H        2.0485920     1.4434520     0.1930580
  H        1.1311650    -1.2755230    -0.8987060
  H        4.3778580     0.8269450     1.3761990
  H        5.3504770    -0.4972710     0.7173650
  H        3.8373540    -0.8453320     1.5752720
  H       -3.6327278     1.5898949     0.3604767
units angstrom
no_reorient  #important for SAPT in psi4, default
symmetry c1  #important for SAPT in psi4, default
}

set PROPERTIES_ORIGIN ["COM"]
properties('MP2/aug-cc-pvtz', properties = ['dipole'])
--------------------------------------------------------------------------

    Molecular point group: c1
  Charge       = 0
  Multiplicity = 1
  Basis Set: AUG-CC-PVTZ
    Blend: AUG-CC-PVTZ
  Basis Set: (AUG-CC-PVTZ AUX)
    Blend: AUG-CC-PVTZ-JKFIT

    Orbital Energies [Eh]
    ---------------------

    Doubly Occupied:

       1A    -20.554012     2A    -11.287570     3A    -11.226638
       4A    -11.224437     5A    -11.223876     6A    -11.223690
       7A    -11.222579     8A    -11.221302     9A    -11.213299
      10A     -1.371835    11A     -1.097623    12A     -1.062063
      13A     -1.016577    14A     -0.962262    15A     -0.877499
      16A     -0.829697    17A     -0.753277    18A     -0.750924
      19A     -0.700176    20A     -0.637834    21A     -0.627350
      22A     -0.618985    23A     -0.590466    24A     -0.583577
      25A     -0.547779    26A     -0.543645    27A     -0.527840
      28A     -0.518669    29A     -0.501117    30A     -0.493739
      31A     -0.479475    32A     -0.468273    33A     -0.454098
      34A     -0.418101    35A     -0.297472

  @DF-RHF Final Energy:  -386.06305539426211

   => Energetics <=

    Nuclear Repulsion Energy =            418.0753705577482719
    One-Electron Energy =               -1352.0213401503297064
    Two-Electron Energy =                 547.8829141983192130
    Total Energy =                       -386.0630553942621646
  Basis Set: (AUG-CC-PVTZ AUX)
    Blend: AUG-CC-PVTZ-RI
    Molecular point group: c1

    Geometry (in Angstrom), charge = 0, multiplicity = 1:

       Center              X                  Y                   Z               Mass
    ------------   -----------------  -----------------  -----------------  -----------------
         O           -2.728649303482     1.292745867028     0.241052580299    15.994914619570
         C           -2.787149303482    -0.040074132972    -0.272547419701    12.000000000000
         C           -1.386082303482    -0.509701132972    -0.515340419701    12.000000000000
         C            3.580787696518    -0.085082132972    -0.412480419701    12.000000000000
         C           -3.514699303482    -0.963833132972     0.702010580299    12.000000000000
         C           -0.278605303482     0.204251867028    -0.241525419701    12.000000000000
         C            2.184411696518     0.415179867028    -0.205929419701    12.000000000000
         C            1.068082696518    -0.292132132972    -0.469937419701    12.000000000000
         C            4.360408696518    -0.173750132972     0.903477580299    12.000000000000
         H           -3.328421303482    -0.043279132972    -1.234755419701     1.007825032230
         H           -1.295577303482    -1.514461132972    -0.931113419701     1.007825032230
         H            3.547488696518    -1.070323132972    -0.892571419701     1.007825032230
         H            4.115080696518     0.583066867028    -1.101089419701     1.007825032230
         H           -2.994113303482    -0.950409132972     1.662604580299     1.007825032230
         H           -4.548223303482    -0.632133132972     0.854533580299     1.007825032230
         H           -3.543197303482    -1.991219132972     0.326591580299     1.007825032230
         H           -0.388175303482     1.206006867028     0.168623580299     1.007825032230
         H            2.082406696518     1.420254867028     0.209286580299     1.007825032230
         H            1.164979696518    -1.298720132972    -0.882477419701     1.007825032230
         H            4.411672696518     0.803747867028     1.392427580299     1.007825032230
         H            5.384291696518    -0.520468132972     0.733593580299     1.007825032230
         H            3.871168696518    -0.868529132972     1.591500580299     1.007825032230
         H           -3.598913103482     1.566697767028     0.376705280299     1.007825032230

  Basis Set: AUG-CC-PVTZ
    Blend: AUG-CC-PVTZ
  Basis Set: (AUG-CC-PVTZ AUX)
    Blend: AUG-CC-PVTZ-JKFIT
	 Reference Energy          =    -386.0630553942621077 [Eh]
	 Singles Energy            =      -0.0000000000000000 [Eh]
	 Same-Spin Energy          =      -0.3996646958597001 [Eh]
	 Opposite-Spin Energy      =      -1.3768595816252991 [Eh]
	 Correlation Energy        =      -1.7765242774849992 [Eh]
	 Total Energy              =    -387.8395796717471171 [Eh]

	 ================> DF-SCS-MP2 Energies <==================
	-----------------------------------------------------------
	 SCS Same-Spin Scale       =       0.3333333333333333 [-]
	 SCS Opposite-Spin Scale   =       1.2000000000000000 [-]
	 SCS Same-Spin Energy      =      -0.1332215652865667 [Eh]
	 SCS Opposite-Spin Energy  =      -1.6522314979503590 [Eh]
	 SCS Correlation Energy    =      -1.7854530632369257 [Eh]
	 SCS Total Energy          =    -387.8485084574990083 [Eh]
	-----------------------------------------------------------

  Dipole Moment: [D]
     X:    -1.1690      Y:    -0.8173      Z:    -0.1501     Total:     1.4342

*** Psi4 exiting successfully. Buy a developer a beer!
