                               Psi4 1.3.2 release

  ==> Input File <==

--------------------------------------------------------------------------
#psi4
#
memory 32 gb

molecule  {
0 1
  O       -2.7848290    -0.9154220    -0.7447340
  C       -2.7698910    -0.0438090     0.3861860
  C       -1.3446020     0.1937550     0.7721520
  C        3.5873700    -0.2293000     0.2222030
  C       -3.4755630     1.2700040     0.0649850
  C       -0.2802220    -0.2946410     0.1124460
  C        2.1678512    -0.5071408    -0.1590205
  C        1.0922740    -0.0266840     0.5021560
  C        4.3133282     0.5343002    -0.8877821
  H       -3.2865450    -0.5271910     1.2335890
  H       -1.1970340     0.8260370     1.6487790
  H        3.6131550     0.3461180     1.1547940
  H        4.1142490    -1.1721620     0.4188690
  H       -2.9813020     1.7413150    -0.7875330
  H       -4.5277090     1.0956620    -0.1864690
  H       -3.4435650     1.9541860     0.9176610
  H       -0.4470010    -0.9272420    -0.7564190
  H        2.0063450    -1.1440610    -1.0244550
  H        1.2471430     0.6066220     1.3780870
  H        4.3142870    -0.0291260    -1.8177910
  H        5.3679410     0.7151030    -0.6066950
  H        3.8442820     1.4990380    -1.0633910
  H       -3.7175750    -1.0591810    -0.9792530
units angstrom
no_reorient  #important for SAPT in psi4, default
symmetry c1  #important for SAPT in psi4, default
}

set PROPERTIES_ORIGIN ["COM"]
properties('MP2/aug-cc-pvtz', properties = ['dipole'])
--------------------------------------------------------------------------

    Molecular point group: c1
  Charge       = 0
  Multiplicity = 1
  Basis Set: AUG-CC-PVTZ
    Blend: AUG-CC-PVTZ
  Basis Set: (AUG-CC-PVTZ AUX)
    Blend: AUG-CC-PVTZ-JKFIT

    Orbital Energies [Eh]
    ---------------------

    Doubly Occupied:

       1A    -20.558666     2A    -11.286371     3A    -11.226070
       4A    -11.223845     5A    -11.223298     6A    -11.223133
       7A    -11.221639     8A    -11.220555     9A    -11.212687
      10A     -1.360700    11A     -1.097431    12A     -1.061379
      13A     -1.015971    14A     -0.961789    15A     -0.876424
      16A     -0.828277    17A     -0.753592    18A     -0.747880
      19A     -0.695115    20A     -0.637346    21A     -0.627702
      22A     -0.617437    23A     -0.589590    24A     -0.583053
      25A     -0.546514    26A     -0.543104    27A     -0.527670
      28A     -0.518899    29A     -0.499969    30A     -0.492710
      31A     -0.481098    32A     -0.467283    33A     -0.452719
      34A     -0.417705    35A     -0.296629

  @DF-RHF Final Energy:  -386.06205538577751

   => Energetics <=

    Nuclear Repulsion Energy =            418.3027553658708939
    One-Electron Energy =               -1352.5411202527363912
    Two-Electron Energy =                 548.1763095010879852
    Total Energy =                       -386.0620553857775121
  Basis Set: (AUG-CC-PVTZ AUX)
    Blend: AUG-CC-PVTZ-RI
    Molecular point group: c1

    Geometry (in Angstrom), charge = 0, multiplicity = 1:

       Center              X                  Y                   Z               Mass
    ------------   -----------------  -----------------  -----------------  -----------------
         O           -2.783944880422    -0.915989372804    -0.742942164274    15.994914619570
         C           -2.769006880422    -0.044376372804     0.387977835726    12.000000000000
         C           -1.343717880422     0.193187627196     0.773943835726    12.000000000000
         C            3.588254119578    -0.229867372804     0.223994835726    12.000000000000
         C           -3.474678880422     1.269436627196     0.066776835726    12.000000000000
         C           -0.279337880422    -0.295208372804     0.114237835726    12.000000000000
         C            2.168735319578    -0.507708172804    -0.157228664274    12.000000000000
         C            1.093158119578    -0.027251372804     0.503947835726    12.000000000000
         C            4.314212319578     0.533732827196    -0.885990264274    12.000000000000
         H           -3.285660880422    -0.527758372804     1.235380835726     1.007825032230
         H           -1.196149880422     0.825469627196     1.650570835726     1.007825032230
         H            3.614039119578     0.345550627196     1.156585835726     1.007825032230
         H            4.115133119578    -1.172729372804     0.420660835726     1.007825032230
         H           -2.980417880422     1.740747627196    -0.785741164274     1.007825032230
         H           -4.526824880422     1.095094627196    -0.184677164274     1.007825032230
         H           -3.442680880422     1.953618627196     0.919452835726     1.007825032230
         H           -0.446116880422    -0.927809372804    -0.754627164274     1.007825032230
         H            2.007229119578    -1.144628372804    -1.022663164274     1.007825032230
         H            1.248027119578     0.606054627196     1.379878835726     1.007825032230
         H            4.315171119578    -0.029693372804    -1.815999164274     1.007825032230
         H            5.368825119578     0.714535627196    -0.604903164274     1.007825032230
         H            3.845166119578     1.498470627196    -1.061599164274     1.007825032230
         H           -3.716690880422    -1.059748372804    -0.977461164274     1.007825032230

  Basis Set: AUG-CC-PVTZ
    Blend: AUG-CC-PVTZ
  Basis Set: (AUG-CC-PVTZ AUX)
    Blend: AUG-CC-PVTZ-JKFIT
	 Reference Energy          =    -386.0620553857775121 [Eh]
	 Singles Energy            =      -0.0000000000000000 [Eh]
	 Same-Spin Energy          =      -0.4004235944439543 [Eh]
	 Opposite-Spin Energy      =      -1.3784645340579966 [Eh]
	 Correlation Energy        =      -1.7788881285019509 [Eh]
	 Total Energy              =    -387.8409435142794450 [Eh]

	 ================> DF-SCS-MP2 Energies <==================
	-----------------------------------------------------------
	 SCS Same-Spin Scale       =       0.3333333333333333 [-]
	 SCS Opposite-Spin Scale   =       1.2000000000000000 [-]
	 SCS Same-Spin Energy      =      -0.1334745314813181 [Eh]
	 SCS Opposite-Spin Energy  =      -1.6541574408695958 [Eh]
	 SCS Correlation Energy    =      -1.7876319723509140 [Eh]
	 SCS Total Energy          =    -387.8496873581284490 [Eh]
	-----------------------------------------------------------

  Dipole Moment: [D]
     X:    -1.1582      Y:     0.6281      Z:     0.5797     Total:     1.4395

*** Psi4 exiting successfully. Buy a developer a beer!
