                               Psi4 1.3.2 release

  ==> Input File <==

--------------------------------------------------------------------------
#psi4
#
memory 32 gb

molecule  {
0 1
  O       -2.7848290    -0.9154220    -0.7447340
  C       -2.7698910    -0.0438090     0.3861860
  C       -1.3446020     0.1937550     0.7721520
  C        3.5873700    -0.2293000     0.2222030
  C       -3.4755630     1.2700040     0.0649850
  C       -0.2802220    -0.2946410     0.1124460
  C        2.1643030    -0.5191896    -0.1361334
  C        1.0922740    -0.0266840     0.5021560
  C        4.3355057     0.5343877    -0.8728959
  H       -3.2865450    -0.5271910     1.2335890
  H       -1.1970340     0.8260370     1.6487790
  H        3.6131550     0.3461180     1.1547940
  H        4.1142490    -1.1721620     0.4188690
  H       -2.9813020     1.7413150    -0.7875330
  H       -4.5277090     1.0956620    -0.1864690
  H       -3.4435650     1.9541860     0.9176610
  H       -0.4470010    -0.9272420    -0.7564190
  H        2.0063450    -1.1440610    -1.0244550
  H        1.2471430     0.6066220     1.3780870
  H        4.3142870    -0.0291260    -1.8177910
  H        5.3679410     0.7151030    -0.6066950
  H        3.8442820     1.4990380    -1.0633910
  H       -3.7175750    -1.0591810    -0.9792530
units angstrom
no_reorient  #important for SAPT in psi4, default
symmetry c1  #important for SAPT in psi4, default
}

set PROPERTIES_ORIGIN ["COM"]
properties('MP2/aug-cc-pvtz', properties = ['dipole'])
--------------------------------------------------------------------------

    Molecular point group: c1
  Charge       = 0
  Multiplicity = 1
  Basis Set: AUG-CC-PVTZ
    Blend: AUG-CC-PVTZ
  Basis Set: (AUG-CC-PVTZ AUX)
    Blend: AUG-CC-PVTZ-JKFIT

    Orbital Energies [Eh]
    ---------------------

    Doubly Occupied:

       1A    -20.558811     2A    -11.286581     3A    -11.225830
       4A    -11.223734     5A    -11.223171     6A    -11.222754
       7A    -11.221897     8A    -11.220724     9A    -11.213126
      10A     -1.360854    11A     -1.098226    12A     -1.061288
      13A     -1.016296    14A     -0.963157    15A     -0.876945
      16A     -0.829028    17A     -0.751342    18A     -0.748187
      19A     -0.695306    20A     -0.637323    21A     -0.627256
      22A     -0.617247    23A     -0.591471    24A     -0.582563
      25A     -0.546517    26A     -0.543924    27A     -0.527065
      28A     -0.519394    29A     -0.501176    30A     -0.492063
      31A     -0.477079    32A     -0.468374    33A     -0.453005
      34A     -0.418796    35A     -0.298312

  @DF-RHF Final Energy:  -386.06248013102686

   => Energetics <=

    Nuclear Repulsion Energy =            418.2378481883615677
    One-Electron Energy =               -1352.4030122830943128
    Two-Electron Energy =                 548.1026839637058856
    Total Energy =                       -386.0624801310268595
  Basis Set: (AUG-CC-PVTZ AUX)
    Blend: AUG-CC-PVTZ-RI
    Molecular point group: c1

    Geometry (in Angstrom), charge = 0, multiplicity = 1:

       Center              X                  Y                   Z               Mass
    ------------   -----------------  -----------------  -----------------  -----------------
         O           -2.785717629705    -0.914851145067    -0.746536641280    15.994914619570
         C           -2.770779629705    -0.043238145067     0.384383358720    12.000000000000
         C           -1.345490629705     0.194325854933     0.770349358720    12.000000000000
         C            3.586481370295    -0.228729145067     0.220400358720    12.000000000000
         C           -3.476451629705     1.270574854933     0.063182358720    12.000000000000
         C           -0.281110629705    -0.294070145067     0.110643358720    12.000000000000
         C            2.163414370295    -0.518618745067    -0.137936041280    12.000000000000
         C            1.091385370295    -0.026113145067     0.500353358720    12.000000000000
         C            4.334617070295     0.534958554933    -0.874698541280    12.000000000000
         H           -3.287433629705    -0.526620145067     1.231786358720     1.007825032230
         H           -1.197922629705     0.826607854933     1.646976358720     1.007825032230
         H            3.612266370295     0.346688854933     1.152991358720     1.007825032230
         H            4.113360370295    -1.171591145067     0.417066358720     1.007825032230
         H           -2.982190629705     1.741885854933    -0.789335641280     1.007825032230
         H           -4.528597629705     1.096232854933    -0.188271641280     1.007825032230
         H           -3.444453629705     1.954756854933     0.915858358720     1.007825032230
         H           -0.447889629705    -0.926671145067    -0.758221641280     1.007825032230
         H            2.005456370295    -1.143490145067    -1.026257641280     1.007825032230
         H            1.246254370295     0.607192854933     1.376284358720     1.007825032230
         H            4.313398370295    -0.028555145067    -1.819593641280     1.007825032230
         H            5.367052370295     0.715673854933    -0.608497641280     1.007825032230
         H            3.843393370295     1.499608854933    -1.065193641280     1.007825032230
         H           -3.718463629705    -1.058610145067    -0.981055641280     1.007825032230

  Basis Set: AUG-CC-PVTZ
    Blend: AUG-CC-PVTZ
  Basis Set: (AUG-CC-PVTZ AUX)
    Blend: AUG-CC-PVTZ-JKFIT
	 Reference Energy          =    -386.0624801310268595 [Eh]
	 Singles Energy            =      -0.0000000000000000 [Eh]
	 Same-Spin Energy          =      -0.4002932295177718 [Eh]
	 Opposite-Spin Energy      =      -1.3781953001391249 [Eh]
	 Correlation Energy        =      -1.7784885296568969 [Eh]
	 Total Energy              =    -387.8409686606837568 [Eh]

	 ================> DF-SCS-MP2 Energies <==================
	-----------------------------------------------------------
	 SCS Same-Spin Scale       =       0.3333333333333333 [-]
	 SCS Opposite-Spin Scale   =       1.2000000000000000 [-]
	 SCS Same-Spin Energy      =      -0.1334310765059239 [Eh]
	 SCS Opposite-Spin Energy  =      -1.6538343601669498 [Eh]
	 SCS Correlation Energy    =      -1.7872654366728737 [Eh]
	 SCS Total Energy          =    -387.8497455676997561 [Eh]
	-----------------------------------------------------------

  Dipole Moment: [D]
     X:    -1.1644      Y:     0.6560      Z:     0.5761     Total:     1.4554

*** Psi4 exiting successfully. Buy a developer a beer!
