                               Psi4 1.3.2 release

  ==> Input File <==

--------------------------------------------------------------------------
#psi4
#
memory 32 gb

molecule  {
0 1
  O       -2.7848290    -0.9154220    -0.7447340
  C       -2.7698910    -0.0438090     0.3861860
  C       -1.3446020     0.1937550     0.7721520
  C        3.5873700    -0.2293000     0.2222030
  C       -3.4755630     1.2700040     0.0649850
  C       -0.2802220    -0.2946410     0.1124460
  C        2.1701216    -0.5195578    -0.1582152
  C        1.0922740    -0.0266840     0.5021560
  C        4.3244450     0.5343730    -0.8803810
  H       -3.2865450    -0.5271910     1.2335890
  H       -1.1970340     0.8260370     1.6487790
  H        3.6227114     0.3462516     1.1543983
  H        4.1142490    -1.1721620     0.4188690
  H       -2.9813020     1.7413150    -0.7875330
  H       -4.5277090     1.0956620    -0.1864690
  H       -3.4435650     1.9541860     0.9176610
  H       -0.4470010    -0.9272420    -0.7564190
  H        2.0063450    -1.1440610    -1.0244550
  H        1.2471430     0.6066220     1.3780870
  H        4.3142870    -0.0291260    -1.8177910
  H        5.3679410     0.7151030    -0.6066950
  H        3.8442820     1.4990380    -1.0633910
  H       -3.7175750    -1.0591810    -0.9792530
units angstrom
no_reorient  #important for SAPT in psi4, default
symmetry c1  #important for SAPT in psi4, default
}

set PROPERTIES_ORIGIN ["COM"]
properties('MP2/aug-cc-pvtz', properties = ['dipole'])
--------------------------------------------------------------------------

    Molecular point group: c1
  Charge       = 0
  Multiplicity = 1
  Basis Set: AUG-CC-PVTZ
    Blend: AUG-CC-PVTZ
  Basis Set: (AUG-CC-PVTZ AUX)
    Blend: AUG-CC-PVTZ-JKFIT

    Orbital Energies [Eh]
    ---------------------

    Doubly Occupied:

       1A    -20.558701     2A    -11.286408     3A    -11.226680
       4A    -11.224702     5A    -11.223307     6A    -11.223180
       7A    -11.221704     8A    -11.220581     9A    -11.212635
      10A     -1.360736    11A     -1.096869    12A     -1.061178
      13A     -1.015838    14A     -0.961457    15A     -0.876647
      16A     -0.827910    17A     -0.754716    18A     -0.747840
      19A     -0.695076    20A     -0.637409    21A     -0.627055
      22A     -0.617282    23A     -0.590460    24A     -0.582357
      25A     -0.546717    26A     -0.543983    27A     -0.527828
      28A     -0.518120    29A     -0.500491    30A     -0.492483
      31A     -0.480530    32A     -0.468148    33A     -0.452766
      34A     -0.417256    35A     -0.295958

  @DF-RHF Final Energy:  -386.06190922555561

   => Energetics <=

    Nuclear Repulsion Energy =            418.1399824675523860
    One-Electron Energy =               -1352.2137726302476040
    Two-Electron Energy =                 548.0118809371396082
    Total Energy =                       -386.0619092255556097
  Basis Set: (AUG-CC-PVTZ AUX)
    Blend: AUG-CC-PVTZ-RI
    Molecular point group: c1

    Geometry (in Angstrom), charge = 0, multiplicity = 1:

       Center              X                  Y                   Z               Mass
    ------------   -----------------  -----------------  -----------------  -----------------
         O           -2.785295170272    -0.914815776338    -0.743719916303    15.994914619570
         C           -2.770357170272    -0.043202776338     0.387200083697    12.000000000000
         C           -1.345068170272     0.194361223662     0.773166083697    12.000000000000
         C            3.586903829728    -0.228693776338     0.223217083697    12.000000000000
         C           -3.476029170272     1.270610223662     0.065999083697    12.000000000000
         C           -0.280688170272    -0.294034776338     0.113460083697    12.000000000000
         C            2.169655429728    -0.518951576338    -0.157201116303    12.000000000000
         C            1.091807829728    -0.026077776338     0.503170083697    12.000000000000
         C            4.323978829728     0.534979223662    -0.879366916303    12.000000000000
         H           -3.287011170272    -0.526584776338     1.234603083697     1.007825032230
         H           -1.197500170272     0.826643223662     1.649793083697     1.007825032230
         H            3.622245229728     0.346857823662     1.155412383697     1.007825032230
         H            4.113782829728    -1.171555776338     0.419883083697     1.007825032230
         H           -2.981768170272     1.741921223662    -0.786518916303     1.007825032230
         H           -4.528175170272     1.096268223662    -0.185454916303     1.007825032230
         H           -3.444031170272     1.954792223662     0.918675083697     1.007825032230
         H           -0.447467170272    -0.926635776338    -0.755404916303     1.007825032230
         H            2.005878829728    -1.143454776338    -1.023440916303     1.007825032230
         H            1.246676829728     0.607228223662     1.379101083697     1.007825032230
         H            4.313820829728    -0.028519776338    -1.816776916303     1.007825032230
         H            5.367474829728     0.715709223662    -0.605680916303     1.007825032230
         H            3.843815829728     1.499644223662    -1.062376916303     1.007825032230
         H           -3.718041170272    -1.058574776338    -0.978238916303     1.007825032230

  Basis Set: AUG-CC-PVTZ
    Blend: AUG-CC-PVTZ
  Basis Set: (AUG-CC-PVTZ AUX)
    Blend: AUG-CC-PVTZ-JKFIT
	 Reference Energy          =    -386.0619092255556097 [Eh]
	 Singles Energy            =      -0.0000000000000000 [Eh]
	 Same-Spin Energy          =      -0.4004553725404691 [Eh]
	 Opposite-Spin Energy      =      -1.3785572629515261 [Eh]
	 Correlation Energy        =      -1.7790126354919953 [Eh]
	 Total Energy              =    -387.8409218610476046 [Eh]

	 ================> DF-SCS-MP2 Energies <==================
	-----------------------------------------------------------
	 SCS Same-Spin Scale       =       0.3333333333333333 [-]
	 SCS Opposite-Spin Scale   =       1.2000000000000000 [-]
	 SCS Same-Spin Energy      =      -0.1334851241801563 [Eh]
	 SCS Opposite-Spin Energy  =      -1.6542687155418314 [Eh]
	 SCS Correlation Energy    =      -1.7877538397219879 [Eh]
	 SCS Total Energy          =    -387.8496630652775821 [Eh]
	-----------------------------------------------------------

  Dipole Moment: [D]
     X:    -1.1599      Y:     0.6370      Z:     0.5775     Total:     1.4438

*** Psi4 exiting successfully. Buy a developer a beer!
