                               Psi4 1.3.2 release

  ==> Input File <==

--------------------------------------------------------------------------
#psi4
#
memory 32 gb

molecule  {
0 1
  O       -2.7848290    -0.9154220    -0.7447340
  C       -2.7698910    -0.0438090     0.3861860
  C       -1.3001890     0.2254576     0.8165854
  C        3.5873700    -0.2293000     0.2222030
  C       -3.4755630     1.2700040     0.0649850
  C       -0.2802220    -0.2946410     0.1124460
  C        2.1660230    -0.5131760    -0.1475910
  C        1.0656492     0.0152318     0.5596927
  C        4.3244450     0.5343730    -0.8803810
  H       -3.2865450    -0.5271910     1.2335890
  H       -1.1970340     0.8260370     1.6487790
  H        3.6131550     0.3461180     1.1547940
  H        4.1142490    -1.1721620     0.4188690
  H       -2.9813020     1.7413150    -0.7875330
  H       -4.5277090     1.0956620    -0.1864690
  H       -3.4435650     1.9541860     0.9176610
  H       -0.4470010    -0.9272420    -0.7564190
  H        2.0063450    -1.1440610    -1.0244550
  H        1.2471430     0.6066220     1.3780870
  H        4.3142870    -0.0291260    -1.8177910
  H        5.3679410     0.7151030    -0.6066950
  H        3.8442820     1.4990380    -1.0633910
  H       -3.7175750    -1.0591810    -0.9792530
units angstrom
no_reorient  #important for SAPT in psi4, default
symmetry c1  #important for SAPT in psi4, default
}

set PROPERTIES_ORIGIN ["COM"]
properties('MP2/aug-cc-pvtz', properties = ['dipole'])
--------------------------------------------------------------------------

    Molecular point group: c1
  Charge       = 0
  Multiplicity = 1
  Basis Set: AUG-CC-PVTZ
    Blend: AUG-CC-PVTZ
  Basis Set: (AUG-CC-PVTZ AUX)
    Blend: AUG-CC-PVTZ-JKFIT

    Orbital Energies [Eh]
    ---------------------

    Doubly Occupied:

       1A    -20.558979     2A    -11.286895     3A    -11.233524
       4A    -11.225727     5A    -11.224352     6A    -11.222347
       7A    -11.219045     8A    -11.218800     9A    -11.212315
      10A     -1.359225    11A     -1.093889    12A     -1.056508
      13A     -1.013060    14A     -0.955112    15A     -0.872362
      16A     -0.822733    17A     -0.763957    18A     -0.755370
      19A     -0.692559    20A     -0.636336    21A     -0.624886
      22A     -0.615594    23A     -0.595063    24A     -0.578846
      25A     -0.553130    26A     -0.543416    27A     -0.530510
      28A     -0.517386    29A     -0.511175    30A     -0.490864
      31A     -0.479928    32A     -0.455954    33A     -0.449652
      34A     -0.415393    35A     -0.287641

  @DF-RHF Final Energy:  -386.04631030748487

   => Energetics <=

    Nuclear Repulsion Energy =            417.1358354229729457
    One-Electron Energy =               -1350.2192221575674012
    Two-Electron Energy =                 547.0370764271095823
    Total Energy =                       -386.0463103074848732
  Basis Set: (AUG-CC-PVTZ AUX)
    Blend: AUG-CC-PVTZ-RI
    Molecular point group: c1

    Geometry (in Angstrom), charge = 0, multiplicity = 1:

       Center              X                  Y                   Z               Mass
    ------------   -----------------  -----------------  -----------------  -----------------
         O           -2.786521487046    -0.922427463633    -0.754437462233    15.994914619570
         C           -2.771583487046    -0.050814463633     0.376482537767    12.000000000000
         C           -1.301881487046     0.218452136367     0.806881937767    12.000000000000
         C            3.585677512954    -0.236305463633     0.212499537767    12.000000000000
         C           -3.477255487046     1.262998536367     0.055281537767    12.000000000000
         C           -0.281914487046    -0.301646463633     0.102742537767    12.000000000000
         C            2.164330512954    -0.520181463633    -0.157294462233    12.000000000000
         C            1.063956712954     0.008226336367     0.549989237767    12.000000000000
         C            4.322752512954     0.527367536367    -0.890084462233    12.000000000000
         H           -3.288237487046    -0.534196463633     1.223885537767     1.007825032230
         H           -1.198726487046     0.819031536367     1.639075537767     1.007825032230
         H            3.611462512954     0.339112536367     1.145090537767     1.007825032230
         H            4.112556512954    -1.179167463633     0.409165537767     1.007825032230
         H           -2.982994487046     1.734309536367    -0.797236462233     1.007825032230
         H           -4.529401487046     1.088656536367    -0.196172462233     1.007825032230
         H           -3.445257487046     1.947180536367     0.907957537767     1.007825032230
         H           -0.448693487046    -0.934247463633    -0.766122462233     1.007825032230
         H            2.004652512954    -1.151066463633    -1.034158462233     1.007825032230
         H            1.245450512954     0.599616536367     1.368383537767     1.007825032230
         H            4.312594512954    -0.036131463633    -1.827494462233     1.007825032230
         H            5.366248512954     0.708097536367    -0.616398462233     1.007825032230
         H            3.842589512954     1.492032536367    -1.073094462233     1.007825032230
         H           -3.719267487046    -1.066186463633    -0.988956462233     1.007825032230

  Basis Set: AUG-CC-PVTZ
    Blend: AUG-CC-PVTZ
  Basis Set: (AUG-CC-PVTZ AUX)
    Blend: AUG-CC-PVTZ-JKFIT
	 Reference Energy          =    -386.0463103074848732 [Eh]
	 Singles Energy            =      -0.0000000000000000 [Eh]
	 Same-Spin Energy          =      -0.4007632795186888 [Eh]
	 Opposite-Spin Energy      =      -1.3800040280943475 [Eh]
	 Correlation Energy        =      -1.7807673076130364 [Eh]
	 Total Energy              =    -387.8270776150978918 [Eh]

	 ================> DF-SCS-MP2 Energies <==================
	-----------------------------------------------------------
	 SCS Same-Spin Scale       =       0.3333333333333333 [-]
	 SCS Opposite-Spin Scale   =       1.2000000000000000 [-]
	 SCS Same-Spin Energy      =      -0.1335877598395629 [Eh]
	 SCS Opposite-Spin Energy  =      -1.6560048337132169 [Eh]
	 SCS Correlation Energy    =      -1.7895925935527799 [Eh]
	 SCS Total Energy          =    -387.8359029010376275 [Eh]
	-----------------------------------------------------------

  Dipole Moment: [D]
     X:    -1.1264      Y:     0.6451      Z:     0.6161     Total:     1.4369

*** Psi4 exiting successfully. Buy a developer a beer!
