                               Psi4 1.4a3.dev225

  ==> Input File <==

--------------------------------------------------------------------------
#psi4
#
memory 32 gb

molecule  {
0 1
  O       -2.7624640     1.3159430     0.2248240
  C       -2.8209640    -0.0168770    -0.2887760
  C       -1.4198970    -0.4865040    -0.5315690
  C        3.5469730    -0.0618850    -0.4287090
  C       -3.5485140    -0.9406360     0.6857820
  C       -0.3124200     0.2274490    -0.2577540
  C        2.1505970     0.4383770    -0.2221580
  C        1.0342680    -0.2689350    -0.4861660
  C        4.3265940    -0.1505530     0.8872490
  H       -3.3524304    -0.0200239    -1.2335528
  H       -1.3293920    -1.4912640    -0.9473420
  H        3.5136740    -1.0471260    -0.9088000
  H        4.0812660     0.6062640    -1.1173180
  H       -3.0279280    -0.9272120     1.6463760
  H       -4.5820380    -0.6089360     0.8383050
  H       -3.5770120    -1.9680220     0.3103630
  H       -0.4219900     1.2292040     0.1523950
  H        2.0485920     1.4434520     0.1930580
  H        1.1311650    -1.2755230    -0.8987060
  H        4.3778580     0.8269450     1.3761990
  H        5.3504770    -0.4972710     0.7173650
  H        3.8373540    -0.8453320     1.5752720
  H       -3.6799020     1.6047450     0.3678300
units angstrom
no_reorient  #important for SAPT in psi4, default
symmetry c1  #important for SAPT in psi4, default
}

set PROPERTIES_ORIGIN ["COM"]
properties('MP2/aug-cc-pvtz', properties = ['dipole'])
--------------------------------------------------------------------------

    Molecular point group: c1
  Charge       = 0
  Multiplicity = 1
  Basis Set: AUG-CC-PVTZ
    Blend: AUG-CC-PVTZ
  Basis Set: (AUG-CC-PVTZ AUX)
    Blend: AUG-CC-PVTZ-JKFIT

    Orbital Energies [Eh]
    ---------------------

    Doubly Occupied:

       1A    -20.558448     2A    -11.284510     3A    -11.226441
       4A    -11.224204     5A    -11.223710     6A    -11.223519
       7A    -11.222320     8A    -11.220751     9A    -11.213186
      10A     -1.359948    11A     -1.097048    12A     -1.060829
      13A     -1.015923    14A     -0.962020    15A     -0.876759
      16A     -0.829271    17A     -0.752906    18A     -0.747805
      19A     -0.696659    20A     -0.636772    21A     -0.627338
      22A     -0.616767    23A     -0.589937    24A     -0.582727
      25A     -0.546414    26A     -0.543289    27A     -0.527340
      28A     -0.518467    29A     -0.500785    30A     -0.492873
      31A     -0.479277    32A     -0.467848    33A     -0.453383
      34A     -0.418071    35A     -0.297337

  @DF-RHF Final Energy:  -386.06250101028195

   => Energetics <=

    Nuclear Repulsion Energy =            417.8537626474052331
    One-Electron Energy =               -1351.6427589534077924
    Two-Electron Energy =                 547.7264952957206106
    Total Energy =                       -386.0625010102819488
  Basis Set: (AUG-CC-PVTZ AUX)
    Blend: AUG-CC-PVTZ-RI
    Molecular point group: c1

    Geometry (in Angstrom), charge = 0, multiplicity = 1:

       Center              X                  Y                   Z               Mass
    ------------   -----------------  -----------------  -----------------  -----------------
         O           -2.728350654180     1.292626720912     0.240854502939    15.994914619570
         C           -2.786850654180    -0.040193279088    -0.272745497061    12.000000000000
         C           -1.385783654180    -0.509820279088    -0.515538497061    12.000000000000
         C            3.581086345820    -0.085201279088    -0.412678497061    12.000000000000
         C           -3.514400654180    -0.963952279088     0.701812502939    12.000000000000
         C           -0.278306654180     0.204132720912    -0.241723497061    12.000000000000
         C            2.184710345820     0.415060720912    -0.206127497061    12.000000000000
         C            1.068381345820    -0.292251279088    -0.470135497061    12.000000000000
         C            4.360707345820    -0.173869279088     0.903279502939    12.000000000000
         H           -3.318317054180    -0.043340179088    -1.217522297061     1.007825032230
         H           -1.295278654180    -1.514580279088    -0.931311497061     1.007825032230
         H            3.547787345820    -1.070442279088    -0.892769497061     1.007825032230
         H            4.115379345820     0.582947720912    -1.101287497061     1.007825032230
         H           -2.993814654180    -0.950528279088     1.662406502939     1.007825032230
         H           -4.547924654180    -0.632252279088     0.854335502939     1.007825032230
         H           -3.542898654180    -1.991338279088     0.326393502939     1.007825032230
         H           -0.387876654180     1.205887720912     0.168425502939     1.007825032230
         H            2.082705345820     1.420135720912     0.209088502939     1.007825032230
         H            1.165278345820    -1.298839279088    -0.882675497061     1.007825032230
         H            4.411971345820     0.803628720912     1.392229502939     1.007825032230
         H            5.384590345820    -0.520587279088     0.733395502939     1.007825032230
         H            3.871467345820    -0.868648279088     1.591302502939     1.007825032230
         H           -3.645788654180     1.581428720912     0.383860502939     1.007825032230

  Basis Set: AUG-CC-PVTZ
    Blend: AUG-CC-PVTZ
  Basis Set: (AUG-CC-PVTZ AUX)
    Blend: AUG-CC-PVTZ-JKFIT
	 Reference Energy          =    -386.0625010102819488 [Eh]
	 Singles Energy            =      -0.0000000000000000 [Eh]
	 Same-Spin Energy          =      -0.4002433370441135 [Eh]
	 Opposite-Spin Energy      =      -1.3782579778437714 [Eh]
	 Correlation Energy        =      -1.7785013148878848 [Eh]
	 Total Energy              =    -387.8410023251698249 [Eh]

	 ================> DF-SCS-MP2 Energies <==================
	-----------------------------------------------------------
	 SCS Same-Spin Scale       =       0.3333333333333333 [-]
	 SCS Opposite-Spin Scale   =       1.2000000000000000 [-]
	 SCS Same-Spin Energy      =      -0.1334144456813711 [Eh]
	 SCS Opposite-Spin Energy  =      -1.6539095734125255 [Eh]
	 SCS Correlation Energy    =      -1.7873240190938966 [Eh]
	 SCS Total Energy          =    -387.8498250293758360 [Eh]
	-----------------------------------------------------------

  Dipole Moment: [D]
     X:    -1.2101      Y:    -0.7985      Z:    -0.1575     Total:     1.4584

*** Psi4 exiting successfully. Buy a developer a beer!
