                               Psi4 1.3.2 release

  ==> Input File <==

--------------------------------------------------------------------------
#psi4
#
memory 32 gb

molecule  {
0 1
  O       -2.7848290    -0.9154220    -0.7447340
  C       -2.7698910    -0.0438090     0.3861860
  C       -1.3602144     0.1614481     0.8417479
  C        3.5873700    -0.2293000     0.2222030
  C       -3.4755630     1.2700040     0.0649850
  C       -0.2802220    -0.2946410     0.1124460
  C        2.1660230    -0.5131760    -0.1475910
  C        1.0922740    -0.0266840     0.5021560
  C        4.3244450     0.5343730    -0.8803810
  H       -3.2368266    -0.5253201     1.2629982
  H       -1.1970340     0.8260370     1.6487790
  H        3.6131550     0.3461180     1.1547940
  H        4.1142490    -1.1721620     0.4188690
  H       -2.9813020     1.7413150    -0.7875330
  H       -4.5277090     1.0956620    -0.1864690
  H       -3.4435650     1.9541860     0.9176610
  H       -0.4470010    -0.9272420    -0.7564190
  H        2.0063450    -1.1440610    -1.0244550
  H        1.2471430     0.6066220     1.3780870
  H        4.3142870    -0.0291260    -1.8177910
  H        5.3679410     0.7151030    -0.6066950
  H        3.8442820     1.4990380    -1.0633910
  H       -3.7175750    -1.0591810    -0.9792530
units angstrom
no_reorient  #important for SAPT in psi4, default
symmetry c1  #important for SAPT in psi4, default
}

set PROPERTIES_ORIGIN ["COM"]
properties('MP2/aug-cc-pvtz', properties = ['dipole'])
--------------------------------------------------------------------------

    Molecular point group: c1
  Charge       = 0
  Multiplicity = 1
  Basis Set: AUG-CC-PVTZ
    Blend: AUG-CC-PVTZ
  Basis Set: (AUG-CC-PVTZ AUX)
    Blend: AUG-CC-PVTZ-JKFIT

    Orbital Energies [Eh]
    ---------------------

    Doubly Occupied:

       1A    -20.560343     2A    -11.286278     3A    -11.228059
       4A    -11.225725     5A    -11.224285     6A    -11.223176
       7A    -11.222859     8A    -11.221838     9A    -11.212817
      10A     -1.361117    11A     -1.095743    12A     -1.059979
      13A     -1.015255    14A     -0.959927    15A     -0.878465
      16A     -0.827222    17A     -0.754780    18A     -0.750482
      19A     -0.693175    20A     -0.638139    21A     -0.623423
      22A     -0.617543    23A     -0.591639    24A     -0.582539
      25A     -0.549249    26A     -0.544099    27A     -0.529263
      28A     -0.519143    29A     -0.504468    30A     -0.489645
      31A     -0.478719    32A     -0.467558    33A     -0.453307
      34A     -0.414595    35A     -0.292246

  @DF-RHF Final Energy:  -386.05647168033948

   => Energetics <=

    Nuclear Repulsion Energy =            417.6598309349835745
    One-Electron Energy =               -1351.2384025479173033
    Two-Electron Energy =                 547.5220999325941875
    Total Energy =                       -386.0564716803395413
  Basis Set: (AUG-CC-PVTZ AUX)
    Blend: AUG-CC-PVTZ-RI
    Molecular point group: c1

    Geometry (in Angstrom), charge = 0, multiplicity = 1:

       Center              X                  Y                   Z               Mass
    ------------   -----------------  -----------------  -----------------  -----------------
         O           -2.783740461397    -0.912362649041    -0.751591797158    15.994914619570
         C           -2.768802461397    -0.040749649041     0.379328202842    12.000000000000
         C           -1.359125861397     0.164507450959     0.834890102842    12.000000000000
         C            3.588458538603    -0.226240649041     0.215345202842    12.000000000000
         C           -3.474474461397     1.273063350959     0.058127202842    12.000000000000
         C           -0.279133461397    -0.291581649041     0.105588202842    12.000000000000
         C            2.167111538603    -0.510116649041    -0.154448797158    12.000000000000
         C            1.093362538603    -0.023624649041     0.495298202842    12.000000000000
         C            4.325533538603     0.537432350959    -0.887238797158    12.000000000000
         H           -3.235738061397    -0.522260749041     1.256140402842     1.007825032230
         H           -1.195945461397     0.829096350959     1.641921202842     1.007825032230
         H            3.614243538603     0.349177350959     1.147936202842     1.007825032230
         H            4.115337538603    -1.169102649041     0.412011202842     1.007825032230
         H           -2.980213461397     1.744374350959    -0.794390797158     1.007825032230
         H           -4.526620461397     1.098721350959    -0.193326797158     1.007825032230
         H           -3.442476461397     1.957245350959     0.910803202842     1.007825032230
         H           -0.445912461397    -0.924182649041    -0.763276797158     1.007825032230
         H            2.007433538603    -1.141001649041    -1.031312797158     1.007825032230
         H            1.248231538603     0.609681350959     1.371229202842     1.007825032230
         H            4.315375538603    -0.026066649041    -1.824648797158     1.007825032230
         H            5.369029538603     0.718162350959    -0.613552797158     1.007825032230
         H            3.845370538603     1.502097350959    -1.070248797158     1.007825032230
         H           -3.716486461397    -1.056121649041    -0.986110797158     1.007825032230

  Basis Set: AUG-CC-PVTZ
    Blend: AUG-CC-PVTZ
  Basis Set: (AUG-CC-PVTZ AUX)
    Blend: AUG-CC-PVTZ-JKFIT
	 Reference Energy          =    -386.0564716803394845 [Eh]
	 Singles Energy            =      -0.0000000000000000 [Eh]
	 Same-Spin Energy          =      -0.4008848213131541 [Eh]
	 Opposite-Spin Energy      =      -1.3794106185571149 [Eh]
	 Correlation Energy        =      -1.7802954398702688 [Eh]
	 Total Energy              =    -387.8367671202097426 [Eh]

	 ================> DF-SCS-MP2 Energies <==================
	-----------------------------------------------------------
	 SCS Same-Spin Scale       =       0.3333333333333333 [-]
	 SCS Opposite-Spin Scale   =       1.2000000000000000 [-]
	 SCS Same-Spin Energy      =      -0.1336282737710514 [Eh]
	 SCS Opposite-Spin Energy  =      -1.6552927422685377 [Eh]
	 SCS Correlation Energy    =      -1.7889210160395890 [Eh]
	 SCS Total Energy          =    -387.8453926963790650 [Eh]
	-----------------------------------------------------------

  Dipole Moment: [D]
     X:    -1.1686      Y:     0.7068      Z:     0.5410     Total:     1.4690

*** Psi4 exiting successfully. Buy a developer a beer!
