                               Psi4 1.4a3.dev225

  ==> Input File <==

--------------------------------------------------------------------------
#psi4
#
memory 32 gb

molecule  {
0 1
  O       -2.7624640     1.3159430     0.2248240
  C       -2.8209640    -0.0168770    -0.2887760
  C       -1.4198970    -0.4865040    -0.5315690
  C        3.5469730    -0.0618850    -0.4287090
  C       -3.5485140    -0.9406360     0.6857820
  C       -0.3124200     0.2274490    -0.2577540
  C        2.1505970     0.4383770    -0.2221580
  C        1.0342680    -0.2689350    -0.4861660
  C        4.3265940    -0.1505530     0.8872490
  H       -3.3622360    -0.0200820    -1.2509840
  H       -1.3293920    -1.4912640    -0.9473420
  H        3.5136740    -1.0471260    -0.9088000
  H        4.0812660     0.6062640    -1.1173180
  H       -3.0279280    -0.9272120     1.6463760
  H       -4.5820380    -0.6089360     0.8383050
  H       -3.5770120    -1.9680220     0.3103630
  H       -0.4270254     1.2752406     0.1712438
  H        2.0485920     1.4434520     0.1930580
  H        1.1311650    -1.2755230    -0.8987060
  H        4.3778580     0.8269450     1.3761990
  H        5.3504770    -0.4972710     0.7173650
  H        3.8373540    -0.8453320     1.5752720
  H       -3.6799020     1.6047450     0.3678300
units angstrom
no_reorient  #important for SAPT in psi4, default
symmetry c1  #important for SAPT in psi4, default
}

set PROPERTIES_ORIGIN ["COM"]
properties('MP2/aug-cc-pvtz', properties = ['dipole'])
--------------------------------------------------------------------------

    Molecular point group: c1
  Charge       = 0
  Multiplicity = 1
  Basis Set: AUG-CC-PVTZ
    Blend: AUG-CC-PVTZ
  Basis Set: (AUG-CC-PVTZ AUX)
    Blend: AUG-CC-PVTZ-JKFIT

    Orbital Energies [Eh]
    ---------------------

    Doubly Occupied:

       1A    -20.558689     2A    -11.287067     3A    -11.228883
       4A    -11.226633     5A    -11.224106     6A    -11.223709
       7A    -11.223415     8A    -11.220947     9A    -11.213268
      10A     -1.360046    11A     -1.096456    12A     -1.060446
      13A     -1.015245    14A     -0.961902    15A     -0.876059
      16A     -0.828169    17A     -0.752536    18A     -0.742758
      19A     -0.694597    20A     -0.634554    21A     -0.627040
      22A     -0.616341    23A     -0.589547    24A     -0.582634
      25A     -0.546126    26A     -0.542699    27A     -0.527387
      28A     -0.518202    29A     -0.497628    30A     -0.491018
      31A     -0.479338    32A     -0.467337    33A     -0.452799
      34A     -0.418019    35A     -0.297442

  @DF-RHF Final Energy:  -386.05982215885291

   => Energetics <=

    Nuclear Repulsion Energy =            417.5343444270392865
    One-Electron Energy =               -1351.0222511137831134
    Two-Electron Energy =                 547.4280845278909737
    Total Energy =                       -386.0598221588528531
  Basis Set: (AUG-CC-PVTZ AUX)
    Blend: AUG-CC-PVTZ-RI
    Molecular point group: c1

    Geometry (in Angstrom), charge = 0, multiplicity = 1:

       Center              X                  Y                   Z               Mass
    ------------   -----------------  -----------------  -----------------  -----------------
         O           -2.728232045126     1.292259261416     0.240843173501    15.994914619570
         C           -2.786732045126    -0.040560738584    -0.272756826499    12.000000000000
         C           -1.385665045126    -0.510187738584    -0.515549826499    12.000000000000
         C            3.581204954874    -0.085568738584    -0.412689826499    12.000000000000
         C           -3.514282045126    -0.964319738584     0.701801173501    12.000000000000
         C           -0.278188045126     0.203765261416    -0.241734826499    12.000000000000
         C            2.184828954874     0.414693261416    -0.206138826499    12.000000000000
         C            1.068499954874    -0.292618738584    -0.470146826499    12.000000000000
         C            4.360825954874    -0.174236738584     0.903268173501    12.000000000000
         H           -3.328004045126    -0.043765738584    -1.234964826499     1.007825032230
         H           -1.295160045126    -1.514947738584    -0.931322826499     1.007825032230
         H            3.547905954874    -1.070809738584    -0.892780826499     1.007825032230
         H            4.115497954874     0.582580261416    -1.101298826499     1.007825032230
         H           -2.993696045126    -0.950895738584     1.662395173501     1.007825032230
         H           -4.547806045126    -0.632619738584     0.854324173501     1.007825032230
         H           -3.542780045126    -1.991705738584     0.326382173501     1.007825032230
         H           -0.392793445126     1.251556861416     0.187262973501     1.007825032230
         H            2.082823954874     1.419768261416     0.209077173501     1.007825032230
         H            1.165396954874    -1.299206738584    -0.882686826499     1.007825032230
         H            4.412089954874     0.803261261416     1.392218173501     1.007825032230
         H            5.384708954874    -0.520954738584     0.733384173501     1.007825032230
         H            3.871585954874    -0.869015738584     1.591291173501     1.007825032230
         H           -3.645670045126     1.581061261416     0.383849173501     1.007825032230

  Basis Set: AUG-CC-PVTZ
    Blend: AUG-CC-PVTZ
  Basis Set: (AUG-CC-PVTZ AUX)
    Blend: AUG-CC-PVTZ-JKFIT
	 Reference Energy          =    -386.0598221588529100 [Eh]
	 Singles Energy            =      -0.0000000000000000 [Eh]
	 Same-Spin Energy          =      -0.4004571301568331 [Eh]
	 Opposite-Spin Energy      =      -1.3788637151223846 [Eh]
	 Correlation Energy        =      -1.7793208452792177 [Eh]
	 Total Energy              =    -387.8391430041321541 [Eh]

	 ================> DF-SCS-MP2 Energies <==================
	-----------------------------------------------------------
	 SCS Same-Spin Scale       =       0.3333333333333333 [-]
	 SCS Opposite-Spin Scale   =       1.2000000000000000 [-]
	 SCS Same-Spin Energy      =      -0.1334857100522777 [Eh]
	 SCS Opposite-Spin Energy  =      -1.6546364581468616 [Eh]
	 SCS Correlation Energy    =      -1.7881221681991393 [Eh]
	 SCS Total Energy          =    -387.8479443270520619 [Eh]
	-----------------------------------------------------------

  Dipole Moment: [D]
     X:    -1.1974      Y:    -0.7995      Z:    -0.1451     Total:     1.4470

*** Psi4 exiting successfully. Buy a developer a beer!
