                               Psi4 1.3.2 release

  ==> Input File <==

--------------------------------------------------------------------------
#psi4
#
memory 32 gb

molecule  {
0 1
  O       -2.7848290    -0.9154220    -0.7447340
  C       -2.7698910    -0.0438090     0.3861860
  C       -1.3446020     0.1937550     0.7721520
  C        3.6027733    -0.2593121     0.1823516
  C       -3.4755630     1.2700040     0.0649850
  C       -0.2802220    -0.2946410     0.1124460
  C        2.1660230    -0.5131760    -0.1475910
  C        1.0646007    -0.0496113     0.4718920
  C        4.3244450     0.5343730    -0.8803810
  H       -3.2865450    -0.5271910     1.2335890
  H       -1.1970340     0.8260370     1.6487790
  H        3.6131550     0.3461180     1.1547940
  H        4.1142490    -1.1721620     0.4188690
  H       -2.9813020     1.7413150    -0.7875330
  H       -4.5277090     1.0956620    -0.1864690
  H       -3.4435650     1.9541860     0.9176610
  H       -0.4470010    -0.9272420    -0.7564190
  H        2.0063450    -1.1440610    -1.0244550
  H        1.2471430     0.6066220     1.3780870
  H        4.3142870    -0.0291260    -1.8177910
  H        5.3679410     0.7151030    -0.6066950
  H        3.8442820     1.4990380    -1.0633910
  H       -3.7175750    -1.0591810    -0.9792530
units angstrom
no_reorient  #important for SAPT in psi4, default
symmetry c1  #important for SAPT in psi4, default
}

set PROPERTIES_ORIGIN ["COM"]
properties('MP2/aug-cc-pvtz', properties = ['dipole'])
--------------------------------------------------------------------------

    Molecular point group: c1
  Charge       = 0
  Multiplicity = 1
  Basis Set: AUG-CC-PVTZ
    Blend: AUG-CC-PVTZ
  Basis Set: (AUG-CC-PVTZ AUX)
    Blend: AUG-CC-PVTZ-JKFIT

    Orbital Energies [Eh]
    ---------------------

    Doubly Occupied:

       1A    -20.559268     2A    -11.287437     3A    -11.226636
       4A    -11.225804     5A    -11.225019     6A    -11.224804
       7A    -11.221314     8A    -11.220699     9A    -11.212871
      10A     -1.361368    11A     -1.101270    12A     -1.063099
      13A     -1.020547    14A     -0.964057    15A     -0.880177
      16A     -0.829424    17A     -0.753870    18A     -0.744152
      19A     -0.695199    20A     -0.637273    21A     -0.631677
      22A     -0.617385    23A     -0.594118    24A     -0.582324
      25A     -0.547043    26A     -0.544410    27A     -0.528262
      28A     -0.523382    29A     -0.501604    30A     -0.488529
      31A     -0.474611    32A     -0.460217    33A     -0.454194
      34A     -0.424271    35A     -0.296411

  @DF-RHF Final Energy:  -386.05539594324296

   => Energetics <=

    Nuclear Repulsion Energy =            418.6624784249970617
    One-Electron Energy =               -1353.1902998403702441
    Two-Electron Energy =                 548.4724254721302259
    Total Energy =                       -386.0553959432429565
  Basis Set: (AUG-CC-PVTZ AUX)
    Blend: AUG-CC-PVTZ-RI
    Molecular point group: c1

    Geometry (in Angstrom), charge = 0, multiplicity = 1:

       Center              X                  Y                   Z               Mass
    ------------   -----------------  -----------------  -----------------  -----------------
         O           -2.783661172784    -0.910384324644    -0.738061943739    15.994914619570
         C           -2.768723172784    -0.038771324644     0.392858056261    12.000000000000
         C           -1.343434172784     0.198792675356     0.778824056261    12.000000000000
         C            3.603941127216    -0.254274424644     0.189023656261    12.000000000000
         C           -3.474395172784     1.275041675356     0.071657056261    12.000000000000
         C           -0.279054172784    -0.289603324644     0.119118056261    12.000000000000
         C            2.167190827216    -0.508138324644    -0.140918943739    12.000000000000
         C            1.065768527216    -0.044573624644     0.478564056261    12.000000000000
         C            4.325612827216     0.539410675356    -0.873708943739    12.000000000000
         H           -3.285377172784    -0.522153324644     1.240261056261     1.007825032230
         H           -1.195866172784     0.831074675356     1.655451056261     1.007825032230
         H            3.614322827216     0.351155675356     1.161466056261     1.007825032230
         H            4.115416827216    -1.167124324644     0.425541056261     1.007825032230
         H           -2.980134172784     1.746352675356    -0.780860943739     1.007825032230
         H           -4.526541172784     1.100699675356    -0.179796943739     1.007825032230
         H           -3.442397172784     1.959223675356     0.924333056261     1.007825032230
         H           -0.445833172784    -0.922204324644    -0.749746943739     1.007825032230
         H            2.007512827216    -1.139023324644    -1.017782943739     1.007825032230
         H            1.248310827216     0.611659675356     1.384759056261     1.007825032230
         H            4.315454827216    -0.024088324644    -1.811118943739     1.007825032230
         H            5.369108827216     0.720140675356    -0.600022943739     1.007825032230
         H            3.845449827216     1.504075675356    -1.056718943739     1.007825032230
         H           -3.716407172784    -1.054143324644    -0.972580943739     1.007825032230

  Basis Set: AUG-CC-PVTZ
    Blend: AUG-CC-PVTZ
  Basis Set: (AUG-CC-PVTZ AUX)
    Blend: AUG-CC-PVTZ-JKFIT
	 Reference Energy          =    -386.0553959432429565 [Eh]
	 Singles Energy            =      -0.0000000000000000 [Eh]
	 Same-Spin Energy          =      -0.4011884031531469 [Eh]
	 Opposite-Spin Energy      =      -1.3794649267470225 [Eh]
	 Correlation Energy        =      -1.7806533299001694 [Eh]
	 Total Energy              =    -387.8360492731431464 [Eh]

	 ================> DF-SCS-MP2 Energies <==================
	-----------------------------------------------------------
	 SCS Same-Spin Scale       =       0.3333333333333333 [-]
	 SCS Opposite-Spin Scale   =       1.2000000000000000 [-]
	 SCS Same-Spin Energy      =      -0.1337294677177156 [Eh]
	 SCS Opposite-Spin Energy  =      -1.6553579120964270 [Eh]
	 SCS Correlation Energy    =      -1.7890873798141427 [Eh]
	 SCS Total Energy          =    -387.8444833230570907 [Eh]
	-----------------------------------------------------------

  Dipole Moment: [D]
     X:    -1.2063      Y:     0.6285      Z:     0.5397     Total:     1.4633

*** Psi4 exiting successfully. Buy a developer a beer!
