                               Psi4 1.3.2 release

  ==> Input File <==

--------------------------------------------------------------------------
#psi4
#
memory 32 gb

molecule  {
0 1
  O       -2.7848290    -0.9154220    -0.7447340
  C       -2.7698910    -0.0438090     0.3861860
  C       -1.3446020     0.1937550     0.7721520
  C        3.5873700    -0.2293000     0.2222030
  C       -3.4755630     1.2700040     0.0649850
  C       -0.2802220    -0.2946410     0.1124460
  C        2.1660230    -0.5131760    -0.1475910
  C        1.0922740    -0.0266840     0.5021560
  C        4.3244450     0.5343730    -0.8803810
  H       -3.2865450    -0.5271910     1.2335890
  H       -1.1970340     0.8260370     1.6487790
  H        3.6131550     0.3461180     1.1547940
  H        4.1142490    -1.1721620     0.4188690
  H       -2.9813020     1.7413150    -0.7875330
  H       -4.5277090     1.0956620    -0.1864690
  H       -3.4435650     1.9541860     0.9176610
  H       -0.4470010    -0.9272420    -0.7564190
  H        2.0063450    -1.1440610    -1.0244550
  H        1.2471430     0.6066220     1.3780870
  H        4.3142870    -0.0291260    -1.8177910
  H        5.3679410     0.7151030    -0.6066950
  H        3.8442820     1.4990380    -1.0633910
  H       -3.6216590    -1.0443980    -0.9551370
units angstrom
no_reorient  #important for SAPT in psi4, default
symmetry c1  #important for SAPT in psi4, default
}

set PROPERTIES_ORIGIN ["COM"]
properties('MP2/aug-cc-pvtz', properties = ['dipole'])
--------------------------------------------------------------------------

    Molecular point group: c1
  Charge       = 0
  Multiplicity = 1
  Basis Set: AUG-CC-PVTZ
    Blend: AUG-CC-PVTZ
  Basis Set: (AUG-CC-PVTZ AUX)
    Blend: AUG-CC-PVTZ-JKFIT

    Orbital Energies [Eh]
    ---------------------

    Doubly Occupied:

       1A    -20.548655     2A    -11.287567     3A    -11.226166
       4A    -11.223916     5A    -11.223426     6A    -11.223207
       7A    -11.222042     8A    -11.221309     9A    -11.213019
      10A     -1.386211    11A     -1.098999    12A     -1.064346
      13A     -1.018060    14A     -0.962824    15A     -0.879064
      16A     -0.831369    17A     -0.756957    18A     -0.752274
      19A     -0.705169    20A     -0.639221    21A     -0.628003
      22A     -0.621867    23A     -0.591237    24A     -0.584269
      25A     -0.549142    26A     -0.544021    27A     -0.528395
      28A     -0.519289    29A     -0.501278    30A     -0.494962
      31A     -0.479468    32A     -0.468753    33A     -0.455538
      34A     -0.418699    35A     -0.297761

  @DF-RHF Final Energy:  -386.05767286451436

   => Energetics <=

    Nuclear Repulsion Energy =            418.9511223203374470
    One-Electron Energy =               -1353.6846178414255064
    Two-Electron Energy =                 548.6758226565738141
    Total Energy =                       -386.0576728645143021
  Basis Set: (AUG-CC-PVTZ AUX)
    Blend: AUG-CC-PVTZ-RI
    Molecular point group: c1

    Geometry (in Angstrom), charge = 0, multiplicity = 1:

       Center              X                  Y                   Z               Mass
    ------------   -----------------  -----------------  -----------------  -----------------
         O           -2.785595335430    -0.915540141110    -0.744926803821    15.994914619570
         C           -2.770657335430    -0.043927141110     0.385993196179    12.000000000000
         C           -1.345368335430     0.193636858890     0.771959196179    12.000000000000
         C            3.586603664570    -0.229418141110     0.222010196179    12.000000000000
         C           -3.476329335430     1.269885858890     0.064792196179    12.000000000000
         C           -0.280988335430    -0.294759141110     0.112253196179    12.000000000000
         C            2.165256664570    -0.513294141110    -0.147783803821    12.000000000000
         C            1.091507664570    -0.026802141110     0.501963196179    12.000000000000
         C            4.323678664570     0.534254858890    -0.880573803821    12.000000000000
         H           -3.287311335430    -0.527309141110     1.233396196179     1.007825032230
         H           -1.197800335430     0.825918858890     1.648586196179     1.007825032230
         H            3.612388664570     0.345999858890     1.154601196179     1.007825032230
         H            4.113482664570    -1.172280141110     0.418676196179     1.007825032230
         H           -2.982068335430     1.741196858890    -0.787725803821     1.007825032230
         H           -4.528475335430     1.095543858890    -0.186661803821     1.007825032230
         H           -3.444331335430     1.954067858890     0.917468196179     1.007825032230
         H           -0.447767335430    -0.927360141110    -0.756611803821     1.007825032230
         H            2.005578664570    -1.144179141110    -1.024647803821     1.007825032230
         H            1.246376664570     0.606503858890     1.377894196179     1.007825032230
         H            4.313520664570    -0.029244141110    -1.817983803821     1.007825032230
         H            5.367174664570     0.714984858890    -0.606887803821     1.007825032230
         H            3.843515664570     1.498919858890    -1.063583803821     1.007825032230
         H           -3.622425335430    -1.044516141110    -0.955329803821     1.007825032230

  Basis Set: AUG-CC-PVTZ
    Blend: AUG-CC-PVTZ
  Basis Set: (AUG-CC-PVTZ AUX)
    Blend: AUG-CC-PVTZ-JKFIT
	 Reference Energy          =    -386.0576728645143589 [Eh]
	 Singles Energy            =      -0.0000000000000000 [Eh]
	 Same-Spin Energy          =      -0.3991356081296312 [Eh]
	 Opposite-Spin Energy      =      -1.3753038991429103 [Eh]
	 Correlation Energy        =      -1.7744395072725414 [Eh]
	 Total Energy              =    -387.8321123717868772 [Eh]

	 ================> DF-SCS-MP2 Energies <==================
	-----------------------------------------------------------
	 SCS Same-Spin Scale       =       0.3333333333333333 [-]
	 SCS Opposite-Spin Scale   =       1.2000000000000000 [-]
	 SCS Same-Spin Energy      =      -0.1330452027098770 [Eh]
	 SCS Opposite-Spin Energy  =      -1.6503646789714923 [Eh]
	 SCS Correlation Energy    =      -1.7834098816813693 [Eh]
	 SCS Total Energy          =    -387.8410827461957524 [Eh]
	-----------------------------------------------------------

  Dipole Moment: [D]
     X:    -1.0948      Y:     0.6736      Z:     0.6118     Total:     1.4235

*** Psi4 exiting successfully. Buy a developer a beer!
