                               Psi4 1.3.2 release

  ==> Input File <==

--------------------------------------------------------------------------
#psi4
#
memory 32 gb

molecule  {
0 1
  O       -2.7848290    -0.9154220    -0.7447340
  C       -2.7698910    -0.0438090     0.3861860
  C       -1.3446020     0.1937550     0.7721520
  C        3.5873700    -0.2293000     0.2222030
  C       -3.4755630     1.2700040     0.0649850
  C       -0.2802220    -0.2946410     0.1124460
  C        2.1922272    -0.5511256    -0.2108853
  C        1.0922740    -0.0266840     0.5021560
  C        4.3244450     0.5343730    -0.8803810
  H       -3.2865450    -0.5271910     1.2335890
  H       -1.1970340     0.8260370     1.6487790
  H        3.6704383     0.3462618     1.1513558
  H        4.1142490    -1.1721620     0.4188690
  H       -2.9813020     1.7413150    -0.7875330
  H       -4.5277090     1.0956620    -0.1864690
  H       -3.4435650     1.9541860     0.9176610
  H       -0.4470010    -0.9272420    -0.7564190
  H        2.0063450    -1.1440610    -1.0244550
  H        1.2471430     0.6066220     1.3780870
  H        4.3142870    -0.0291260    -1.8177910
  H        5.3679410     0.7151030    -0.6066950
  H        3.8442820     1.4990380    -1.0633910
  H       -3.7175750    -1.0591810    -0.9792530
units angstrom
no_reorient  #important for SAPT in psi4, default
symmetry c1  #important for SAPT in psi4, default
}

set PROPERTIES_ORIGIN ["COM"]
properties('MP2/aug-cc-pvtz', properties = ['dipole'])
--------------------------------------------------------------------------

    Molecular point group: c1
  Charge       = 0
  Multiplicity = 1
  Basis Set: AUG-CC-PVTZ
    Blend: AUG-CC-PVTZ
  Basis Set: (AUG-CC-PVTZ AUX)
    Blend: AUG-CC-PVTZ-JKFIT

    Orbital Energies [Eh]
    ---------------------

    Doubly Occupied:

       1A    -20.558607     2A    -11.286214     3A    -11.232823
       4A    -11.229909     5A    -11.223522     6A    -11.223011
       7A    -11.221376     8A    -11.220406     9A    -11.211523
      10A     -1.360630    11A     -1.092904    12A     -1.060781
      13A     -1.014610    14A     -0.956719    15A     -0.876894
      16A     -0.824752    17A     -0.766932    18A     -0.746816
      19A     -0.694327    20A     -0.637451    21A     -0.625576
      22A     -0.616983    23A     -0.592996    24A     -0.578893
      25A     -0.550430    26A     -0.545182    27A     -0.530065
      28A     -0.514397    29A     -0.499577    30A     -0.494888
      31A     -0.486140    32A     -0.463776    33A     -0.452377
      34A     -0.412697    35A     -0.288406

  @DF-RHF Final Energy:  -386.05036484914751

   => Energetics <=

    Nuclear Repulsion Energy =            417.4990177045030464
    One-Electron Energy =               -1350.9135837056085165
    Two-Electron Energy =                 547.3642011519579000
    Total Energy =                       -386.0503648491475133
  Basis Set: (AUG-CC-PVTZ AUX)
    Blend: AUG-CC-PVTZ-RI
    Molecular point group: c1

    Geometry (in Angstrom), charge = 0, multiplicity = 1:

       Center              X                  Y                   Z               Mass
    ------------   -----------------  -----------------  -----------------  -----------------
         O           -2.787780154165    -0.911811891266    -0.738683556114    15.994914619570
         C           -2.772842154165    -0.040198891266     0.392236443886    12.000000000000
         C           -1.347553154165     0.197365108734     0.778202443886    12.000000000000
         C            3.584418845835    -0.225689891266     0.228253443886    12.000000000000
         C           -3.478514154165     1.273614108734     0.071035443886    12.000000000000
         C           -0.283173154165    -0.291030891266     0.118496443886    12.000000000000
         C            2.189276045835    -0.547515491266    -0.204834856114    12.000000000000
         C            1.089322845835    -0.023073891266     0.508206443886    12.000000000000
         C            4.321493845835     0.537983108734    -0.874330556114    12.000000000000
         H           -3.289496154165    -0.523580891266     1.239639443886     1.007825032230
         H           -1.199985154165     0.829647108734     1.654829443886     1.007825032230
         H            3.667487145835     0.349871908734     1.157406243886     1.007825032230
         H            4.111297845835    -1.168551891266     0.424919443886     1.007825032230
         H           -2.984253154165     1.744925108734    -0.781482556114     1.007825032230
         H           -4.530660154165     1.099272108734    -0.180418556114     1.007825032230
         H           -3.446516154165     1.957796108734     0.923711443886     1.007825032230
         H           -0.449952154165    -0.923631891266    -0.750368556114     1.007825032230
         H            2.003393845835    -1.140450891266    -1.018404556114     1.007825032230
         H            1.244191845835     0.610232108734     1.384137443886     1.007825032230
         H            4.311335845835    -0.025515891266    -1.811740556114     1.007825032230
         H            5.364989845835     0.718713108734    -0.600644556114     1.007825032230
         H            3.841330845835     1.502648108734    -1.057340556114     1.007825032230
         H           -3.720526154165    -1.055570891266    -0.973202556114     1.007825032230

  Basis Set: AUG-CC-PVTZ
    Blend: AUG-CC-PVTZ
  Basis Set: (AUG-CC-PVTZ AUX)
    Blend: AUG-CC-PVTZ-JKFIT
	 Reference Energy          =    -386.0503648491475133 [Eh]
	 Singles Energy            =      -0.0000000000000000 [Eh]
	 Same-Spin Energy          =      -0.4012067981181028 [Eh]
	 Opposite-Spin Energy      =      -1.3803080620294077 [Eh]
	 Correlation Energy        =      -1.7815148601475106 [Eh]
	 Total Energy              =    -387.8318797092950376 [Eh]

	 ================> DF-SCS-MP2 Energies <==================
	-----------------------------------------------------------
	 SCS Same-Spin Scale       =       0.3333333333333333 [-]
	 SCS Opposite-Spin Scale   =       1.2000000000000000 [-]
	 SCS Same-Spin Energy      =      -0.1337355993727009 [Eh]
	 SCS Opposite-Spin Energy  =      -1.6563696744352892 [Eh]
	 SCS Correlation Energy    =      -1.7901052738079901 [Eh]
	 SCS Total Energy          =    -387.8404701229554803 [Eh]
	-----------------------------------------------------------

  Dipole Moment: [D]
     X:    -1.1633      Y:     0.6198      Z:     0.5870     Total:     1.4429

*** Psi4 exiting successfully. Buy a developer a beer!
