                               Psi4 1.3.2 release

  ==> Input File <==

--------------------------------------------------------------------------
#psi4
#
memory 32 gb

molecule  {
0 1
  O       -2.7848290    -0.9154220    -0.7447340
  C       -2.7698910    -0.0438090     0.3861860
  C       -1.3446020     0.1937550     0.7721520
  C        3.5873700    -0.2293000     0.2222030
  C       -3.4755630     1.2700040     0.0649850
  C       -0.2802220    -0.2946410     0.1124460
  C        2.1730641    -0.5077200    -0.1399341
  C        1.0922740    -0.0266840     0.5021560
  C        4.3244450     0.5343730    -0.8803810
  H       -3.2865450    -0.5271910     1.2335890
  H       -1.1970340     0.8260370     1.6487790
  H        3.6131550     0.3461180     1.1547940
  H        4.1142490    -1.1721620     0.4188690
  H       -2.9813020     1.7413150    -0.7875330
  H       -4.5277090     1.0956620    -0.1864690
  H       -3.4435650     1.9541860     0.9176610
  H       -0.4470010    -0.9272420    -0.7564190
  H        2.0063450    -1.1440610    -1.0244550
  H        1.2565689     0.6057173     1.3770227
  H        4.3142870    -0.0291260    -1.8177910
  H        5.3679410     0.7151030    -0.6066950
  H        3.8442820     1.4990380    -1.0633910
  H       -3.7175750    -1.0591810    -0.9792530
units angstrom
no_reorient  #important for SAPT in psi4, default
symmetry c1  #important for SAPT in psi4, default
}

set PROPERTIES_ORIGIN ["COM"]
properties('MP2/aug-cc-pvtz', properties = ['dipole'])
--------------------------------------------------------------------------

    Molecular point group: c1
  Charge       = 0
  Multiplicity = 1
  Basis Set: AUG-CC-PVTZ
    Blend: AUG-CC-PVTZ
  Basis Set: (AUG-CC-PVTZ AUX)
    Blend: AUG-CC-PVTZ-JKFIT

    Orbital Energies [Eh]
    ---------------------

    Doubly Occupied:

       1A    -20.558806     2A    -11.286579     3A    -11.226173
       4A    -11.223903     5A    -11.223065     6A    -11.222863
       7A    -11.222065     8A    -11.220710     9A    -11.213118
      10A     -1.360851    11A     -1.098248    12A     -1.062167
      13A     -1.016350    14A     -0.962566    15A     -0.877296
      16A     -0.829330    17A     -0.750864    18A     -0.748021
      19A     -0.695318    20A     -0.637144    21A     -0.628139
      22A     -0.617391    23A     -0.590774    24A     -0.583293
      25A     -0.546414    26A     -0.542821    27A     -0.526355
      28A     -0.520011    29A     -0.501255    30A     -0.492638
      31A     -0.477872    32A     -0.469174    33A     -0.452942
      34A     -0.418136    35A     -0.297439

  @DF-RHF Final Energy:  -386.06223108736873

   => Energetics <=

    Nuclear Repulsion Energy =            418.3194521003186992
    One-Electron Energy =               -1352.5631912959474903
    Two-Electron Energy =                 548.1815081082601182
    Total Energy =                       -386.0622310873686729
  Basis Set: (AUG-CC-PVTZ AUX)
    Blend: AUG-CC-PVTZ-RI
    Molecular point group: c1

    Geometry (in Angstrom), charge = 0, multiplicity = 1:

       Center              X                  Y                   Z               Mass
    ------------   -----------------  -----------------  -----------------  -----------------
         O           -2.785574133263    -0.915933953836    -0.745454187711    15.994914619570
         C           -2.770636133263    -0.044320953836     0.385465812289    12.000000000000
         C           -1.345347133263     0.193243046164     0.771431812289    12.000000000000
         C            3.586624866737    -0.229811953836     0.221482812289    12.000000000000
         C           -3.476308133263     1.269492046164     0.064264812289    12.000000000000
         C           -0.280967133263    -0.295152953836     0.111725812289    12.000000000000
         C            2.172318966737    -0.508231953836    -0.140654287711    12.000000000000
         C            1.091528866737    -0.027195953836     0.501435812289    12.000000000000
         C            4.323699866737     0.533861046164    -0.881101187711    12.000000000000
         H           -3.287290133263    -0.527702953836     1.232868812289     1.007825032230
         H           -1.197779133263     0.825525046164     1.648058812289     1.007825032230
         H            3.612409866737     0.345606046164     1.154073812289     1.007825032230
         H            4.113503866737    -1.172673953836     0.418148812289     1.007825032230
         H           -2.982047133263     1.740803046164    -0.788253187711     1.007825032230
         H           -4.528454133263     1.095150046164    -0.187189187711     1.007825032230
         H           -3.444310133263     1.953674046164     0.916940812289     1.007825032230
         H           -0.447746133263    -0.927753953836    -0.757139187711     1.007825032230
         H            2.005599866737    -1.144572953836    -1.025175187711     1.007825032230
         H            1.255823766737     0.605205346164     1.376302512289     1.007825032230
         H            4.313541866737    -0.029637953836    -1.818511187711     1.007825032230
         H            5.367195866737     0.714591046164    -0.607415187711     1.007825032230
         H            3.843536866737     1.498526046164    -1.064111187711     1.007825032230
         H           -3.718320133263    -1.059692953836    -0.979973187711     1.007825032230

  Basis Set: AUG-CC-PVTZ
    Blend: AUG-CC-PVTZ
  Basis Set: (AUG-CC-PVTZ AUX)
    Blend: AUG-CC-PVTZ-JKFIT
	 Reference Energy          =    -386.0622310873687297 [Eh]
	 Singles Energy            =      -0.0000000000000000 [Eh]
	 Same-Spin Energy          =      -0.4004654195732102 [Eh]
	 Opposite-Spin Energy      =      -1.3784230995767519 [Eh]
	 Correlation Energy        =      -1.7788885191499622 [Eh]
	 Total Energy              =    -387.8411196065187028 [Eh]

	 ================> DF-SCS-MP2 Energies <==================
	-----------------------------------------------------------
	 SCS Same-Spin Scale       =       0.3333333333333333 [-]
	 SCS Opposite-Spin Scale   =       1.2000000000000000 [-]
	 SCS Same-Spin Energy      =      -0.1334884731910701 [Eh]
	 SCS Opposite-Spin Energy  =      -1.6541077194921023 [Eh]
	 SCS Correlation Energy    =      -1.7875961926831725 [Eh]
	 SCS Total Energy          =    -387.8498272800518976 [Eh]
	-----------------------------------------------------------

  Dipole Moment: [D]
     X:    -1.1540      Y:     0.6461      Z:     0.5801     Total:     1.4442

*** Psi4 exiting successfully. Buy a developer a beer!
