                               Psi4 1.3.2 release

  ==> Input File <==

--------------------------------------------------------------------------
#psi4
#
memory 32 gb

molecule  {
0 1
  O       -2.8346226    -0.9132553    -0.7446479
  C       -2.7698910    -0.0438090     0.3861860
  C       -1.3611911     0.2244216     0.8110059
  C        3.5873700    -0.2293000     0.2222030
  C       -3.4755630     1.2700040     0.0649850
  C       -0.2802220    -0.2946410     0.1124460
  C        2.1660230    -0.5131760    -0.1475910
  C        1.0922740    -0.0266840     0.5021560
  C        4.3244450     0.5343730    -0.8803810
  H       -3.2865450    -0.5271910     1.2335890
  H       -1.1970340     0.8260370     1.6487790
  H        3.6131550     0.3461180     1.1547940
  H        4.1142490    -1.1721620     0.4188690
  H       -2.9813020     1.7413150    -0.7875330
  H       -4.5277090     1.0956620    -0.1864690
  H       -3.4435650     1.9541860     0.9176610
  H       -0.4470010    -0.9272420    -0.7564190
  H        2.0063450    -1.1440610    -1.0244550
  H        1.2471430     0.6066220     1.3780870
  H        4.3142870    -0.0291260    -1.8177910
  H        5.3679410     0.7151030    -0.6066950
  H        3.8442820     1.4990380    -1.0633910
  H       -3.7175750    -1.0591810    -0.9792530
units angstrom
no_reorient  #important for SAPT in psi4, default
symmetry c1  #important for SAPT in psi4, default
}

set PROPERTIES_ORIGIN ["COM"]
properties('MP2/aug-cc-pvtz', properties = ['dipole'])
--------------------------------------------------------------------------

    Molecular point group: c1
  Charge       = 0
  Multiplicity = 1
  Basis Set: AUG-CC-PVTZ
    Blend: AUG-CC-PVTZ
  Basis Set: (AUG-CC-PVTZ AUX)
    Blend: AUG-CC-PVTZ-JKFIT

    Orbital Energies [Eh]
    ---------------------

    Doubly Occupied:

       1A    -20.553456     2A    -11.287283     3A    -11.230727
       4A    -11.226525     5A    -11.226401     6A    -11.223824
       7A    -11.223579     8A    -11.219073     9A    -11.213218
      10A     -1.369297    11A     -1.096787    12A     -1.062051
      13A     -1.016211    14A     -0.959184    15A     -0.877930
      16A     -0.828027    17A     -0.763973    18A     -0.751021
      19A     -0.697878    20A     -0.639943    21A     -0.624865
      22A     -0.617924    23A     -0.595107    24A     -0.583878
      25A     -0.550095    26A     -0.542638    27A     -0.528113
      28A     -0.520170    29A     -0.506831    30A     -0.489670
      31A     -0.479179    32A     -0.467731    33A     -0.452794
      34A     -0.414993    35A     -0.292302

  @DF-RHF Final Energy:  -386.05759271297359

   => Energetics <=

    Nuclear Repulsion Energy =            417.4873996896110384
    One-Electron Energy =               -1350.8246261896563283
    Two-Electron Energy =                 547.2796337870717025
    Total Energy =                       -386.0575927129735874
  Basis Set: (AUG-CC-PVTZ AUX)
    Blend: AUG-CC-PVTZ-RI
    Molecular point group: c1

    Geometry (in Angstrom), charge = 0, multiplicity = 1:

       Center              X                  Y                   Z               Mass
    ------------   -----------------  -----------------  -----------------  -----------------
         O           -2.826728019848    -0.916448325919    -0.748356195945    15.994914619570
         C           -2.761996419848    -0.047002025919     0.382477704055    12.000000000000
         C           -1.353296519848     0.221228574081     0.807297604055    12.000000000000
         C            3.595264580152    -0.232493025919     0.218494704055    12.000000000000
         C           -3.467668419848     1.266810974081     0.061276704055    12.000000000000
         C           -0.272327419848    -0.297834025919     0.108737704055    12.000000000000
         C            2.173917580152    -0.516369025919    -0.151299295945    12.000000000000
         C            1.100168580152    -0.029877025919     0.498447704055    12.000000000000
         C            4.332339580152     0.531179974081    -0.884089295945    12.000000000000
         H           -3.278650419848    -0.530384025919     1.229880704055     1.007825032230
         H           -1.189139419848     0.822843974081     1.645070704055     1.007825032230
         H            3.621049580152     0.342924974081     1.151085704055     1.007825032230
         H            4.122143580152    -1.175355025919     0.415160704055     1.007825032230
         H           -2.973407419848     1.738121974081    -0.791241295945     1.007825032230
         H           -4.519814419848     1.092468974081    -0.190177295945     1.007825032230
         H           -3.435670419848     1.950992974081     0.913952704055     1.007825032230
         H           -0.439106419848    -0.930435025919    -0.760127295945     1.007825032230
         H            2.014239580152    -1.147254025919    -1.028163295945     1.007825032230
         H            1.255037580152     0.603428974081     1.374378704055     1.007825032230
         H            4.322181580152    -0.032319025919    -1.821499295945     1.007825032230
         H            5.375835580152     0.711909974081    -0.610403295945     1.007825032230
         H            3.852176580152     1.495844974081    -1.067099295945     1.007825032230
         H           -3.709680419848    -1.062374025919    -0.982961295945     1.007825032230

  Basis Set: AUG-CC-PVTZ
    Blend: AUG-CC-PVTZ
  Basis Set: (AUG-CC-PVTZ AUX)
    Blend: AUG-CC-PVTZ-JKFIT
	 Reference Energy          =    -386.0575927129735874 [Eh]
	 Singles Energy            =      -0.0000000000000000 [Eh]
	 Same-Spin Energy          =      -0.4001004640445708 [Eh]
	 Opposite-Spin Energy      =      -1.3776739597128471 [Eh]
	 Correlation Energy        =      -1.7777744237574180 [Eh]
	 Total Energy              =    -387.8353671367310085 [Eh]

	 ================> DF-SCS-MP2 Energies <==================
	-----------------------------------------------------------
	 SCS Same-Spin Scale       =       0.3333333333333333 [-]
	 SCS Opposite-Spin Scale   =       1.2000000000000000 [-]
	 SCS Same-Spin Energy      =      -0.1333668213481903 [Eh]
	 SCS Opposite-Spin Energy  =      -1.6532087516554166 [Eh]
	 SCS Correlation Energy    =      -1.7865755730036068 [Eh]
	 SCS Total Energy          =    -387.8441682859772186 [Eh]
	-----------------------------------------------------------

  Dipole Moment: [D]
     X:    -1.0444      Y:     0.6465      Z:     0.6154     Total:     1.3739

*** Psi4 exiting successfully. Buy a developer a beer!
