                               Psi4 1.3.2 release

  ==> Input File <==

--------------------------------------------------------------------------
#psi4
#
memory 32 gb

molecule  {
0 1
  O       -2.7848290    -0.9154220    -0.7447340
  C       -2.7698910    -0.0438090     0.3861860
  C       -1.3446020     0.1937550     0.7721520
  C        3.6098062    -0.2728284     0.1610892
  C       -3.4755630     1.2700040     0.0649850
  C       -0.2802220    -0.2946410     0.1124460
  C        2.1660230    -0.5131760    -0.1475910
  C        1.0922740    -0.0266840     0.5021560
  C        4.3244450     0.5343730    -0.8803810
  H       -3.2865450    -0.5271910     1.2335890
  H       -1.1970340     0.8260370     1.6487790
  H        3.6131550     0.3461180     1.1547940
  H        4.1142490    -1.1721620     0.4188690
  H       -2.9813020     1.7413150    -0.7875330
  H       -4.5277090     1.0956620    -0.1864690
  H       -3.4435650     1.9541860     0.9176610
  H       -0.4470010    -0.9272420    -0.7564190
  H        2.0630956    -1.1475753    -1.0303973
  H        1.2471430     0.6066220     1.3780870
  H        4.3142870    -0.0291260    -1.8177910
  H        5.3679410     0.7151030    -0.6066950
  H        3.8442820     1.4990380    -1.0633910
  H       -3.7175750    -1.0591810    -0.9792530
units angstrom
no_reorient  #important for SAPT in psi4, default
symmetry c1  #important for SAPT in psi4, default
}

set PROPERTIES_ORIGIN ["COM"]
properties('MP2/aug-cc-pvtz', properties = ['dipole'])
--------------------------------------------------------------------------

    Molecular point group: c1
  Charge       = 0
  Multiplicity = 1
  Basis Set: AUG-CC-PVTZ
    Blend: AUG-CC-PVTZ
  Basis Set: (AUG-CC-PVTZ AUX)
    Blend: AUG-CC-PVTZ-JKFIT

    Orbital Energies [Eh]
    ---------------------

    Doubly Occupied:

       1A    -20.559004     2A    -11.286899     3A    -11.227143
       4A    -11.225584     5A    -11.224406     6A    -11.224185
       7A    -11.222568     8A    -11.220952     9A    -11.212203
      10A     -1.361063    11A     -1.098324    12A     -1.063337
      13A     -1.018667    14A     -0.964257    15A     -0.877800
      16A     -0.828755    17A     -0.750575    18A     -0.748421
      19A     -0.695630    20A     -0.637617    21A     -0.630141
      22A     -0.617433    23A     -0.593102    24A     -0.582189
      25A     -0.547408    26A     -0.545692    27A     -0.531116
      28A     -0.527357    29A     -0.502957    30A     -0.492407
      31A     -0.470366    32A     -0.453482    33A     -0.452679
      34A     -0.420324    35A     -0.299221

  @DF-RHF Final Energy:  -386.05477468887864

   => Energetics <=

    Nuclear Repulsion Energy =            418.2737545119481979
    One-Electron Energy =               -1352.4305257980697661
    Two-Electron Energy =                 548.1019965972428736
    Total Energy =                       -386.0547746888786378
  Basis Set: (AUG-CC-PVTZ AUX)
    Blend: AUG-CC-PVTZ-RI
    Molecular point group: c1

    Geometry (in Angstrom), charge = 0, multiplicity = 1:

       Center              X                  Y                   Z               Mass
    ------------   -----------------  -----------------  -----------------  -----------------
         O           -2.787417336969    -0.911251781640    -0.738871038018    15.994914619570
         C           -2.772479336969    -0.039638781640     0.392048961982    12.000000000000
         C           -1.347190336969     0.197925218360     0.778014961982    12.000000000000
         C            3.607217863031    -0.268658181640     0.166952161982    12.000000000000
         C           -3.478151336969     1.274174218360     0.070847961982    12.000000000000
         C           -0.282810336969    -0.290470781640     0.118308961982    12.000000000000
         C            2.163434663031    -0.509005781640    -0.141728038018    12.000000000000
         C            1.089685663031    -0.022513781640     0.508018961982    12.000000000000
         C            4.321856663031     0.538543218360    -0.874518038018    12.000000000000
         H           -3.289133336969    -0.523020781640     1.239451961982     1.007825032230
         H           -1.199622336969     0.830207218360     1.654641961982     1.007825032230
         H            3.610566663031     0.350288218360     1.160656961982     1.007825032230
         H            4.111660663031    -1.167991781640     0.424731961982     1.007825032230
         H           -2.983890336969     1.745485218360    -0.781670038018     1.007825032230
         H           -4.530297336969     1.099832218360    -0.180606038018     1.007825032230
         H           -3.446153336969     1.958356218360     0.923523961982     1.007825032230
         H           -0.449589336969    -0.923071781640    -0.750556038018     1.007825032230
         H            2.060507263031    -1.143405081640    -1.024534338018     1.007825032230
         H            1.244554663031     0.610792218360     1.383949961982     1.007825032230
         H            4.311698663031    -0.024955781640    -1.811928038018     1.007825032230
         H            5.365352663031     0.719273218360    -0.600832038018     1.007825032230
         H            3.841693663031     1.503208218360    -1.057528038018     1.007825032230
         H           -3.720163336969    -1.055010781640    -0.973390038018     1.007825032230

  Basis Set: AUG-CC-PVTZ
    Blend: AUG-CC-PVTZ
  Basis Set: (AUG-CC-PVTZ AUX)
    Blend: AUG-CC-PVTZ-JKFIT
	 Reference Energy          =    -386.0547746888786378 [Eh]
	 Singles Energy            =      -0.0000000000000000 [Eh]
	 Same-Spin Energy          =      -0.4006253681158197 [Eh]
	 Opposite-Spin Energy      =      -1.3790053218564431 [Eh]
	 Correlation Energy        =      -1.7796306899722629 [Eh]
	 Total Energy              =    -387.8344053788508745 [Eh]

	 ================> DF-SCS-MP2 Energies <==================
	-----------------------------------------------------------
	 SCS Same-Spin Scale       =       0.3333333333333333 [-]
	 SCS Opposite-Spin Scale   =       1.2000000000000000 [-]
	 SCS Same-Spin Energy      =      -0.1335417893719399 [Eh]
	 SCS Opposite-Spin Energy  =      -1.6548063862277316 [Eh]
	 SCS Correlation Energy    =      -1.7883481755996715 [Eh]
	 SCS Total Energy          =    -387.8431228644782891 [Eh]
	-----------------------------------------------------------

  Dipole Moment: [D]
     X:    -1.1952      Y:     0.6240      Z:     0.5396     Total:     1.4522

*** Psi4 exiting successfully. Buy a developer a beer!
