                               Psi4 1.4a3.dev225

  ==> Input File <==

--------------------------------------------------------------------------
#psi4
#
memory 32 gb

molecule  {
0 1
  O       -2.7624640     1.3159430     0.2248240
  C       -2.8209640    -0.0168770    -0.2887760
  C       -1.4198970    -0.4865040    -0.5315690
  C        3.5469730    -0.0618850    -0.4287090
  C       -3.5485140    -0.9406360     0.6857820
  C       -0.3124200     0.2274490    -0.2577540
  C        2.1505970     0.4383770    -0.2221580
  C        1.0342680    -0.2689350    -0.4861660
  C        4.3265940    -0.1505530     0.8872490
  H       -3.3622360    -0.0200820    -1.2509840
  H       -1.3252448    -1.5373055    -0.9663941
  H        3.5136740    -1.0471260    -0.9088000
  H        4.0812660     0.6062640    -1.1173180
  H       -3.0279280    -0.9272120     1.6463760
  H       -4.5820380    -0.6089360     0.8383050
  H       -3.5770120    -1.9680220     0.3103630
  H       -0.4219900     1.2292040     0.1523950
  H        2.0485920     1.4434520     0.1930580
  H        1.1311650    -1.2755230    -0.8987060
  H        4.3778580     0.8269450     1.3761990
  H        5.3504770    -0.4972710     0.7173650
  H        3.8373540    -0.8453320     1.5752720
  H       -3.6799020     1.6047450     0.3678300
units angstrom
no_reorient  #important for SAPT in psi4, default
symmetry c1  #important for SAPT in psi4, default
}

set PROPERTIES_ORIGIN ["COM"]
properties('MP2/aug-cc-pvtz', properties = ['dipole'])
--------------------------------------------------------------------------

    Molecular point group: c1
  Charge       = 0
  Multiplicity = 1
  Basis Set: AUG-CC-PVTZ
    Blend: AUG-CC-PVTZ
  Basis Set: (AUG-CC-PVTZ AUX)
    Blend: AUG-CC-PVTZ-JKFIT

    Orbital Energies [Eh]
    ---------------------

    Doubly Occupied:

       1A    -20.559261     2A    -11.287668     3A    -11.229355
       4A    -11.226582     5A    -11.224238     6A    -11.223740
       7A    -11.223390     8A    -11.220968     9A    -11.213257
      10A     -1.360596    11A     -1.096769    12A     -1.059982
      13A     -1.015769    14A     -0.961628    15A     -0.876252
      16A     -0.828598    17A     -0.752310    18A     -0.742009
      19A     -0.695040    20A     -0.637104    21A     -0.626566
      22A     -0.616871    23A     -0.589399    24A     -0.581325
      25A     -0.545695    26A     -0.541880    27A     -0.527091
      28A     -0.518100    29A     -0.499060    30A     -0.492732
      31A     -0.479301    32A     -0.467608    33A     -0.453175
      34A     -0.418126    35A     -0.297615

  @DF-RHF Final Energy:  -386.05997448133752

   => Energetics <=

    Nuclear Repulsion Energy =            417.5144320318961491
    One-Electron Energy =               -1350.9706962103598471
    Two-Electron Energy =                 547.3962896971261216
    Total Energy =                       -386.0599744813375764
  Basis Set: (AUG-CC-PVTZ AUX)
    Blend: AUG-CC-PVTZ-RI
    Molecular point group: c1

    Geometry (in Angstrom), charge = 0, multiplicity = 1:

       Center              X                  Y                   Z               Mass
    ------------   -----------------  -----------------  -----------------  -----------------
         O           -2.728305432331     1.292995148238     0.241146076937    15.994914619570
         C           -2.786805432331    -0.039824851762    -0.272453923063    12.000000000000
         C           -1.385738432331    -0.509451851762    -0.515246923063    12.000000000000
         C            3.581131567669    -0.084832851762    -0.412386923063    12.000000000000
         C           -3.514355432331    -0.963583851762     0.702104076937    12.000000000000
         C           -0.278261432331     0.204501148238    -0.241431923063    12.000000000000
         C            2.184755567669     0.415429148238    -0.205835923063    12.000000000000
         C            1.068426567669    -0.291882851762    -0.469843923063    12.000000000000
         C            4.360752567669    -0.173500851762     0.903571076937    12.000000000000
         H           -3.328077432331    -0.043029851762    -1.234661923063     1.007825032230
         H           -1.291086232331    -1.560253351762    -0.950072023063     1.007825032230
         H            3.547832567669    -1.070073851762    -0.892477923063     1.007825032230
         H            4.115424567669     0.583316148238    -1.100995923063     1.007825032230
         H           -2.993769432331    -0.950159851762     1.662698076937     1.007825032230
         H           -4.547879432331    -0.631883851762     0.854627076937     1.007825032230
         H           -3.542853432331    -1.990969851762     0.326685076937     1.007825032230
         H           -0.387831432331     1.206256148238     0.168717076937     1.007825032230
         H            2.082750567669     1.420504148238     0.209380076937     1.007825032230
         H            1.165323567669    -1.298470851762    -0.882383923063     1.007825032230
         H            4.412016567669     0.803997148238     1.392521076937     1.007825032230
         H            5.384635567669    -0.520218851762     0.733687076937     1.007825032230
         H            3.871512567669    -0.868279851762     1.591594076937     1.007825032230
         H           -3.645743432331     1.581797148238     0.384152076937     1.007825032230

  Basis Set: AUG-CC-PVTZ
    Blend: AUG-CC-PVTZ
  Basis Set: (AUG-CC-PVTZ AUX)
    Blend: AUG-CC-PVTZ-JKFIT
	 Reference Energy          =    -386.0599744813375196 [Eh]
	 Singles Energy            =      -0.0000000000000000 [Eh]
	 Same-Spin Energy          =      -0.4003728502819560 [Eh]
	 Opposite-Spin Energy      =      -1.3788187176380384 [Eh]
	 Correlation Energy        =      -1.7791915679199946 [Eh]
	 Total Energy              =    -387.8391660492575284 [Eh]

	 ================> DF-SCS-MP2 Energies <==================
	-----------------------------------------------------------
	 SCS Same-Spin Scale       =       0.3333333333333333 [-]
	 SCS Opposite-Spin Scale   =       1.2000000000000000 [-]
	 SCS Same-Spin Energy      =      -0.1334576167606520 [Eh]
	 SCS Opposite-Spin Energy  =      -1.6545824611656461 [Eh]
	 SCS Correlation Energy    =      -1.7880400779262982 [Eh]
	 SCS Total Energy          =    -387.8480145592638451 [Eh]
	-----------------------------------------------------------

  Dipole Moment: [D]
     X:    -1.2033      Y:    -0.7728      Z:    -0.1338     Total:     1.4364

*** Psi4 exiting successfully. Buy a developer a beer!
