                               Psi4 1.3.2 release

  ==> Input File <==

--------------------------------------------------------------------------
#psi4
#
memory 32 gb

molecule  {
0 1
  O       -2.8097318    -0.9144713    -0.7448632
  C       -2.7698910    -0.0438090     0.3861860
  C       -1.3526807     0.2091268     0.7916407
  C        3.5873700    -0.2293000     0.2222030
  C       -3.4755630     1.2700040     0.0649850
  C       -0.2802220    -0.2946410     0.1124460
  C        2.1660230    -0.5131760    -0.1475910
  C        1.0922740    -0.0266840     0.5021560
  C        4.3244450     0.5343730    -0.8803810
  H       -3.2865450    -0.5271910     1.2335890
  H       -1.1970340     0.8260370     1.6487790
  H        3.6131550     0.3461180     1.1547940
  H        4.1142490    -1.1721620     0.4188690
  H       -2.9813020     1.7413150    -0.7875330
  H       -4.5277090     1.0956620    -0.1864690
  H       -3.4435650     1.9541860     0.9176610
  H       -0.4470010    -0.9272420    -0.7564190
  H        2.0063450    -1.1440610    -1.0244550
  H        1.2471430     0.6066220     1.3780870
  H        4.3142870    -0.0291260    -1.8177910
  H        5.3679410     0.7151030    -0.6066950
  H        3.8442820     1.4990380    -1.0633910
  H       -3.7175750    -1.0591810    -0.9792530
units angstrom
no_reorient  #important for SAPT in psi4, default
symmetry c1  #important for SAPT in psi4, default
}

set PROPERTIES_ORIGIN ["COM"]
properties('MP2/aug-cc-pvtz', properties = ['dipole'])
--------------------------------------------------------------------------

    Molecular point group: c1
  Charge       = 0
  Multiplicity = 1
  Basis Set: AUG-CC-PVTZ
    Blend: AUG-CC-PVTZ
  Basis Set: (AUG-CC-PVTZ AUX)
    Blend: AUG-CC-PVTZ-JKFIT

    Orbital Energies [Eh]
    ---------------------

    Doubly Occupied:

       1A    -20.556123     2A    -11.286768     3A    -11.226907
       4A    -11.226173     5A    -11.224325     6A    -11.223513
       7A    -11.223283     8A    -11.219840     9A    -11.213032
      10A     -1.364806    11A     -1.097229    12A     -1.061583
      13A     -1.016140    14A     -0.960793    15A     -0.877279
      16A     -0.828185    17A     -0.756422    18A     -0.751149
      19A     -0.696522    20A     -0.638439    21A     -0.626168
      22A     -0.617667    23A     -0.592154    24A     -0.583767
      25A     -0.547971    26A     -0.543162    27A     -0.527763
      28A     -0.519629    29A     -0.504123    30A     -0.490960
      31A     -0.479186    32A     -0.468284    33A     -0.452799
      34A     -0.416543    35A     -0.294884

  @DF-RHF Final Energy:  -386.06193461599599

   => Energetics <=

    Nuclear Repulsion Energy =            417.8697126037209841
    One-Electron Energy =               -1351.6361511178738510
    Two-Electron Energy =                 547.7045038981568723
    Total Energy =                       -386.0619346159960514
  Basis Set: (AUG-CC-PVTZ AUX)
    Blend: AUG-CC-PVTZ-RI
    Molecular point group: c1

    Geometry (in Angstrom), charge = 0, multiplicity = 1:

       Center              X                  Y                   Z               Mass
    ------------   -----------------  -----------------  -----------------  -----------------
         O           -2.805804177089    -0.916054649243    -0.746701410655    15.994914619570
         C           -2.765963377089    -0.045392349243     0.384347789345    12.000000000000
         C           -1.348753077089     0.207543450757     0.789802489345    12.000000000000
         C            3.591297622911    -0.230883349243     0.220364789345    12.000000000000
         C           -3.471635377089     1.268420650757     0.063146789345    12.000000000000
         C           -0.276294377089    -0.296224349243     0.110607789345    12.000000000000
         C            2.169950622911    -0.514759349243    -0.149429210655    12.000000000000
         C            1.096201622911    -0.028267349243     0.500317789345    12.000000000000
         C            4.328372622911     0.532789650757    -0.882219210655    12.000000000000
         H           -3.282617377089    -0.528774349243     1.231750789345     1.007825032230
         H           -1.193106377089     0.824453650757     1.646940789345     1.007825032230
         H            3.617082622911     0.344534650757     1.152955789345     1.007825032230
         H            4.118176622911    -1.173745349243     0.417030789345     1.007825032230
         H           -2.977374377089     1.739731650757    -0.789371210655     1.007825032230
         H           -4.523781377089     1.094078650757    -0.188307210655     1.007825032230
         H           -3.439637377089     1.952602650757     0.915822789345     1.007825032230
         H           -0.443073377089    -0.928825349243    -0.758257210655     1.007825032230
         H            2.010272622911    -1.145644349243    -1.026293210655     1.007825032230
         H            1.251070622911     0.605038650757     1.376248789345     1.007825032230
         H            4.318214622911    -0.030709349243    -1.819629210655     1.007825032230
         H            5.371868622911     0.713519650757    -0.608533210655     1.007825032230
         H            3.848209622911     1.497454650757    -1.065229210655     1.007825032230
         H           -3.713647377089    -1.060764349243    -0.981091210655     1.007825032230

  Basis Set: AUG-CC-PVTZ
    Blend: AUG-CC-PVTZ
  Basis Set: (AUG-CC-PVTZ AUX)
    Blend: AUG-CC-PVTZ-JKFIT
	 Reference Energy          =    -386.0619346159959946 [Eh]
	 Singles Energy            =      -0.0000000000000000 [Eh]
	 Same-Spin Energy          =      -0.4001868437004364 [Eh]
	 Opposite-Spin Energy      =      -1.3778943462094333 [Eh]
	 Correlation Energy        =      -1.7780811899098699 [Eh]
	 Total Energy              =    -387.8400158059058640 [Eh]

	 ================> DF-SCS-MP2 Energies <==================
	-----------------------------------------------------------
	 SCS Same-Spin Scale       =       0.3333333333333333 [-]
	 SCS Opposite-Spin Scale   =       1.2000000000000000 [-]
	 SCS Same-Spin Energy      =      -0.1333956145668121 [Eh]
	 SCS Opposite-Spin Energy  =      -1.6534732154513199 [Eh]
	 SCS Correlation Energy    =      -1.7868688300181321 [Eh]
	 SCS Total Energy          =    -387.8488034460141307 [Eh]
	-----------------------------------------------------------

  Dipole Moment: [D]
     X:    -1.1032      Y:     0.6451      Z:     0.5978     Total:     1.4109

*** Psi4 exiting successfully. Buy a developer a beer!
