                               Psi4 1.3.2 release

  ==> Input File <==

--------------------------------------------------------------------------
#psi4
#
memory 32 gb

molecule  {
0 1
  O       -2.7848290    -0.9154220    -0.7447340
  C       -2.7698910    -0.0438090     0.3861860
  C       -1.3446020     0.1937550     0.7721520
  C        3.5873700    -0.2293000     0.2222030
  C       -3.4755630     1.2700040     0.0649850
  C       -0.2802220    -0.2946410     0.1124460
  C        2.1597939    -0.5370961    -0.1016002
  C        1.0922740    -0.0266840     0.5021560
  C        4.3683425     0.5340828    -0.8499426
  H       -3.2865450    -0.5271910     1.2335890
  H       -1.1970340     0.8260370     1.6487790
  H        3.6131550     0.3461180     1.1547940
  H        4.1142490    -1.1721620     0.4188690
  H       -2.9813020     1.7413150    -0.7875330
  H       -4.5277090     1.0956620    -0.1864690
  H       -3.4435650     1.9541860     0.9176610
  H       -0.4470010    -0.9272420    -0.7564190
  H        2.0063450    -1.1440610    -1.0244550
  H        1.2471430     0.6066220     1.3780870
  H        4.3142870    -0.0291260    -1.8177910
  H        5.3679410     0.7151030    -0.6066950
  H        3.8442820     1.4990380    -1.0633910
  H       -3.7175750    -1.0591810    -0.9792530
units angstrom
no_reorient  #important for SAPT in psi4, default
symmetry c1  #important for SAPT in psi4, default
}

set PROPERTIES_ORIGIN ["COM"]
properties('MP2/aug-cc-pvtz', properties = ['dipole'])
--------------------------------------------------------------------------

    Molecular point group: c1
  Charge       = 0
  Multiplicity = 1
  Basis Set: AUG-CC-PVTZ
    Blend: AUG-CC-PVTZ
  Basis Set: (AUG-CC-PVTZ AUX)
    Blend: AUG-CC-PVTZ-JKFIT

    Orbital Energies [Eh]
    ---------------------

    Doubly Occupied:

       1A    -20.559116     2A    -11.287014     3A    -11.225866
       4A    -11.224370     5A    -11.223145     6A    -11.222770
       7A    -11.221695     8A    -11.221073     9A    -11.214281
      10A     -1.361179    11A     -1.099553    12A     -1.061372
      13A     -1.016919    14A     -0.965261    15A     -0.878014
      16A     -0.830477    17A     -0.749484    18A     -0.747376
      19A     -0.695630    20A     -0.637406    21A     -0.626797
      22A     -0.617060    23A     -0.595962    24A     -0.581458
      25A     -0.546672    26A     -0.545896    27A     -0.527537
      28A     -0.521069    29A     -0.500459    30A     -0.490462
      31A     -0.471788    32A     -0.467220    33A     -0.453451
      34A     -0.420186    35A     -0.300808

  @DF-RHF Final Energy:  -386.05820550014880

   => Energetics <=

    Nuclear Repulsion Energy =            418.1313967270179432
    One-Electron Energy =               -1352.1615482044503551
    Two-Electron Energy =                 547.9719459772835535
    Total Energy =                       -386.0582055001488015
  Basis Set: (AUG-CC-PVTZ AUX)
    Blend: AUG-CC-PVTZ-RI
    Molecular point group: c1

    Geometry (in Angstrom), charge = 0, multiplicity = 1:

       Center              X                  Y                   Z               Mass
    ------------   -----------------  -----------------  -----------------  -----------------
         O           -2.788413270972    -0.913118162813    -0.752007010625    15.994914619570
         C           -2.773475270972    -0.041505162813     0.378912989375    12.000000000000
         C           -1.348186270972     0.196058837187     0.764878989375    12.000000000000
         C            3.583785729028    -0.226996162813     0.214929989375    12.000000000000
         C           -3.479147270972     1.272307837187     0.057711989375    12.000000000000
         C           -0.283806270972    -0.292337162813     0.105172989375    12.000000000000
         C            2.156209629028    -0.534792262813    -0.108873210625    12.000000000000
         C            1.088689729028    -0.024380162813     0.494882989375    12.000000000000
         C            4.364758229028     0.536386637187    -0.857215610625    12.000000000000
         H           -3.290129270972    -0.524887162813     1.226315989375     1.007825032230
         H           -1.200618270972     0.828340837187     1.641505989375     1.007825032230
         H            3.609570729028     0.348421837187     1.147520989375     1.007825032230
         H            4.110664729028    -1.169858162813     0.411595989375     1.007825032230
         H           -2.984886270972     1.743618837187    -0.794806010625     1.007825032230
         H           -4.531293270972     1.097965837187    -0.193742010625     1.007825032230
         H           -3.447149270972     1.956489837187     0.910387989375     1.007825032230
         H           -0.450585270972    -0.924938162813    -0.763692010625     1.007825032230
         H            2.002760729028    -1.141757162813    -1.031728010625     1.007825032230
         H            1.243558729028     0.608925837187     1.370813989375     1.007825032230
         H            4.310702729028    -0.026822162813    -1.825064010625     1.007825032230
         H            5.364356729028     0.717406837187    -0.613968010625     1.007825032230
         H            3.840697729028     1.501341837187    -1.070664010625     1.007825032230
         H           -3.721159270972    -1.056877162813    -0.986526010625     1.007825032230

  Basis Set: AUG-CC-PVTZ
    Blend: AUG-CC-PVTZ
  Basis Set: (AUG-CC-PVTZ AUX)
    Blend: AUG-CC-PVTZ-JKFIT
	 Reference Energy          =    -386.0582055001488015 [Eh]
	 Singles Energy            =      -0.0000000000000000 [Eh]
	 Same-Spin Energy          =      -0.4002347390196840 [Eh]
	 Opposite-Spin Energy      =      -1.3781212220126360 [Eh]
	 Correlation Energy        =      -1.7783559610323199 [Eh]
	 Total Energy              =    -387.8365614611811338 [Eh]

	 ================> DF-SCS-MP2 Energies <==================
	-----------------------------------------------------------
	 SCS Same-Spin Scale       =       0.3333333333333333 [-]
	 SCS Opposite-Spin Scale   =       1.2000000000000000 [-]
	 SCS Same-Spin Energy      =      -0.1334115796732280 [Eh]
	 SCS Opposite-Spin Energy  =      -1.6537454664151632 [Eh]
	 SCS Correlation Energy    =      -1.7871570460883912 [Eh]
	 SCS Total Energy          =    -387.8453625462371974 [Eh]
	-----------------------------------------------------------

  Dipole Moment: [D]
     X:    -1.1913      Y:     0.6983      Z:     0.5770     Total:     1.4965

*** Psi4 exiting successfully. Buy a developer a beer!
