                               Psi4 1.3.2 release

  ==> Input File <==

--------------------------------------------------------------------------
#psi4
#
memory 32 gb

molecule  {
0 1
  O       -2.7848290    -0.9154220    -0.7447340
  C       -2.7698910    -0.0438090     0.3861860
  C       -1.3446020     0.1937550     0.7721520
  C        3.5610380    -0.1865497     0.2823032
  C       -3.4755630     1.2700040     0.0649850
  C       -0.2802220    -0.2946410     0.1124460
  C        2.1660230    -0.5131760    -0.1475910
  C        1.0922740    -0.0266840     0.5021560
  C        4.3244450     0.5343730    -0.8803810
  H       -3.2865450    -0.5271910     1.2335890
  H       -1.1970340     0.8260370     1.6487790
  H        3.6131550     0.3461180     1.1547940
  H        4.1142490    -1.1721620     0.4188690
  H       -2.9813020     1.7413150    -0.7875330
  H       -4.5277090     1.0956620    -0.1864690
  H       -3.4435650     1.9541860     0.9176610
  H       -0.4470010    -0.9272420    -0.7564190
  H        1.9500320    -1.1388175    -1.0161093
  H        1.2471430     0.6066220     1.3780870
  H        4.3142870    -0.0291260    -1.8177910
  H        5.3679410     0.7151030    -0.6066950
  H        3.8442820     1.4990380    -1.0633910
  H       -3.7175750    -1.0591810    -0.9792530
units angstrom
no_reorient  #important for SAPT in psi4, default
symmetry c1  #important for SAPT in psi4, default
}

set PROPERTIES_ORIGIN ["COM"]
properties('MP2/aug-cc-pvtz', properties = ['dipole'])
--------------------------------------------------------------------------

    Molecular point group: c1
  Charge       = 0
  Multiplicity = 1
  Basis Set: AUG-CC-PVTZ
    Blend: AUG-CC-PVTZ
  Basis Set: (AUG-CC-PVTZ AUX)
    Blend: AUG-CC-PVTZ-JKFIT

    Orbital Energies [Eh]
    ---------------------

    Doubly Occupied:

       1A    -20.558553     2A    -11.286140     3A    -11.225915
       4A    -11.223984     5A    -11.222900     6A    -11.221371
       7A    -11.220626     8A    -11.220397     9A    -11.214476
      10A     -1.360574    11A     -1.097956    12A     -1.060082
      13A     -1.013859    14A     -0.960763    15A     -0.876291
      16A     -0.830457    17A     -0.756229    18A     -0.747638
      19A     -0.694768    20A     -0.638851    21A     -0.624479
      22A     -0.617008    23A     -0.593596    24A     -0.579322
      25A     -0.546287    26A     -0.542430    27A     -0.527208
      28A     -0.509084    29A     -0.505304    30A     -0.491732
      31A     -0.489932    32A     -0.466425    33A     -0.452408
      34A     -0.415753    35A     -0.295660

  @DF-RHF Final Energy:  -386.05504368964210

   => Energetics <=

    Nuclear Repulsion Energy =            418.2844558377318549
    One-Electron Energy =               -1352.5020828211920616
    Two-Electron Energy =                 548.1625832938179883
    Total Energy =                       -386.0550436896421616
  Basis Set: (AUG-CC-PVTZ AUX)
    Blend: AUG-CC-PVTZ-RI
    Molecular point group: c1

    Geometry (in Angstrom), charge = 0, multiplicity = 1:

       Center              X                  Y                   Z               Mass
    ------------   -----------------  -----------------  -----------------  -----------------
         O           -2.781872991446    -0.919531985909    -0.750519854761    15.994914619570
         C           -2.766934991446    -0.047918985909     0.380400145239    12.000000000000
         C           -1.341645991446     0.189645014091     0.766366145239    12.000000000000
         C            3.563994008554    -0.190659685909     0.276517345239    12.000000000000
         C           -3.472606991446     1.265894014091     0.059199145239    12.000000000000
         C           -0.277265991446    -0.298750985909     0.106660145239    12.000000000000
         C            2.168979008554    -0.517285985909    -0.153376854761    12.000000000000
         C            1.095230008554    -0.030793985909     0.496370145239    12.000000000000
         C            4.327401008554     0.530263014091    -0.886166854761    12.000000000000
         H           -3.283588991446    -0.531300985909     1.227803145239     1.007825032230
         H           -1.194077991446     0.821927014091     1.642993145239     1.007825032230
         H            3.616111008554     0.342008014091     1.149008145239     1.007825032230
         H            4.117205008554    -1.176271985909     0.413083145239     1.007825032230
         H           -2.978345991446     1.737205014091    -0.793318854761     1.007825032230
         H           -4.524752991446     1.091552014091    -0.192254854761     1.007825032230
         H           -3.440608991446     1.950076014091     0.911875145239     1.007825032230
         H           -0.444044991446    -0.931351985909    -0.762204854761     1.007825032230
         H            1.952988008554    -1.142927485909    -1.021895154761     1.007825032230
         H            1.250099008554     0.602512014091     1.372301145239     1.007825032230
         H            4.317243008554    -0.033235985909    -1.823576854761     1.007825032230
         H            5.370897008554     0.710993014091    -0.612480854761     1.007825032230
         H            3.847238008554     1.494928014091    -1.069176854761     1.007825032230
         H           -3.714618991446    -1.063290985909    -0.985038854761     1.007825032230

  Basis Set: AUG-CC-PVTZ
    Blend: AUG-CC-PVTZ
  Basis Set: (AUG-CC-PVTZ AUX)
    Blend: AUG-CC-PVTZ-JKFIT
	 Reference Energy          =    -386.0550436896421047 [Eh]
	 Singles Energy            =      -0.0000000000000000 [Eh]
	 Same-Spin Energy          =      -0.4004146986340081 [Eh]
	 Opposite-Spin Energy      =      -1.3784633071417995 [Eh]
	 Correlation Energy        =      -1.7788780057758076 [Eh]
	 Total Energy              =    -387.8339216954179278 [Eh]

	 ================> DF-SCS-MP2 Energies <==================
	-----------------------------------------------------------
	 SCS Same-Spin Scale       =       0.3333333333333333 [-]
	 SCS Opposite-Spin Scale   =       1.2000000000000000 [-]
	 SCS Same-Spin Energy      =      -0.1334715662113360 [Eh]
	 SCS Opposite-Spin Energy  =      -1.6541559685701595 [Eh]
	 SCS Correlation Energy    =      -1.7876275347814956 [Eh]
	 SCS Total Energy          =    -387.8426712244236114 [Eh]
	-----------------------------------------------------------

  Dipole Moment: [D]
     X:    -1.1381      Y:     0.6602      Z:     0.5937     Total:     1.4435

*** Psi4 exiting successfully. Buy a developer a beer!
