                               Psi4 1.3.2 release

  ==> Input File <==

--------------------------------------------------------------------------
#psi4
#
memory 32 gb

molecule  {
0 1
  O       -2.7848290    -0.9154220    -0.7447340
  C       -2.7698910    -0.0438090     0.3861860
  C       -1.3860976     0.1607137     0.7259104
  C        3.5873700    -0.2293000     0.2222030
  C       -3.4755630     1.2700040     0.0649850
  C       -0.2802220    -0.2946410     0.1124460
  C        2.1660230    -0.5131760    -0.1475910
  C        1.1151369    -0.0693343     0.4435511
  C        4.3244450     0.5343730    -0.8803810
  H       -3.2865450    -0.5271910     1.2335890
  H       -1.1970340     0.8260370     1.6487790
  H        3.6131550     0.3461180     1.1547940
  H        4.1142490    -1.1721620     0.4188690
  H       -2.9813020     1.7413150    -0.7875330
  H       -4.5277090     1.0956620    -0.1864690
  H       -3.4435650     1.9541860     0.9176610
  H       -0.4470010    -0.9272420    -0.7564190
  H        2.0063450    -1.1440610    -1.0244550
  H        1.2471430     0.6066220     1.3780870
  H        4.3142870    -0.0291260    -1.8177910
  H        5.3679410     0.7151030    -0.6066950
  H        3.8442820     1.4990380    -1.0633910
  H       -3.7175750    -1.0591810    -0.9792530
units angstrom
no_reorient  #important for SAPT in psi4, default
symmetry c1  #important for SAPT in psi4, default
}

set PROPERTIES_ORIGIN ["COM"]
properties('MP2/aug-cc-pvtz', properties = ['dipole'])
--------------------------------------------------------------------------

    Molecular point group: c1
  Charge       = 0
  Multiplicity = 1
  Basis Set: AUG-CC-PVTZ
    Blend: AUG-CC-PVTZ
  Basis Set: (AUG-CC-PVTZ AUX)
    Blend: AUG-CC-PVTZ-JKFIT

    Orbital Energies [Eh]
    ---------------------

    Doubly Occupied:

       1A    -20.558665     2A    -11.285814     3A    -11.227835
       4A    -11.224461     5A    -11.223307     6A    -11.222673
       7A    -11.222470     8A    -11.217630     9A    -11.213552
      10A     -1.362973    11A     -1.104433    12A     -1.068250
      13A     -1.019190    14A     -0.969984    15A     -0.882868
      16A     -0.835059    17A     -0.750556    18A     -0.736367
      19A     -0.698343    20A     -0.638401    21A     -0.632690
      22A     -0.619089    23A     -0.596279    24A     -0.578741
      25A     -0.547610    26A     -0.540537    27A     -0.525773
      28A     -0.517813    29A     -0.499746    30A     -0.491291
      31A     -0.480832    32A     -0.456200    33A     -0.455494
      34A     -0.423547    35A     -0.307028

  @DF-RHF Final Energy:  -386.04904663793116

   => Energetics <=

    Nuclear Repulsion Energy =            419.5111197134031045
    One-Electron Energy =               -1354.8493365530066512
    Two-Electron Energy =                 549.2891702016723912
    Total Energy =                       -386.0490466379311556
  Basis Set: (AUG-CC-PVTZ AUX)
    Blend: AUG-CC-PVTZ-RI
    Molecular point group: c1

    Geometry (in Angstrom), charge = 0, multiplicity = 1:

       Center              X                  Y                   Z               Mass
    ------------   -----------------  -----------------  -----------------  -----------------
         O           -2.783055703343    -0.908219243496    -0.734756960051    15.994914619570
         C           -2.768117703343    -0.036606243496     0.396163039949    12.000000000000
         C           -1.384324303343     0.167916456504     0.735887439949    12.000000000000
         C            3.589143296657    -0.222097243496     0.232180039949    12.000000000000
         C           -3.473789703343     1.277206756504     0.074962039949    12.000000000000
         C           -0.278448703343    -0.287438243496     0.122423039949    12.000000000000
         C            2.167796296657    -0.505973243496    -0.137613960051    12.000000000000
         C            1.116910196657    -0.062131543496     0.453528139949    12.000000000000
         C            4.326218296657     0.541575756504    -0.870403960051    12.000000000000
         H           -3.284771703343    -0.519988243496     1.243566039949     1.007825032230
         H           -1.195260703343     0.833239756504     1.658756039949     1.007825032230
         H            3.614928296657     0.353320756504     1.164771039949     1.007825032230
         H            4.116022296657    -1.164959243496     0.428846039949     1.007825032230
         H           -2.979528703343     1.748517756504    -0.777555960051     1.007825032230
         H           -4.525935703343     1.102864756504    -0.176491960051     1.007825032230
         H           -3.441791703343     1.961388756504     0.927638039949     1.007825032230
         H           -0.445227703343    -0.920039243496    -0.746441960051     1.007825032230
         H            2.008118296657    -1.136858243496    -1.014477960051     1.007825032230
         H            1.248916296657     0.613824756504     1.388064039949     1.007825032230
         H            4.316060296657    -0.021923243496    -1.807813960051     1.007825032230
         H            5.369714296657     0.722305756504    -0.596717960051     1.007825032230
         H            3.846055296657     1.506240756504    -1.053413960051     1.007825032230
         H           -3.715801703343    -1.051978243496    -0.969275960051     1.007825032230

  Basis Set: AUG-CC-PVTZ
    Blend: AUG-CC-PVTZ
  Basis Set: (AUG-CC-PVTZ AUX)
    Blend: AUG-CC-PVTZ-JKFIT
	 Reference Energy          =    -386.0490466379311556 [Eh]
	 Singles Energy            =      -0.0000000000000000 [Eh]
	 Same-Spin Energy          =      -0.4007688691117521 [Eh]
	 Opposite-Spin Energy      =      -1.3784394468131755 [Eh]
	 Correlation Energy        =      -1.7792083159249277 [Eh]
	 Total Energy              =    -387.8282549538560602 [Eh]

	 ================> DF-SCS-MP2 Energies <==================
	-----------------------------------------------------------
	 SCS Same-Spin Scale       =       0.3333333333333333 [-]
	 SCS Opposite-Spin Scale   =       1.2000000000000000 [-]
	 SCS Same-Spin Energy      =      -0.1335896230372507 [Eh]
	 SCS Opposite-Spin Energy  =      -1.6541273361758106 [Eh]
	 SCS Correlation Energy    =      -1.7877169592130613 [Eh]
	 SCS Total Energy          =    -387.8367635971442269 [Eh]
	-----------------------------------------------------------

  Dipole Moment: [D]
     X:    -1.2102      Y:     0.6161      Z:     0.5047     Total:     1.4488

*** Psi4 exiting successfully. Buy a developer a beer!
