                               Psi4 1.4a3.dev225

  ==> Input File <==

--------------------------------------------------------------------------
#psi4
#
memory 32 gb

molecule  {
0 1
  O       -2.7624640     1.3159430     0.2248240
  C       -2.8209640    -0.0168770    -0.2887760
  C       -1.4198970    -0.4865040    -0.5315690
  C        3.5469730    -0.0618850    -0.4287090
  C       -3.5485140    -0.9406360     0.6857820
  C       -0.3124200     0.2274490    -0.2577540
  C        2.1505970     0.4383770    -0.2221580
  C        1.0342680    -0.2689350    -0.4861660
  C        4.3265940    -0.1505530     0.8872490
  H       -3.3622360    -0.0200820    -1.2509840
  H       -1.3293920    -1.4912640    -0.9473420
  H        3.5136740    -1.0471260    -0.9088000
  H        4.0812660     0.6062640    -1.1173180
  H       -3.0279280    -0.9272120     1.6463760
  H       -4.5820380    -0.6089360     0.8383050
  H       -3.5770120    -1.9680220     0.3103630
  H       -0.4219900     1.2292040     0.1523950
  H        2.0485920     1.4434520     0.1930580
  H        1.1267289    -1.2294403    -0.8798194
  H        4.3778580     0.8269450     1.3761990
  H        5.3504770    -0.4972710     0.7173650
  H        3.8373540    -0.8453320     1.5752720
  H       -3.6799020     1.6047450     0.3678300
units angstrom
no_reorient  #important for SAPT in psi4, default
symmetry c1  #important for SAPT in psi4, default
}

set PROPERTIES_ORIGIN ["COM"]
properties('MP2/aug-cc-pvtz', properties = ['dipole'])
--------------------------------------------------------------------------

    Molecular point group: c1
  Charge       = 0
  Multiplicity = 1
  Basis Set: AUG-CC-PVTZ
    Blend: AUG-CC-PVTZ
  Basis Set: (AUG-CC-PVTZ AUX)
    Blend: AUG-CC-PVTZ-JKFIT

    Orbital Energies [Eh]
    ---------------------

    Doubly Occupied:

       1A    -20.558681     2A    -11.286916     3A    -11.225990
       4A    -11.223799     5A    -11.223751     6A    -11.222177
       7A    -11.220868     8A    -11.217860     9A    -11.213276
      10A     -1.359998    11A     -1.097998    12A     -1.060565
      13A     -1.016068    14A     -0.962436    15A     -0.876581
      16A     -0.828810    17A     -0.757202    18A     -0.748713
      19A     -0.695750    20A     -0.637544    21A     -0.627057
      22A     -0.616901    23A     -0.591806    24A     -0.583318
      25A     -0.546448    26A     -0.543695    27A     -0.529149
      28A     -0.518446    29A     -0.501413    30A     -0.493287
      31A     -0.479450    32A     -0.468244    33A     -0.452691
      34A     -0.417600    35A     -0.297120

  @DF-RHF Final Energy:  -386.06164237458421

   => Energetics <=

    Nuclear Repulsion Energy =            417.9876042162190970
    One-Electron Energy =               -1351.8952729752857067
    Two-Electron Energy =                 547.8460263844824567
    Total Energy =                       -386.0616423745841530
  Basis Set: (AUG-CC-PVTZ AUX)
    Blend: AUG-CC-PVTZ-RI
    Molecular point group: c1

    Geometry (in Angstrom), charge = 0, multiplicity = 1:

       Center              X                  Y                   Z               Mass
    ------------   -----------------  -----------------  -----------------  -----------------
         O           -2.728236834723     1.292258892985     0.240842871404    15.994914619570
         C           -2.786736834723    -0.040561107015    -0.272757128596    12.000000000000
         C           -1.385669834723    -0.510188107015    -0.515550128596    12.000000000000
         C            3.581200165277    -0.085569107015    -0.412690128596    12.000000000000
         C           -3.514286834723    -0.964320107015     0.701800871404    12.000000000000
         C           -0.278192834723     0.203764892985    -0.241735128596    12.000000000000
         C            2.184824165277     0.414692892985    -0.206139128596    12.000000000000
         C            1.068495165277    -0.292619107015    -0.470147128596    12.000000000000
         C            4.360821165277    -0.174237107015     0.903267871404    12.000000000000
         H           -3.328008834723    -0.043766107015    -1.234965128596     1.007825032230
         H           -1.295164834723    -1.514948107015    -0.931323128596     1.007825032230
         H            3.547901165277    -1.070810107015    -0.892781128596     1.007825032230
         H            4.115493165277     0.582579892985    -1.101299128596     1.007825032230
         H           -2.993700834723    -0.950896107015     1.662394871404     1.007825032230
         H           -4.547810834723    -0.632620107015     0.854323871404     1.007825032230
         H           -3.542784834723    -1.991706107015     0.326381871404     1.007825032230
         H           -0.387762834723     1.205519892985     0.168413871404     1.007825032230
         H            2.082819165277     1.419767892985     0.209076871404     1.007825032230
         H            1.160956065277    -1.253124407015    -0.863800528596     1.007825032230
         H            4.412085165277     0.803260892985     1.392217871404     1.007825032230
         H            5.384704165277    -0.520955107015     0.733383871404     1.007825032230
         H            3.871581165277    -0.869016107015     1.591290871404     1.007825032230
         H           -3.645674834723     1.581060892985     0.383848871404     1.007825032230

  Basis Set: AUG-CC-PVTZ
    Blend: AUG-CC-PVTZ
  Basis Set: (AUG-CC-PVTZ AUX)
    Blend: AUG-CC-PVTZ-JKFIT
	 Reference Energy          =    -386.0616423745842098 [Eh]
	 Singles Energy            =      -0.0000000000000000 [Eh]
	 Same-Spin Energy          =      -0.4001511298122803 [Eh]
	 Opposite-Spin Energy      =      -1.3780669293907559 [Eh]
	 Correlation Energy        =      -1.7782180592030361 [Eh]
	 Total Energy              =    -387.8398604337872371 [Eh]

	 ================> DF-SCS-MP2 Energies <==================
	-----------------------------------------------------------
	 SCS Same-Spin Scale       =       0.3333333333333333 [-]
	 SCS Opposite-Spin Scale   =       1.2000000000000000 [-]
	 SCS Same-Spin Energy      =      -0.1333837099374268 [Eh]
	 SCS Opposite-Spin Energy  =      -1.6536803152689070 [Eh]
	 SCS Correlation Energy    =      -1.7870640252063337 [Eh]
	 SCS Total Energy          =    -387.8487063997905580 [Eh]
	-----------------------------------------------------------

  Dipole Moment: [D]
     X:    -1.1852      Y:    -0.8139      Z:    -0.1523     Total:     1.4458

*** Psi4 exiting successfully. Buy a developer a beer!
