                               Psi4 1.3.2 release

  ==> Input File <==

--------------------------------------------------------------------------
#psi4
#
memory 32 gb

molecule  {
0 1
  O       -2.7848290    -0.9154220    -0.7447340
  C       -2.7698910    -0.0438090     0.3861860
  C       -1.3446020     0.1937550     0.7721520
  C        3.5873700    -0.2293000     0.2222030
  C       -3.4755630     1.2700040     0.0649850
  C       -0.2802220    -0.2946410     0.1124460
  C        2.1660230    -0.5131760    -0.1475910
  C        1.0922740    -0.0266840     0.5021560
  C        4.3244450     0.5343730    -0.8803810
  H       -3.2865450    -0.5271910     1.2335890
  H       -1.1970340     0.8260370     1.6487790
  H        3.6155074     0.3986135     1.2398745
  H        4.1142490    -1.1721620     0.4188690
  H       -2.9813020     1.7413150    -0.7875330
  H       -4.5277090     1.0956620    -0.1864690
  H       -3.4435650     1.9541860     0.9176610
  H       -0.4470010    -0.9272420    -0.7564190
  H        2.0063450    -1.1440610    -1.0244550
  H        1.2471430     0.6066220     1.3780870
  H        4.3142870    -0.0291260    -1.8177910
  H        5.3679410     0.7151030    -0.6066950
  H        3.8442820     1.4990380    -1.0633910
  H       -3.7175750    -1.0591810    -0.9792530
units angstrom
no_reorient  #important for SAPT in psi4, default
symmetry c1  #important for SAPT in psi4, default
}

set PROPERTIES_ORIGIN ["COM"]
properties('MP2/aug-cc-pvtz', properties = ['dipole'])
--------------------------------------------------------------------------

    Molecular point group: c1
  Charge       = 0
  Multiplicity = 1
  Basis Set: AUG-CC-PVTZ
    Blend: AUG-CC-PVTZ
  Basis Set: (AUG-CC-PVTZ AUX)
    Blend: AUG-CC-PVTZ-JKFIT

    Orbital Energies [Eh]
    ---------------------

    Doubly Occupied:

       1A    -20.558893     2A    -11.286651     3A    -11.235285
       4A    -11.226630     5A    -11.223939     6A    -11.223404
       7A    -11.222003     8A    -11.220779     9A    -11.213938
      10A     -1.360938    11A     -1.097333    12A     -1.060160
      13A     -1.015434    14A     -0.962693    15A     -0.876280
      16A     -0.825871    17A     -0.748262    18A     -0.748223
      19A     -0.695227    20A     -0.635128    21A     -0.627508
      22A     -0.616491    23A     -0.589465    24A     -0.581264
      25A     -0.546702    26A     -0.543821    27A     -0.527454
      28A     -0.519801    29A     -0.500981    30A     -0.492325
      31A     -0.469145    32A     -0.467194    33A     -0.453041
      34A     -0.418548    35A     -0.297847

  @DF-RHF Final Energy:  -386.05606247141532

   => Energetics <=

    Nuclear Repulsion Energy =            417.8681275953623526
    One-Electron Energy =               -1351.6710639550904034
    Two-Electron Energy =                 547.7468738883127344
    Total Energy =                       -386.0560624714153164
  Basis Set: (AUG-CC-PVTZ AUX)
    Blend: AUG-CC-PVTZ-RI
    Molecular point group: c1

    Geometry (in Angstrom), charge = 0, multiplicity = 1:

       Center              X                  Y                   Z               Mass
    ------------   -----------------  -----------------  -----------------  -----------------
         O           -2.784847576513    -0.915841538856    -0.745414031210    15.994914619570
         C           -2.769909576513    -0.044228538856     0.385505968790    12.000000000000
         C           -1.344620576513     0.193335461144     0.771471968790    12.000000000000
         C            3.587351423487    -0.229719538856     0.221522968790    12.000000000000
         C           -3.475581576513     1.269584461144     0.064304968790    12.000000000000
         C           -0.280240576513    -0.295060538856     0.111765968790    12.000000000000
         C            2.166004423487    -0.513595538856    -0.148271031210    12.000000000000
         C            1.092255423487    -0.027103538856     0.501475968790    12.000000000000
         C            4.324426423487     0.533953461144    -0.881061031210    12.000000000000
         H           -3.286563576513    -0.527610538856     1.232908968790     1.007825032230
         H           -1.197052576513     0.825617461144     1.648098968790     1.007825032230
         H            3.615488823487     0.398193961144     1.239194468790     1.007825032230
         H            4.114230423487    -1.172581538856     0.418188968790     1.007825032230
         H           -2.981320576513     1.740895461144    -0.788213031210     1.007825032230
         H           -4.527727576513     1.095242461144    -0.187149031210     1.007825032230
         H           -3.443583576513     1.953766461144     0.916980968790     1.007825032230
         H           -0.447019576513    -0.927661538856    -0.757099031210     1.007825032230
         H            2.006326423487    -1.144480538856    -1.025135031210     1.007825032230
         H            1.247124423487     0.606202461144     1.377406968790     1.007825032230
         H            4.314268423487    -0.029545538856    -1.818471031210     1.007825032230
         H            5.367922423487     0.714683461144    -0.607375031210     1.007825032230
         H            3.844263423487     1.498618461144    -1.064071031210     1.007825032230
         H           -3.717593576513    -1.059600538856    -0.979933031210     1.007825032230

  Basis Set: AUG-CC-PVTZ
    Blend: AUG-CC-PVTZ
  Basis Set: (AUG-CC-PVTZ AUX)
    Blend: AUG-CC-PVTZ-JKFIT
	 Reference Energy          =    -386.0560624714153164 [Eh]
	 Singles Energy            =      -0.0000000000000000 [Eh]
	 Same-Spin Energy          =      -0.4004191891300293 [Eh]
	 Opposite-Spin Energy      =      -1.3791380551219563 [Eh]
	 Correlation Energy        =      -1.7795572442519856 [Eh]
	 Total Energy              =    -387.8356197156672920 [Eh]

	 ================> DF-SCS-MP2 Energies <==================
	-----------------------------------------------------------
	 SCS Same-Spin Scale       =       0.3333333333333333 [-]
	 SCS Opposite-Spin Scale   =       1.2000000000000000 [-]
	 SCS Same-Spin Energy      =      -0.1334730630433431 [Eh]
	 SCS Opposite-Spin Energy  =      -1.6549656661463474 [Eh]
	 SCS Correlation Energy    =      -1.7884387291896906 [Eh]
	 SCS Total Energy          =    -387.8445012006050092 [Eh]
	-----------------------------------------------------------

  Dipole Moment: [D]
     X:    -1.1824      Y:     0.6162      Z:     0.5066     Total:     1.4263

*** Psi4 exiting successfully. Buy a developer a beer!
