                               Psi4 1.3.2 release

  ==> Input File <==

--------------------------------------------------------------------------
#psi4
#
memory 32 gb

molecule  {
0 1
  O       -2.7848290    -0.9154220    -0.7447340
  C       -2.7848079    -0.0148205     0.4269587
  C       -1.3446020     0.1937550     0.7721520
  C        3.5873700    -0.2293000     0.2222030
  C       -3.4755630     1.2700040     0.0649850
  C       -0.2522385    -0.2734402     0.1435678
  C        2.1660230    -0.5131760    -0.1475910
  C        1.0922740    -0.0266840     0.5021560
  C        4.3244450     0.5343730    -0.8803810
  H       -3.2865450    -0.5271910     1.2335890
  H       -1.1970340     0.8260370     1.6487790
  H        3.6131550     0.3461180     1.1547940
  H        4.1142490    -1.1721620     0.4188690
  H       -2.9813020     1.7413150    -0.7875330
  H       -4.5277090     1.0956620    -0.1864690
  H       -3.4435650     1.9541860     0.9176610
  H       -0.4470010    -0.9272420    -0.7564190
  H        2.0063450    -1.1440610    -1.0244550
  H        1.2471430     0.6066220     1.3780870
  H        4.3142870    -0.0291260    -1.8177910
  H        5.3679410     0.7151030    -0.6066950
  H        3.8442820     1.4990380    -1.0633910
  H       -3.7175750    -1.0591810    -0.9792530
units angstrom
no_reorient  #important for SAPT in psi4, default
symmetry c1  #important for SAPT in psi4, default
}

set PROPERTIES_ORIGIN ["COM"]
properties('MP2/aug-cc-pvtz', properties = ['dipole'])
--------------------------------------------------------------------------

    Molecular point group: c1
  Charge       = 0
  Multiplicity = 1
  Basis Set: AUG-CC-PVTZ
    Blend: AUG-CC-PVTZ
  Basis Set: (AUG-CC-PVTZ AUX)
    Blend: AUG-CC-PVTZ-JKFIT

    Orbital Energies [Eh]
    ---------------------

    Doubly Occupied:

       1A    -20.552817     2A    -11.287522     3A    -11.228243
       4A    -11.224910     5A    -11.224315     6A    -11.222883
       7A    -11.222019     8A    -11.221495     9A    -11.213708
      10A     -1.341709    11A     -1.101975    12A     -1.063482
      13A     -1.022851    14A     -0.964285    15A     -0.880249
      16A     -0.830299    17A     -0.757161    18A     -0.740050
      19A     -0.691452    20A     -0.633591    21A     -0.631335
      22A     -0.613926    23A     -0.591107    24A     -0.581989
      25A     -0.548128    26A     -0.544244    27A     -0.521970
      28A     -0.519212    29A     -0.496440    30A     -0.486723
      31A     -0.480472    32A     -0.470564    33A     -0.455631
      34A     -0.425476    35A     -0.296576

  @DF-RHF Final Energy:  -386.05528054636568

   => Energetics <=

    Nuclear Repulsion Energy =            418.0029973841685660
    One-Electron Energy =               -1351.9389371906775068
    Two-Electron Energy =                 547.8806592601432612
    Total Energy =                       -386.0552805463656796
  Basis Set: (AUG-CC-PVTZ AUX)
    Blend: AUG-CC-PVTZ-RI
    Molecular point group: c1

    Geometry (in Angstrom), charge = 0, multiplicity = 1:

       Center              X                  Y                   Z               Mass
    ------------   -----------------  -----------------  -----------------  -----------------
         O           -2.786072183368    -0.920197969222    -0.751575492201    15.994914619570
         C           -2.786051083368    -0.019596469222     0.420117207799    12.000000000000
         C           -1.345845183368     0.188979030778     0.765310507799    12.000000000000
         C            3.586126816632    -0.234075969222     0.215361507799    12.000000000000
         C           -3.476806183368     1.265228030778     0.058143507799    12.000000000000
         C           -0.253481683368    -0.278216169222     0.136726307799    12.000000000000
         C            2.164779816632    -0.517951969222    -0.154432492201    12.000000000000
         C            1.091030816632    -0.031459969222     0.495314507799    12.000000000000
         C            4.323201816632     0.529597030778    -0.887222492201    12.000000000000
         H           -3.287788183368    -0.531966969222     1.226747507799     1.007825032230
         H           -1.198277183368     0.821261030778     1.641937507799     1.007825032230
         H            3.611911816632     0.341342030778     1.147952507799     1.007825032230
         H            4.113005816632    -1.176937969222     0.412027507799     1.007825032230
         H           -2.982545183368     1.736539030778    -0.794374492201     1.007825032230
         H           -4.528952183368     1.090886030778    -0.193310492201     1.007825032230
         H           -3.444808183368     1.949410030778     0.910819507799     1.007825032230
         H           -0.448244183368    -0.932017969222    -0.763260492201     1.007825032230
         H            2.005101816632    -1.148836969222    -1.031296492201     1.007825032230
         H            1.245899816632     0.601846030778     1.371245507799     1.007825032230
         H            4.313043816632    -0.033901969222    -1.824632492201     1.007825032230
         H            5.366697816632     0.710327030778    -0.613536492201     1.007825032230
         H            3.843038816632     1.494262030778    -1.070232492201     1.007825032230
         H           -3.718818183368    -1.063956969222    -0.986094492201     1.007825032230

  Basis Set: AUG-CC-PVTZ
    Blend: AUG-CC-PVTZ
  Basis Set: (AUG-CC-PVTZ AUX)
    Blend: AUG-CC-PVTZ-JKFIT
	 Reference Energy          =    -386.0552805463656796 [Eh]
	 Singles Energy            =      -0.0000000000000000 [Eh]
	 Same-Spin Energy          =      -0.4012058962282592 [Eh]
	 Opposite-Spin Energy      =      -1.3801269967138821 [Eh]
	 Correlation Energy        =      -1.7813328929421413 [Eh]
	 Total Energy              =    -387.8366134393078255 [Eh]

	 ================> DF-SCS-MP2 Energies <==================
	-----------------------------------------------------------
	 SCS Same-Spin Scale       =       0.3333333333333333 [-]
	 SCS Opposite-Spin Scale   =       1.2000000000000000 [-]
	 SCS Same-Spin Energy      =      -0.1337352987427531 [Eh]
	 SCS Opposite-Spin Energy  =      -1.6561523960566584 [Eh]
	 SCS Correlation Energy    =      -1.7898876947994116 [Eh]
	 SCS Total Energy          =    -387.8451682411650836 [Eh]
	-----------------------------------------------------------

  Dipole Moment: [D]
     X:    -1.1038      Y:     0.7575      Z:     0.6820     Total:     1.5024

*** Psi4 exiting successfully. Buy a developer a beer!
