                               Psi4 1.3.2 release

  ==> Input File <==

--------------------------------------------------------------------------
#psi4
#
memory 32 gb

molecule  {
0 1
  O       -2.7848290    -0.9154220    -0.7447340
  C       -2.7698910    -0.0438090     0.3861860
  C       -1.3446020     0.1937550     0.7721520
  C        3.5873700    -0.2293000     0.2222030
  C       -3.4755630     1.2700040     0.0649850
  C       -0.2958843    -0.2661271     0.1512947
  C        2.1936930    -0.4910182    -0.1167563
  C        1.0922740    -0.0266840     0.5021560
  C        4.3244450     0.5343730    -0.8803810
  H       -3.2865450    -0.5271910     1.2335890
  H       -1.1970340     0.8260370     1.6487790
  H        3.6131550     0.3461180     1.1547940
  H        4.1142490    -1.1721620     0.4188690
  H       -2.9813020     1.7413150    -0.7875330
  H       -4.5277090     1.0956620    -0.1864690
  H       -3.4435650     1.9541860     0.9176610
  H       -0.4470010    -0.9272420    -0.7564190
  H        2.0063450    -1.1440610    -1.0244550
  H        1.2471430     0.6066220     1.3780870
  H        4.3142870    -0.0291260    -1.8177910
  H        5.3679410     0.7151030    -0.6066950
  H        3.8442820     1.4990380    -1.0633910
  H       -3.7175750    -1.0591810    -0.9792530
units angstrom
no_reorient  #important for SAPT in psi4, default
symmetry c1  #important for SAPT in psi4, default
}

set PROPERTIES_ORIGIN ["COM"]
properties('MP2/aug-cc-pvtz', properties = ['dipole'])
--------------------------------------------------------------------------

    Molecular point group: c1
  Charge       = 0
  Multiplicity = 1
  Basis Set: AUG-CC-PVTZ
    Blend: AUG-CC-PVTZ
  Basis Set: (AUG-CC-PVTZ AUX)
    Blend: AUG-CC-PVTZ-JKFIT

    Orbital Energies [Eh]
    ---------------------

    Doubly Occupied:

       1A    -20.558836     2A    -11.287486     3A    -11.229054
       4A    -11.223308     5A    -11.222619     6A    -11.221257
       7A    -11.221175     8A    -11.217624     9A    -11.214182
      10A     -1.360973    11A     -1.102035    12A     -1.068337
      13A     -1.017246    14A     -0.966476    15A     -0.879449
      16A     -0.833442    17A     -0.750116    18A     -0.741029
      19A     -0.694542    20A     -0.637667    21A     -0.631643
      22A     -0.617855    23A     -0.595311    24A     -0.583691
      25A     -0.546104    26A     -0.541117    27A     -0.524082
      28A     -0.523993    29A     -0.499835    30A     -0.491370
      31A     -0.475006    32A     -0.463201    33A     -0.454318
      34A     -0.421102    35A     -0.303675

  @DF-RHF Final Energy:  -386.05688800413452

   => Energetics <=

    Nuclear Repulsion Energy =            418.8512279374460263
    One-Electron Energy =               -1353.5779183444465161
    Two-Electron Energy =                 548.6698024028659120
    Total Energy =                       -386.0568880041345210
  Basis Set: (AUG-CC-PVTZ AUX)
    Blend: AUG-CC-PVTZ-RI
    Molecular point group: c1

    Geometry (in Angstrom), charge = 0, multiplicity = 1:

       Center              X                  Y                   Z               Mass
    ------------   -----------------  -----------------  -----------------  -----------------
         O           -2.785971419291    -0.920243874020    -0.751365085694    15.994914619570
         C           -2.771033419291    -0.048630874020     0.379554914306    12.000000000000
         C           -1.345744419291     0.188933125980     0.765520914306    12.000000000000
         C            3.586227580709    -0.234121874020     0.215571914306    12.000000000000
         C           -3.476705419291     1.265182125980     0.058353914306    12.000000000000
         C           -0.297026719291    -0.270948974020     0.144663614306    12.000000000000
         C            2.192550580709    -0.495840074020    -0.123387385694    12.000000000000
         C            1.091131580709    -0.031505874020     0.495524914306    12.000000000000
         C            4.323302580709     0.529551125980    -0.887012085694    12.000000000000
         H           -3.287687419291    -0.532012874020     1.226957914306     1.007825032230
         H           -1.198176419291     0.821215125980     1.642147914306     1.007825032230
         H            3.612012580709     0.341296125980     1.148162914306     1.007825032230
         H            4.113106580709    -1.176983874020     0.412237914306     1.007825032230
         H           -2.982444419291     1.736493125980    -0.794164085694     1.007825032230
         H           -4.528851419291     1.090840125980    -0.193100085694     1.007825032230
         H           -3.444707419291     1.949364125980     0.911029914306     1.007825032230
         H           -0.448143419291    -0.932063874020    -0.763050085694     1.007825032230
         H            2.005202580709    -1.148882874020    -1.031086085694     1.007825032230
         H            1.246000580709     0.601800125980     1.371455914306     1.007825032230
         H            4.313144580709    -0.033947874020    -1.824422085694     1.007825032230
         H            5.366798580709     0.710281125980    -0.613326085694     1.007825032230
         H            3.843139580709     1.494216125980    -1.070022085694     1.007825032230
         H           -3.718717419291    -1.064002874020    -0.985884085694     1.007825032230

  Basis Set: AUG-CC-PVTZ
    Blend: AUG-CC-PVTZ
  Basis Set: (AUG-CC-PVTZ AUX)
    Blend: AUG-CC-PVTZ-JKFIT
	 Reference Energy          =    -386.0568880041345210 [Eh]
	 Singles Energy            =      -0.0000000000000000 [Eh]
	 Same-Spin Energy          =      -0.4005678535348507 [Eh]
	 Opposite-Spin Energy      =      -1.3781315930661786 [Eh]
	 Correlation Energy        =      -1.7786994466010293 [Eh]
	 Total Energy              =    -387.8355874507355452 [Eh]

	 ================> DF-SCS-MP2 Energies <==================
	-----------------------------------------------------------
	 SCS Same-Spin Scale       =       0.3333333333333333 [-]
	 SCS Opposite-Spin Scale   =       1.2000000000000000 [-]
	 SCS Same-Spin Energy      =      -0.1335226178449502 [Eh]
	 SCS Opposite-Spin Energy  =      -1.6537579116794143 [Eh]
	 SCS Correlation Energy    =      -1.7872805295243646 [Eh]
	 SCS Total Energy          =    -387.8441685336588876 [Eh]
	-----------------------------------------------------------

  Dipole Moment: [D]
     X:    -1.1272      Y:     0.6673      Z:     0.5924     Total:     1.4376

*** Psi4 exiting successfully. Buy a developer a beer!
