                               Psi4 1.4a3.dev225

  ==> Input File <==

--------------------------------------------------------------------------
#psi4
#
memory 32 gb

molecule  {
0 1
  O       -2.7624640     1.3159430     0.2248240
  C       -2.8209640    -0.0168770    -0.2887760
  C       -1.4198970    -0.4865040    -0.5315690
  C        3.5469730    -0.0618850    -0.4287090
  C       -3.5485140    -0.9406360     0.6857820
  C       -0.3124200     0.2274490    -0.2577540
  C        2.1505970     0.4383770    -0.2221580
  C        1.0342680    -0.2689350    -0.4861660
  C        4.3265940    -0.1505530     0.8872490
  H       -3.3622360    -0.0200820    -1.2509840
  H       -1.3293920    -1.4912640    -0.9473420
  H        3.5136740    -1.0471260    -0.9088000
  H        4.0812660     0.6062640    -1.1173180
  H       -3.0279280    -0.9272120     1.6463760
  H       -4.5820380    -0.6089360     0.8383050
  H       -3.5770120    -1.9680220     0.3103630
  H       -0.4219900     1.2292040     0.1523950
  H        2.0485920     1.4434520     0.1930580
  H        1.1311650    -1.2755230    -0.8987060
  H        4.3778580     0.8269450     1.3761990
  H        5.3504770    -0.4972710     0.7173650
  H        3.8373540    -0.8453320     1.5752720
  H       -3.6610323     1.5988050     0.3648887
units angstrom
no_reorient  #important for SAPT in psi4, default
symmetry c1  #important for SAPT in psi4, default
}

set PROPERTIES_ORIGIN ["COM"]
properties('MP2/aug-cc-pvtz', properties = ['dipole'])
--------------------------------------------------------------------------

    Molecular point group: c1
  Charge       = 0
  Multiplicity = 1
  Basis Set: AUG-CC-PVTZ
    Blend: AUG-CC-PVTZ
  Basis Set: (AUG-CC-PVTZ AUX)
    Blend: AUG-CC-PVTZ-JKFIT

    Orbital Energies [Eh]
    ---------------------

    Doubly Occupied:

       1A    -20.556953     2A    -11.287247     3A    -11.226568
       4A    -11.224366     5A    -11.223820     6A    -11.223635
       7A    -11.222504     8A    -11.221101     9A    -11.213257
      10A     -1.364584    11A     -1.097291    12A     -1.061191
      13A     -1.016009    14A     -0.962158    15A     -0.876825
      16A     -0.828919    17A     -0.752610    18A     -0.749138
      19A     -0.697041    20A     -0.637270    21A     -0.627193
      22A     -0.617608    23A     -0.590204    24A     -0.583135
      25A     -0.546991    26A     -0.543476    27A     -0.527529
      28A     -0.518573    29A     -0.500965    30A     -0.492978
      31A     -0.479371    32A     -0.468026    33A     -0.453321
      34A     -0.417976    35A     -0.297390

  @DF-RHF Final Energy:  -386.06326545194850

   => Energetics <=

    Nuclear Repulsion Energy =            417.8767166675073099
    One-Electron Energy =               -1351.6655171893030456
    Two-Electron Energy =                 547.7255350698472967
    Total Energy =                       -386.0632654519484959
  Basis Set: (AUG-CC-PVTZ AUX)
    Blend: AUG-CC-PVTZ-RI
    Molecular point group: c1

    Geometry (in Angstrom), charge = 0, multiplicity = 1:

       Center              X                  Y                   Z               Mass
    ------------   -----------------  -----------------  -----------------  -----------------
         O           -2.728423094334     1.292674657640     0.241017319660    15.994914619570
         C           -2.786923094334    -0.040145342360    -0.272582680340    12.000000000000
         C           -1.385856094334    -0.509772342360    -0.515375680340    12.000000000000
         C            3.581013905666    -0.085153342360    -0.412515680340    12.000000000000
         C           -3.514473094334    -0.963904342360     0.701975319660    12.000000000000
         C           -0.278379094334     0.204180657640    -0.241560680340    12.000000000000
         C            2.184637905666     0.415108657640    -0.205964680340    12.000000000000
         C            1.068308905666    -0.292203342360    -0.469972680340    12.000000000000
         C            4.360634905666    -0.173821342360     0.903442319660    12.000000000000
         H           -3.328195094334    -0.043350342360    -1.234790680340     1.007825032230
         H           -1.295351094334    -1.514532342360    -0.931148680340     1.007825032230
         H            3.547714905666    -1.070394342360    -0.892606680340     1.007825032230
         H            4.115306905666     0.582995657640    -1.101124680340     1.007825032230
         H           -2.993887094334    -0.950480342360     1.662569319660     1.007825032230
         H           -4.547997094334    -0.632204342360     0.854498319660     1.007825032230
         H           -3.542971094334    -1.991290342360     0.326556319660     1.007825032230
         H           -0.387949094334     1.205935657640     0.168588319660     1.007825032230
         H            2.082632905666     1.420183657640     0.209251319660     1.007825032230
         H            1.165205905666    -1.298791342360    -0.882512680340     1.007825032230
         H            4.411898905666     0.803676657640     1.392392319660     1.007825032230
         H            5.384517905666    -0.520539342360     0.733558319660     1.007825032230
         H            3.871394905666    -0.868600342360     1.591465319660     1.007825032230
         H           -3.626991394334     1.575536657640     0.381082019660     1.007825032230

  Basis Set: AUG-CC-PVTZ
    Blend: AUG-CC-PVTZ
  Basis Set: (AUG-CC-PVTZ AUX)
    Blend: AUG-CC-PVTZ-JKFIT
	 Reference Energy          =    -386.0632654519484959 [Eh]
	 Singles Energy            =      -0.0000000000000000 [Eh]
	 Same-Spin Energy          =      -0.4000289521403417 [Eh]
	 Opposite-Spin Energy      =      -1.3777758306479924 [Eh]
	 Correlation Energy        =      -1.7778047827883341 [Eh]
	 Total Energy              =    -387.8410702347368328 [Eh]

	 ================> DF-SCS-MP2 Energies <==================
	-----------------------------------------------------------
	 SCS Same-Spin Scale       =       0.3333333333333333 [-]
	 SCS Opposite-Spin Scale   =       1.2000000000000000 [-]
	 SCS Same-Spin Energy      =      -0.1333429840467806 [Eh]
	 SCS Opposite-Spin Energy  =      -1.6533309967775909 [Eh]
	 SCS Correlation Energy    =      -1.7866739808243715 [Eh]
	 SCS Total Energy          =    -387.8499394327728851 [Eh]
	-----------------------------------------------------------

  Dipole Moment: [D]
     X:    -1.1875      Y:    -0.8033      Z:    -0.1460     Total:     1.4411

*** Psi4 exiting successfully. Buy a developer a beer!
