                               Psi4 1.3.2 release

  ==> Input File <==

--------------------------------------------------------------------------
#psi4
#
memory 32 gb

molecule  {
0 1
  O       -2.7848290    -0.9154220    -0.7447340
  C       -2.7698910    -0.0438090     0.3861860
  C       -1.3446020     0.1937550     0.7721520
  C        3.5873700    -0.2293000     0.2222030
  C       -3.4668585     1.2722090     0.0551565
  C       -0.2802220    -0.2946410     0.1124460
  C        2.1660230    -0.5131760    -0.1475910
  C        1.0922740    -0.0266840     0.5021560
  C        4.3244450     0.5343730    -0.8803810
  H       -3.2802833    -0.5345008     1.2331822
  H       -1.1970340     0.8260370     1.6487790
  H        3.6131550     0.3461180     1.1547940
  H        4.1142490    -1.1721620     0.4188690
  H       -2.9813020     1.7413150    -0.7875330
  H       -4.5277090     1.0956620    -0.1864690
  H       -3.4435650     1.9541860     0.9176610
  H       -0.4470010    -0.9272420    -0.7564190
  H        2.0063450    -1.1440610    -1.0244550
  H        1.2471430     0.6066220     1.3780870
  H        4.3142870    -0.0291260    -1.8177910
  H        5.3679410     0.7151030    -0.6066950
  H        3.8442820     1.4990380    -1.0633910
  H       -3.7175750    -1.0591810    -0.9792530
units angstrom
no_reorient  #important for SAPT in psi4, default
symmetry c1  #important for SAPT in psi4, default
}

set PROPERTIES_ORIGIN ["COM"]
properties('MP2/aug-cc-pvtz', properties = ['dipole'])
--------------------------------------------------------------------------

    Molecular point group: c1
  Charge       = 0
  Multiplicity = 1
  Basis Set: AUG-CC-PVTZ
    Blend: AUG-CC-PVTZ
  Basis Set: (AUG-CC-PVTZ AUX)
    Blend: AUG-CC-PVTZ-JKFIT

    Orbital Energies [Eh]
    ---------------------

    Doubly Occupied:

       1A    -20.558368     2A    -11.286446     3A    -11.225852
       4A    -11.223558     5A    -11.223191     6A    -11.222923
       7A    -11.221641     8A    -11.220859     9A    -11.212848
      10A     -1.360662    11A     -1.097778    12A     -1.061314
      13A     -1.016005    14A     -0.962331    15A     -0.876755
      16A     -0.828751    17A     -0.752425    18A     -0.747969
      19A     -0.695235    20A     -0.637010    21A     -0.627351
      22A     -0.617032    23A     -0.589855    24A     -0.582803
      25A     -0.549412    26A     -0.543175    27A     -0.526212
      28A     -0.518976    29A     -0.500650    30A     -0.491934
      31A     -0.479029    32A     -0.467521    33A     -0.453279
      34A     -0.418378    35A     -0.297423

  @DF-RHF Final Energy:  -386.06239248928108

   => Energetics <=

    Nuclear Repulsion Energy =            418.3310607509758938
    One-Electron Energy =               -1352.5970056806165758
    Two-Electron Energy =                 548.2035524403595446
    Total Energy =                       -386.0623924892811374
  Basis Set: (AUG-CC-PVTZ AUX)
    Blend: AUG-CC-PVTZ-RI
    Molecular point group: c1

    Geometry (in Angstrom), charge = 0, multiplicity = 1:

       Center              X                  Y                   Z               Mass
    ------------   -----------------  -----------------  -----------------  -----------------
         O           -2.785707132837    -0.915573401812    -0.743795545768    15.994914619570
         C           -2.770769132837    -0.043960401812     0.387124454232    12.000000000000
         C           -1.345480132837     0.193603598188     0.773090454232    12.000000000000
         C            3.586491867163    -0.229451401812     0.223141454232    12.000000000000
         C           -3.467736632837     1.272057598188     0.056094954232    12.000000000000
         C           -0.281100132837    -0.294792401812     0.113384454232    12.000000000000
         C            2.165144867163    -0.513327401812    -0.146652545768    12.000000000000
         C            1.091395867163    -0.026835401812     0.503094454232    12.000000000000
         C            4.323566867163     0.534221598188    -0.879442545768    12.000000000000
         H           -3.281161432837    -0.534652201812     1.234120654232     1.007825032230
         H           -1.197912132837     0.825885598188     1.649717454232     1.007825032230
         H            3.612276867163     0.345966598188     1.155732454232     1.007825032230
         H            4.113370867163    -1.172313401812     0.419807454232     1.007825032230
         H           -2.982180132837     1.741163598188    -0.786594545768     1.007825032230
         H           -4.528587132837     1.095510598188    -0.185530545768     1.007825032230
         H           -3.444443132837     1.954034598188     0.918599454232     1.007825032230
         H           -0.447879132837    -0.927393401812    -0.755480545768     1.007825032230
         H            2.005466867163    -1.144212401812    -1.023516545768     1.007825032230
         H            1.246264867163     0.606470598188     1.379025454232     1.007825032230
         H            4.313408867163    -0.029277401812    -1.816852545768     1.007825032230
         H            5.367062867163     0.714951598188    -0.605756545768     1.007825032230
         H            3.843403867163     1.498886598188    -1.062452545768     1.007825032230
         H           -3.718453132837    -1.059332401812    -0.978314545768     1.007825032230

  Basis Set: AUG-CC-PVTZ
    Blend: AUG-CC-PVTZ
  Basis Set: (AUG-CC-PVTZ AUX)
    Blend: AUG-CC-PVTZ-JKFIT
	 Reference Energy          =    -386.0623924892810805 [Eh]
	 Singles Energy            =      -0.0000000000000000 [Eh]
	 Same-Spin Energy          =      -0.4003458439136835 [Eh]
	 Opposite-Spin Energy      =      -1.3783142364600547 [Eh]
	 Correlation Energy        =      -1.7786600803737382 [Eh]
	 Total Energy              =    -387.8410525696548348 [Eh]

	 ================> DF-SCS-MP2 Energies <==================
	-----------------------------------------------------------
	 SCS Same-Spin Scale       =       0.3333333333333333 [-]
	 SCS Opposite-Spin Scale   =       1.2000000000000000 [-]
	 SCS Same-Spin Energy      =      -0.1334486146378945 [Eh]
	 SCS Opposite-Spin Energy  =      -1.6539770837520655 [Eh]
	 SCS Correlation Energy    =      -1.7874256983899599 [Eh]
	 SCS Total Energy          =    -387.8498181876710191 [Eh]
	-----------------------------------------------------------

  Dipole Moment: [D]
     X:    -1.1595      Y:     0.6445      Z:     0.5769     Total:     1.4466

*** Psi4 exiting successfully. Buy a developer a beer!
