                               Psi4 1.3.2 release

  ==> Input File <==

--------------------------------------------------------------------------
#psi4
#
memory 32 gb

molecule  {
0 1
  O       -2.7848290    -0.9154220    -0.7447340
  C       -2.7698910    -0.0438090     0.3861860
  C       -1.3446020     0.1937550     0.7721520
  C        3.5913817    -0.2365039     0.2120833
  C       -3.4755630     1.2700040     0.0649850
  C       -0.2802220    -0.2946410     0.1124460
  C        2.1660230    -0.5131760    -0.1475910
  C        1.0922740    -0.0266840     0.5021560
  C        4.3244450     0.5343730    -0.8803810
  H       -3.2865450    -0.5271910     1.2335890
  H       -1.1970340     0.8260370     1.6487790
  H        3.6131550     0.3461180     1.1547940
  H        4.1142490    -1.1721620     0.4188690
  H       -2.9813020     1.7413150    -0.7875330
  H       -4.5277090     1.0956620    -0.1864690
  H       -3.4435650     1.9541860     0.9176610
  H       -0.4470010    -0.9272420    -0.7564190
  H        2.0157772    -1.1447671    -1.0256128
  H        1.2471430     0.6066220     1.3780870
  H        4.3142870    -0.0291260    -1.8177910
  H        5.3679410     0.7151030    -0.6066950
  H        3.8442820     1.4990380    -1.0633910
  H       -3.7175750    -1.0591810    -0.9792530
units angstrom
no_reorient  #important for SAPT in psi4, default
symmetry c1  #important for SAPT in psi4, default
}

set PROPERTIES_ORIGIN ["COM"]
properties('MP2/aug-cc-pvtz', properties = ['dipole'])
--------------------------------------------------------------------------

    Molecular point group: c1
  Charge       = 0
  Multiplicity = 1
  Basis Set: AUG-CC-PVTZ
    Blend: AUG-CC-PVTZ
  Basis Set: (AUG-CC-PVTZ AUX)
    Blend: AUG-CC-PVTZ-JKFIT

    Orbital Energies [Eh]
    ---------------------

    Doubly Occupied:

       1A    -20.558771     2A    -11.286533     3A    -11.226033
       4A    -11.223889     5A    -11.223376     6A    -11.223202
       7A    -11.221901     8A    -11.220680     9A    -11.212692
      10A     -1.360813    11A     -1.097858    12A     -1.061601
      13A     -1.016535    14A     -0.962764    15A     -0.876803
      16A     -0.828534    17A     -0.751980    18A     -0.748117
      19A     -0.695278    20A     -0.637235    21A     -0.627980
      22A     -0.617355    23A     -0.590434    24A     -0.583058
      25A     -0.546566    26A     -0.543738    27A     -0.527446
      28A     -0.520913    29A     -0.501059    30A     -0.492474
      31A     -0.475849    32A     -0.467711    33A     -0.452938
      34A     -0.418636    35A     -0.297767

  @DF-RHF Final Energy:  -386.06227763976693

   => Energetics <=

    Nuclear Repulsion Energy =            418.2706077736453381
    One-Electron Energy =               -1352.4687271725611026
    Two-Electron Energy =                 548.1358417591488887
    Total Energy =                       -386.0622776397668758
  Basis Set: (AUG-CC-PVTZ AUX)
    Blend: AUG-CC-PVTZ-RI
    Molecular point group: c1

    Geometry (in Angstrom), charge = 0, multiplicity = 1:

       Center              X                  Y                   Z               Mass
    ------------   -----------------  -----------------  -----------------  -----------------
         O           -2.785285908333    -0.914730835090    -0.743761833428    15.994914619570
         C           -2.770347908333    -0.043117835090     0.387158166572    12.000000000000
         C           -1.345058908333     0.194446164910     0.773124166572    12.000000000000
         C            3.590924791667    -0.235812735090     0.213055466572    12.000000000000
         C           -3.476019908333     1.270695164910     0.065957166572    12.000000000000
         C           -0.280678908333    -0.293949835090     0.113418166572    12.000000000000
         C            2.165566091667    -0.512484835090    -0.146618833428    12.000000000000
         C            1.091817091667    -0.025992835090     0.503128166572    12.000000000000
         C            4.323988091667     0.535064164910    -0.879408833428    12.000000000000
         H           -3.287001908333    -0.526499835090     1.234561166572     1.007825032230
         H           -1.197490908333     0.826728164910     1.649751166572     1.007825032230
         H            3.612698091667     0.346809164910     1.155766166572     1.007825032230
         H            4.113792091667    -1.171470835090     0.419841166572     1.007825032230
         H           -2.981758908333     1.742006164910    -0.786560833428     1.007825032230
         H           -4.528165908333     1.096353164910    -0.185496833428     1.007825032230
         H           -3.444021908333     1.954877164910     0.918633166572     1.007825032230
         H           -0.447457908333    -0.926550835090    -0.755446833428     1.007825032230
         H            2.015320291667    -1.144075935090    -1.024640633428     1.007825032230
         H            1.246686091667     0.607313164910     1.379059166572     1.007825032230
         H            4.313830091667    -0.028434835090    -1.816818833428     1.007825032230
         H            5.367484091667     0.715794164910    -0.605722833428     1.007825032230
         H            3.843825091667     1.499729164910    -1.062418833428     1.007825032230
         H           -3.718031908333    -1.058489835090    -0.978280833428     1.007825032230

  Basis Set: AUG-CC-PVTZ
    Blend: AUG-CC-PVTZ
  Basis Set: (AUG-CC-PVTZ AUX)
    Blend: AUG-CC-PVTZ-JKFIT
	 Reference Energy          =    -386.0622776397669327 [Eh]
	 Singles Energy            =      -0.0000000000000000 [Eh]
	 Same-Spin Energy          =      -0.4003719972310935 [Eh]
	 Opposite-Spin Energy      =      -1.3783679094145933 [Eh]
	 Correlation Energy        =      -1.7787399066456868 [Eh]
	 Total Energy              =    -387.8410175464126155 [Eh]

	 ================> DF-SCS-MP2 Energies <==================
	-----------------------------------------------------------
	 SCS Same-Spin Scale       =       0.3333333333333333 [-]
	 SCS Opposite-Spin Scale   =       1.2000000000000000 [-]
	 SCS Same-Spin Energy      =      -0.1334573324103645 [Eh]
	 SCS Opposite-Spin Energy  =      -1.6540414912975119 [Eh]
	 SCS Correlation Energy    =      -1.7874988237078764 [Eh]
	 SCS Total Energy          =    -387.8497764634748251 [Eh]
	-----------------------------------------------------------

  Dipole Moment: [D]
     X:    -1.1652      Y:     0.6391      Z:     0.5727     Total:     1.4471

*** Psi4 exiting successfully. Buy a developer a beer!
