                               Psi4 1.4a3.dev225

  ==> Input File <==

--------------------------------------------------------------------------
#psi4
#
memory 32 gb

molecule  {
0 1
  O       -2.7624640     1.3159430     0.2248240
  C       -2.8209640    -0.0168770    -0.2887760
  C       -1.4198970    -0.4865040    -0.5315690
  C        3.5469730    -0.0618850    -0.4287090
  C       -3.5485140    -0.9406360     0.6857820
  C       -0.3124200     0.2274490    -0.2577540
  C        2.1505970     0.4383770    -0.2221580
  C        1.0342680    -0.2689350    -0.4861660
  C        4.3265940    -0.1505530     0.8872490
  H       -3.3867500    -0.0202272    -1.2945620
  H       -1.3293920    -1.4912640    -0.9473420
  H        3.5136740    -1.0471260    -0.9088000
  H        4.0812660     0.6062640    -1.1173180
  H       -3.0279280    -0.9272120     1.6463760
  H       -4.5820380    -0.6089360     0.8383050
  H       -3.5770120    -1.9680220     0.3103630
  H       -0.4219900     1.2292040     0.1523950
  H        2.0485920     1.4434520     0.1930580
  H        1.1311650    -1.2755230    -0.8987060
  H        4.3778580     0.8269450     1.3761990
  H        5.3504770    -0.4972710     0.7173650
  H        3.8373540    -0.8453320     1.5752720
  H       -3.6799020     1.6047450     0.3678300
units angstrom
no_reorient  #important for SAPT in psi4, default
symmetry c1  #important for SAPT in psi4, default
}

set PROPERTIES_ORIGIN ["COM"]
properties('MP2/aug-cc-pvtz', properties = ['dipole'])
--------------------------------------------------------------------------

    Molecular point group: c1
  Charge       = 0
  Multiplicity = 1
  Basis Set: AUG-CC-PVTZ
    Blend: AUG-CC-PVTZ
  Basis Set: (AUG-CC-PVTZ AUX)
    Blend: AUG-CC-PVTZ-JKFIT

    Orbital Energies [Eh]
    ---------------------

    Doubly Occupied:

       1A    -20.559838     2A    -11.293239     3A    -11.226777
       4A    -11.224691     5A    -11.224030     6A    -11.223804
       7A    -11.222864     8A    -11.221560     9A    -11.213365
      10A     -1.360725    11A     -1.097252    12A     -1.060333
      13A     -1.015089    14A     -0.962316    15A     -0.875771
      16A     -0.826669    17A     -0.751498    18A     -0.748016
      19A     -0.690592    20A     -0.637263    21A     -0.626521
      22A     -0.616263    23A     -0.590310    24A     -0.583042
      25A     -0.546644    26A     -0.543547    27A     -0.527358
      28A     -0.518643    29A     -0.501122    30A     -0.491512
      31A     -0.479383    32A     -0.467943    33A     -0.451261
      34A     -0.417387    35A     -0.297375

  @DF-RHF Final Energy:  -386.06013209640992

   => Energetics <=

    Nuclear Repulsion Energy =            417.4982273460458941
    One-Electron Energy =               -1350.9287113562747891
    Two-Electron Energy =                 547.3703519138189222
    Total Energy =                       -386.0601320964099159
  Basis Set: (AUG-CC-PVTZ AUX)
    Blend: AUG-CC-PVTZ-RI
    Molecular point group: c1

    Geometry (in Angstrom), charge = 0, multiplicity = 1:

       Center              X                  Y                   Z               Mass
    ------------   -----------------  -----------------  -----------------  -----------------
         O           -2.728076372441     1.292628345683     0.241342087569    15.994914619570
         C           -2.786576372441    -0.040191654317    -0.272257912431    12.000000000000
         C           -1.385509372441    -0.509818654317    -0.515050912431    12.000000000000
         C            3.581360627559    -0.085199654317    -0.412190912431    12.000000000000
         C           -3.514126372441    -0.963950654317     0.702300087569    12.000000000000
         C           -0.278032372441     0.204134345683    -0.241235912431    12.000000000000
         C            2.184984627559     0.415062345683    -0.205639912431    12.000000000000
         C            1.068655627559    -0.292249654317    -0.469647912431    12.000000000000
         C            4.360981627559    -0.173867654317     0.903767087569    12.000000000000
         H           -3.352362372441    -0.043541854317    -1.278043912431     1.007825032230
         H           -1.295004372441    -1.514578654317    -0.930823912431     1.007825032230
         H            3.548061627559    -1.070440654317    -0.892281912431     1.007825032230
         H            4.115653627559     0.582949345683    -1.100799912431     1.007825032230
         H           -2.993540372441    -0.950526654317     1.662894087569     1.007825032230
         H           -4.547650372441    -0.632250654317     0.854823087569     1.007825032230
         H           -3.542624372441    -1.991336654317     0.326881087569     1.007825032230
         H           -0.387602372441     1.205889345683     0.168913087569     1.007825032230
         H            2.082979627559     1.420137345683     0.209576087569     1.007825032230
         H            1.165552627559    -1.298837654317    -0.882187912431     1.007825032230
         H            4.412245627559     0.803630345683     1.392717087569     1.007825032230
         H            5.384864627559    -0.520585654317     0.733883087569     1.007825032230
         H            3.871741627559    -0.868646654317     1.591790087569     1.007825032230
         H           -3.645514372441     1.581430345683     0.384348087569     1.007825032230

  Basis Set: AUG-CC-PVTZ
    Blend: AUG-CC-PVTZ
  Basis Set: (AUG-CC-PVTZ AUX)
    Blend: AUG-CC-PVTZ-JKFIT
	 Reference Energy          =    -386.0601320964099159 [Eh]
	 Singles Energy            =      -0.0000000000000000 [Eh]
	 Same-Spin Energy          =      -0.4003419078438493 [Eh]
	 Opposite-Spin Energy      =      -1.3787989816308295 [Eh]
	 Correlation Energy        =      -1.7791408894746787 [Eh]
	 Total Energy              =    -387.8392729858845769 [Eh]

	 ================> DF-SCS-MP2 Energies <==================
	-----------------------------------------------------------
	 SCS Same-Spin Scale       =       0.3333333333333333 [-]
	 SCS Opposite-Spin Scale   =       1.2000000000000000 [-]
	 SCS Same-Spin Energy      =      -0.1334473026146164 [Eh]
	 SCS Opposite-Spin Energy  =      -1.6545587779569952 [Eh]
	 SCS Correlation Energy    =      -1.7880060805716116 [Eh]
	 SCS Total Energy          =    -387.8481381769815357 [Eh]
	-----------------------------------------------------------

  Dipole Moment: [D]
     X:    -1.1682      Y:    -0.7840      Z:    -0.1035     Total:     1.4107

*** Psi4 exiting successfully. Buy a developer a beer!
