                               Psi4 1.3.2 release

  ==> Input File <==

--------------------------------------------------------------------------
#psi4
#
memory 32 gb

molecule  {
0 1
  O       -2.7848290    -0.9154220    -0.7447340
  C       -2.7698910    -0.0438090     0.3861860
  C       -1.3446020     0.1937550     0.7721520
  C        3.5873700    -0.2293000     0.2222030
  C       -3.4755630     1.2700040     0.0649850
  C       -0.2802220    -0.2946410     0.1124460
  C        2.1660230    -0.5131760    -0.1475910
  C        0.9327303     0.0456017     0.5986991
  C        4.3244450     0.5343730    -0.8803810
  H       -3.2865450    -0.5271910     1.2335890
  H       -1.1970340     0.8260370     1.6487790
  H        3.6131550     0.3461180     1.1547940
  H        4.1142490    -1.1721620     0.4188690
  H       -2.9813020     1.7413150    -0.7875330
  H       -4.5277090     1.0956620    -0.1864690
  H       -3.4435650     1.9541860     0.9176610
  H       -0.4470010    -0.9272420    -0.7564190
  H        2.0063450    -1.1440610    -1.0244550
  H        1.2471430     0.6066220     1.3780870
  H        4.3142870    -0.0291260    -1.8177910
  H        5.3679410     0.7151030    -0.6066950
  H        3.8442820     1.4990380    -1.0633910
  H       -3.7175750    -1.0591810    -0.9792530
units angstrom
no_reorient  #important for SAPT in psi4, default
symmetry c1  #important for SAPT in psi4, default
}

set PROPERTIES_ORIGIN ["COM"]
properties('MP2/aug-cc-pvtz', properties = ['dipole'])
--------------------------------------------------------------------------

    Molecular point group: c1
  Charge       = 0
  Multiplicity = 1
  Basis Set: AUG-CC-PVTZ
    Blend: AUG-CC-PVTZ
  Basis Set: (AUG-CC-PVTZ AUX)
    Blend: AUG-CC-PVTZ-JKFIT

    Orbital Energies [Eh]
    ---------------------

    Doubly Occupied:

       1A    -20.559146     2A    -11.284637     3A    -11.249075
       4A    -11.234498     5A    -11.225395     6A    -11.220259
       7A    -11.220023     8A    -11.217493     9A    -11.213499
      10A     -1.361039    11A     -1.103594    12A     -1.056817
      13A     -1.021922    14A     -0.944116    15A     -0.882635
      16A     -0.822434    17A     -0.765449    18A     -0.749986
      19A     -0.699745    20A     -0.637958    21A     -0.629786
      22A     -0.617112    23A     -0.598905    24A     -0.578687
      25A     -0.546894    26A     -0.544117    27A     -0.528423
      28A     -0.514245    29A     -0.507822    30A     -0.495109
      31A     -0.481891    32A     -0.457240    33A     -0.453406
      34A     -0.422616    35A     -0.260785

  @DF-RHF Final Energy:  -386.00231564145258

   => Energetics <=

    Nuclear Repulsion Energy =            417.8841881555704845
    One-Electron Energy =               -1351.5594940246351143
    Two-Electron Energy =                 547.6729902276121038
    Total Energy =                       -386.0023156414525829
  Basis Set: (AUG-CC-PVTZ AUX)
    Blend: AUG-CC-PVTZ-RI
    Molecular point group: c1

    Geometry (in Angstrom), charge = 0, multiplicity = 1:

       Center              X                  Y                   Z               Mass
    ------------   -----------------  -----------------  -----------------  -----------------
         O           -2.769646725326    -0.922300644967    -0.753921033256    15.994914619570
         C           -2.754708725326    -0.050687644967     0.376998966744    12.000000000000
         C           -1.329419725326     0.186876355033     0.762964966744    12.000000000000
         C            3.602552274674    -0.236178644967     0.213015966744    12.000000000000
         C           -3.460380725326     1.263125355033     0.055797966744    12.000000000000
         C           -0.265039725326    -0.301519644967     0.103258966744    12.000000000000
         C            2.181205274674    -0.520054644967    -0.156778033256    12.000000000000
         C            0.947912574674     0.038723055033     0.589512066744    12.000000000000
         C            4.339627274674     0.527494355033    -0.889568033256    12.000000000000
         H           -3.271362725326    -0.534069644967     1.224401966744     1.007825032230
         H           -1.181851725326     0.819158355033     1.639591966744     1.007825032230
         H            3.628337274674     0.339239355033     1.145606966744     1.007825032230
         H            4.129431274674    -1.179040644967     0.409681966744     1.007825032230
         H           -2.966119725326     1.734436355033    -0.796720033256     1.007825032230
         H           -4.512526725326     1.088783355033    -0.195656033256     1.007825032230
         H           -3.428382725326     1.947307355033     0.908473966744     1.007825032230
         H           -0.431818725326    -0.934120644967    -0.765606033256     1.007825032230
         H            2.021527274674    -1.150939644967    -1.033642033256     1.007825032230
         H            1.262325274674     0.599743355033     1.368899966744     1.007825032230
         H            4.329469274674    -0.036004644967    -1.826978033256     1.007825032230
         H            5.383123274674     0.708224355033    -0.615882033256     1.007825032230
         H            3.859464274674     1.492159355033    -1.072578033256     1.007825032230
         H           -3.702392725326    -1.066059644967    -0.988440033256     1.007825032230

  Basis Set: AUG-CC-PVTZ
    Blend: AUG-CC-PVTZ
  Basis Set: (AUG-CC-PVTZ AUX)
    Blend: AUG-CC-PVTZ-JKFIT
	 Reference Energy          =    -386.0023156414525829 [Eh]
	 Singles Energy            =      -0.0000000000000000 [Eh]
	 Same-Spin Energy          =      -0.4058020885877048 [Eh]
	 Opposite-Spin Energy      =      -1.3880295582353133 [Eh]
	 Correlation Energy        =      -1.7938316468230182 [Eh]
	 Total Energy              =    -387.7961472882756198 [Eh]

	 ================> DF-SCS-MP2 Energies <==================
	-----------------------------------------------------------
	 SCS Same-Spin Scale       =       0.3333333333333333 [-]
	 SCS Opposite-Spin Scale   =       1.2000000000000000 [-]
	 SCS Same-Spin Energy      =      -0.1352673628625683 [Eh]
	 SCS Opposite-Spin Energy  =      -1.6656354698823759 [Eh]
	 SCS Correlation Energy    =      -1.8009028327449441 [Eh]
	 SCS Total Energy          =    -387.8032184741975357 [Eh]
	-----------------------------------------------------------

  Dipole Moment: [D]
     X:    -1.2653      Y:     0.6768      Z:     0.6359     Total:     1.5695

*** Psi4 exiting successfully. Buy a developer a beer!
