                               Psi4 1.3.2 release

  ==> Input File <==

--------------------------------------------------------------------------
#psi4
#
memory 32 gb

molecule  {
0 1
  O       -2.7848290    -0.9154220    -0.7447340
  C       -2.7698910    -0.0438090     0.3861860
  C       -1.3446020     0.1937550     0.7721520
  C        3.5873700    -0.2293000     0.2222030
  C       -3.4755630     1.2700040     0.0649850
  C       -0.2802220    -0.2946410     0.1124460
  C        2.1660230    -0.5131760    -0.1475910
  C        1.1212493    -0.0053319     0.5323537
  C        4.3244450     0.5343730    -0.8803810
  H       -3.2865450    -0.5271910     1.2335890
  H       -1.1970340     0.8260370     1.6487790
  H        3.6131550     0.3461180     1.1547940
  H        4.1142490    -1.1721620     0.4188690
  H       -2.9813020     1.7413150    -0.7875330
  H       -4.5277090     1.0956620    -0.1864690
  H       -3.4435650     1.9541860     0.9176610
  H       -0.4470010    -0.9272420    -0.7564190
  H        2.0441387    -1.1473353    -1.0281531
  H        1.2471430     0.6066220     1.3780870
  H        4.3142870    -0.0291260    -1.8177910
  H        5.3679410     0.7151030    -0.6066950
  H        3.8442820     1.4990380    -1.0633910
  H       -3.7175750    -1.0591810    -0.9792530
units angstrom
no_reorient  #important for SAPT in psi4, default
symmetry c1  #important for SAPT in psi4, default
}

set PROPERTIES_ORIGIN ["COM"]
properties('MP2/aug-cc-pvtz', properties = ['dipole'])
--------------------------------------------------------------------------

    Molecular point group: c1
  Charge       = 0
  Multiplicity = 1
  Basis Set: AUG-CC-PVTZ
    Blend: AUG-CC-PVTZ
  Basis Set: (AUG-CC-PVTZ AUX)
    Blend: AUG-CC-PVTZ-JKFIT

    Orbital Energies [Eh]
    ---------------------

    Doubly Occupied:

       1A    -20.558372     2A    -11.285792     3A    -11.226501
       4A    -11.224887     5A    -11.223301     6A    -11.221292
       7A    -11.220978     8A    -11.220170     9A    -11.212403
      10A     -1.360366    11A     -1.095286    12A     -1.060823
      13A     -1.013373    14A     -0.962139    15A     -0.874146
      16A     -0.827934    17A     -0.757417    18A     -0.746140
      19A     -0.694824    20A     -0.638256    21A     -0.624693
      22A     -0.617558    23A     -0.592378    24A     -0.579674
      25A     -0.546769    26A     -0.544347    27A     -0.532080
      28A     -0.517898    29A     -0.502208    30A     -0.493126
      31A     -0.479860    32A     -0.462064    33A     -0.451966
      34A     -0.413864    35A     -0.299791

  @DF-RHF Final Energy:  -386.06057789757421

   => Energetics <=

    Nuclear Repulsion Energy =            417.8834387200059268
    One-Electron Energy =               -1351.7226841087635876
    Two-Electron Energy =                 547.7786674911834552
    Total Energy =                       -386.0605778975742624
  Basis Set: (AUG-CC-PVTZ AUX)
    Blend: AUG-CC-PVTZ-RI
    Molecular point group: c1

    Geometry (in Angstrom), charge = 0, multiplicity = 1:

       Center              X                  Y                   Z               Mass
    ------------   -----------------  -----------------  -----------------  -----------------
         O           -2.787888089227    -0.917427676185    -0.747578102914    15.994914619570
         C           -2.772950089227    -0.045814676185     0.383341897086    12.000000000000
         C           -1.347661089227     0.191749323815     0.769307897086    12.000000000000
         C            3.584310910773    -0.231305676185     0.219358897086    12.000000000000
         C           -3.478622089227     1.267998323815     0.062140897086    12.000000000000
         C           -0.283281089227    -0.296646676185     0.109601897086    12.000000000000
         C            2.162963910773    -0.515181676185    -0.150435102914    12.000000000000
         C            1.118190210773    -0.007337576185     0.529509597086    12.000000000000
         C            4.321385910773     0.532367323815    -0.883225102914    12.000000000000
         H           -3.289604089227    -0.529196676185     1.230744897086     1.007825032230
         H           -1.200093089227     0.824031323815     1.645934897086     1.007825032230
         H            3.610095910773     0.344112323815     1.151949897086     1.007825032230
         H            4.111189910773    -1.174167676185     0.416024897086     1.007825032230
         H           -2.984361089227     1.739309323815    -0.790377102914     1.007825032230
         H           -4.530768089227     1.093656323815    -0.189313102914     1.007825032230
         H           -3.446624089227     1.952180323815     0.914816897086     1.007825032230
         H           -0.450060089227    -0.929247676185    -0.759263102914     1.007825032230
         H            2.041079610773    -1.149340976185    -1.030997202914     1.007825032230
         H            1.244083910773     0.604616323815     1.375242897086     1.007825032230
         H            4.311227910773    -0.031131676185    -1.820635102914     1.007825032230
         H            5.364881910773     0.713097323815    -0.609539102914     1.007825032230
         H            3.841222910773     1.497032323815    -1.066235102914     1.007825032230
         H           -3.720634089227    -1.061186676185    -0.982097102914     1.007825032230

  Basis Set: AUG-CC-PVTZ
    Blend: AUG-CC-PVTZ
  Basis Set: (AUG-CC-PVTZ AUX)
    Blend: AUG-CC-PVTZ-JKFIT
	 Reference Energy          =    -386.0605778975742055 [Eh]
	 Singles Energy            =      -0.0000000000000000 [Eh]
	 Same-Spin Energy          =      -0.3998231604302060 [Eh]
	 Opposite-Spin Energy      =      -1.3779105703888803 [Eh]
	 Correlation Energy        =      -1.7777337308190864 [Eh]
	 Total Energy              =    -387.8383116283932850 [Eh]

	 ================> DF-SCS-MP2 Energies <==================
	-----------------------------------------------------------
	 SCS Same-Spin Scale       =       0.3333333333333333 [-]
	 SCS Opposite-Spin Scale   =       1.2000000000000000 [-]
	 SCS Same-Spin Energy      =      -0.1332743868100687 [Eh]
	 SCS Opposite-Spin Energy  =      -1.6534926844666564 [Eh]
	 SCS Correlation Energy    =      -1.7867670712767252 [Eh]
	 SCS Total Energy          =    -387.8473449688509049 [Eh]
	-----------------------------------------------------------

  Dipole Moment: [D]
     X:    -1.1345      Y:     0.6382      Z:     0.5851     Total:     1.4271

*** Psi4 exiting successfully. Buy a developer a beer!
