                               Psi4 1.3.2 release

  ==> Input File <==

--------------------------------------------------------------------------
#psi4
#
memory 32 gb

molecule  {
0 1
  O       -2.7473993    -0.8632265    -0.7829853
  C       -2.7698910    -0.0438090     0.3861860
  C       -1.3446020     0.1937550     0.7721520
  C        3.5873700    -0.2293000     0.2222030
  C       -3.4755630     1.2700040     0.0649850
  C       -0.2802220    -0.2946410     0.1124460
  C        2.1660230    -0.5131760    -0.1475910
  C        1.0922740    -0.0266840     0.5021560
  C        4.3244450     0.5343730    -0.8803810
  H       -3.2755561    -0.4800692     1.2651975
  H       -1.1970340     0.8260370     1.6487790
  H        3.6131550     0.3461180     1.1547940
  H        4.1142490    -1.1721620     0.4188690
  H       -2.9813020     1.7413150    -0.7875330
  H       -4.5277090     1.0956620    -0.1864690
  H       -3.4435650     1.9541860     0.9176610
  H       -0.4470010    -0.9272420    -0.7564190
  H        2.0063450    -1.1440610    -1.0244550
  H        1.2471430     0.6066220     1.3780870
  H        4.3142870    -0.0291260    -1.8177910
  H        5.3679410     0.7151030    -0.6066950
  H        3.8442820     1.4990380    -1.0633910
  H       -3.7175750    -1.0591810    -0.9792530
units angstrom
no_reorient  #important for SAPT in psi4, default
symmetry c1  #important for SAPT in psi4, default
}

set PROPERTIES_ORIGIN ["COM"]
properties('MP2/aug-cc-pvtz', properties = ['dipole'])
--------------------------------------------------------------------------

    Molecular point group: c1
  Charge       = 0
  Multiplicity = 1
  Basis Set: AUG-CC-PVTZ
    Blend: AUG-CC-PVTZ
  Basis Set: (AUG-CC-PVTZ AUX)
    Blend: AUG-CC-PVTZ-JKFIT

    Orbital Energies [Eh]
    ---------------------

    Doubly Occupied:

       1A    -20.565348     2A    -11.286525     3A    -11.225272
       4A    -11.222915     5A    -11.222697     6A    -11.222160
       7A    -11.220663     8A    -11.219021     9A    -11.212508
      10A     -1.356725    11A     -1.096920    12A     -1.060104
      13A     -1.015458    14A     -0.961993    15A     -0.875581
      16A     -0.827232    17A     -0.751792    18A     -0.744148
      19A     -0.695811    20A     -0.637637    21A     -0.626749
      22A     -0.613151    23A     -0.589147    24A     -0.580665
      25A     -0.546377    26A     -0.542795    27A     -0.527450
      28A     -0.518325    29A     -0.499941    30A     -0.492952
      31A     -0.478691    32A     -0.466934    33A     -0.453375
      34A     -0.417727    35A     -0.296679

  @DF-RHF Final Energy:  -386.05656625874354

   => Energetics <=

    Nuclear Repulsion Energy =            418.6295334274255424
    One-Electron Energy =               -1353.2292646678904475
    Two-Electron Energy =                 548.5431649817214748
    Total Energy =                       -386.0565662587434872
  Basis Set: (AUG-CC-PVTZ AUX)
    Blend: AUG-CC-PVTZ-RI
    Molecular point group: c1

    Geometry (in Angstrom), charge = 0, multiplicity = 1:

       Center              X                  Y                   Z               Mass
    ------------   -----------------  -----------------  -----------------  -----------------
         O           -2.752234430283    -0.870223496808    -0.778386242184    15.994914619570
         C           -2.774726130283    -0.050805996808     0.390785057816    12.000000000000
         C           -1.349437130283     0.186758003192     0.776751057816    12.000000000000
         C            3.582534869717    -0.236296996808     0.226802057816    12.000000000000
         C           -3.480398130283     1.263007003192     0.069584057816    12.000000000000
         C           -0.285057130283    -0.301637996808     0.117045057816    12.000000000000
         C            2.161187869717    -0.520172996808    -0.142991942184    12.000000000000
         C            1.087438869717    -0.033680996808     0.506755057816    12.000000000000
         C            4.319609869717     0.527376003192    -0.875781942184    12.000000000000
         H           -3.280391230283    -0.487066196808     1.269796557816     1.007825032230
         H           -1.201869130283     0.819040003192     1.653378057816     1.007825032230
         H            3.608319869717     0.339121003192     1.159393057816     1.007825032230
         H            4.109413869717    -1.179158996808     0.423468057816     1.007825032230
         H           -2.986137130283     1.734318003192    -0.782933942184     1.007825032230
         H           -4.532544130283     1.088665003192    -0.181869942184     1.007825032230
         H           -3.448400130283     1.947189003192     0.922260057816     1.007825032230
         H           -0.451836130283    -0.934238996808    -0.751819942184     1.007825032230
         H            2.001509869717    -1.151057996808    -1.019855942184     1.007825032230
         H            1.242307869717     0.599625003192     1.382686057816     1.007825032230
         H            4.309451869717    -0.036122996808    -1.813191942184     1.007825032230
         H            5.363105869717     0.708106003192    -0.602095942184     1.007825032230
         H            3.839446869717     1.492041003192    -1.058791942184     1.007825032230
         H           -3.722410130283    -1.066177996808    -0.974653942184     1.007825032230

  Basis Set: AUG-CC-PVTZ
    Blend: AUG-CC-PVTZ
  Basis Set: (AUG-CC-PVTZ AUX)
    Blend: AUG-CC-PVTZ-JKFIT
	 Reference Energy          =    -386.0565662587435440 [Eh]
	 Singles Energy            =      -0.0000000000000000 [Eh]
	 Same-Spin Energy          =      -0.4011665965380653 [Eh]
	 Opposite-Spin Energy      =      -1.3800553795639061 [Eh]
	 Correlation Energy        =      -1.7812219761019714 [Eh]
	 Total Energy              =    -387.8377882348455046 [Eh]

	 ================> DF-SCS-MP2 Energies <==================
	-----------------------------------------------------------
	 SCS Same-Spin Scale       =       0.3333333333333333 [-]
	 SCS Opposite-Spin Scale   =       1.2000000000000000 [-]
	 SCS Same-Spin Energy      =      -0.1337221988460218 [Eh]
	 SCS Opposite-Spin Energy  =      -1.6560664554766873 [Eh]
	 SCS Correlation Energy    =      -1.7897886543227091 [Eh]
	 SCS Total Energy          =    -387.8463549130662500 [Eh]
	-----------------------------------------------------------

  Dipole Moment: [D]
     X:    -1.2396      Y:     0.4991      Z:     0.6351     Total:     1.4796

*** Psi4 exiting successfully. Buy a developer a beer!
