                               Psi4 1.3.2 release

  ==> Input File <==

--------------------------------------------------------------------------
#psi4
#
memory 32 gb

molecule  {
0 1
  O       -2.7848290    -0.9154220    -0.7447340
  C       -2.7698910    -0.0438090     0.3861860
  C       -1.3446020     0.1937550     0.7721520
  C        3.5873700    -0.2293000     0.2222030
  C       -3.4755630     1.2700040     0.0649850
  C       -0.2802220    -0.2946410     0.1124460
  C        1.9759840    -0.5511312    -0.1970337
  C        1.0922740    -0.0266840     0.5021560
  C        4.3244450     0.5343730    -0.8803810
  H       -3.2865450    -0.5271910     1.2335890
  H       -1.1970340     0.8260370     1.6487790
  H        3.6131550     0.3461180     1.1547940
  H        4.1142490    -1.1721620     0.4188690
  H       -2.9813020     1.7413150    -0.7875330
  H       -4.5277090     1.0956620    -0.1864690
  H       -3.4435650     1.9541860     0.9176610
  H       -0.4470010    -0.9272420    -0.7564190
  H        2.0063450    -1.1440610    -1.0244550
  H        1.2471430     0.6066220     1.3780870
  H        4.3142870    -0.0291260    -1.8177910
  H        5.3679410     0.7151030    -0.6066950
  H        3.8442820     1.4990380    -1.0633910
  H       -3.7175750    -1.0591810    -0.9792530
units angstrom
no_reorient  #important for SAPT in psi4, default
symmetry c1  #important for SAPT in psi4, default
}

set PROPERTIES_ORIGIN ["COM"]
properties('MP2/aug-cc-pvtz', properties = ['dipole'])
--------------------------------------------------------------------------

    Molecular point group: c1
  Charge       = 0
  Multiplicity = 1
  Basis Set: AUG-CC-PVTZ
    Blend: AUG-CC-PVTZ
  Basis Set: (AUG-CC-PVTZ AUX)
    Blend: AUG-CC-PVTZ-JKFIT

    Orbital Energies [Eh]
    ---------------------

    Doubly Occupied:

       1A    -20.558063     2A    -11.285037     3A    -11.226391
       4A    -11.220086     5A    -11.219812     6A    -11.218445
       7A    -11.215834     8A    -11.211606     9A    -11.210076
      10A     -1.360008    11A     -1.108591    12A     -1.053203
      13A     -1.011232    14A     -0.970267    15A     -0.866268
      16A     -0.821169    17A     -0.765103    18A     -0.747328
      19A     -0.696881    20A     -0.645827    21A     -0.621227
      22A     -0.616114    23A     -0.588741    24A     -0.584911
      25A     -0.555622    26A     -0.545030    27A     -0.534023
      28A     -0.508987    29A     -0.500775    30A     -0.487220
      31A     -0.479874    32A     -0.454151    33A     -0.434375
      34A     -0.417784    35A     -0.311157

  @DF-RHF Final Energy:  -386.02665463530832

   => Energetics <=

    Nuclear Repulsion Energy =            418.7811608854250380
    One-Electron Energy =               -1353.5131962631069200
    Two-Electron Energy =                 548.7053807423735634
    Total Energy =                       -386.0266546353083186
  Basis Set: (AUG-CC-PVTZ AUX)
    Blend: AUG-CC-PVTZ-RI
    Molecular point group: c1

    Geometry (in Angstrom), charge = 0, multiplicity = 1:

       Center              X                  Y                   Z               Mass
    ------------   -----------------  -----------------  -----------------  -----------------
         O           -2.766744816977    -0.911810209127    -0.740029141331    15.994914619570
         C           -2.751806816977    -0.040197209127     0.390890858669    12.000000000000
         C           -1.326517816977     0.197366790873     0.776856858669    12.000000000000
         C            3.605454183023    -0.225688209127     0.226907858669    12.000000000000
         C           -3.457478816977     1.273615790873     0.069689858669    12.000000000000
         C           -0.262137816977    -0.291029209127     0.117150858669    12.000000000000
         C            1.994068183023    -0.547519409127    -0.192328841331    12.000000000000
         C            1.110358183023    -0.023072209127     0.506860858669    12.000000000000
         C            4.342529183023     0.537984790873    -0.875676141331    12.000000000000
         H           -3.268460816977    -0.523579209127     1.238293858669     1.007825032230
         H           -1.178949816977     0.829648790873     1.653483858669     1.007825032230
         H            3.631239183023     0.349729790873     1.159498858669     1.007825032230
         H            4.132333183023    -1.168550209127     0.423573858669     1.007825032230
         H           -2.963217816977     1.744926790873    -0.782828141331     1.007825032230
         H           -4.509624816977     1.099273790873    -0.181764141331     1.007825032230
         H           -3.425480816977     1.957797790873     0.922365858669     1.007825032230
         H           -0.428916816977    -0.923630209127    -0.751714141331     1.007825032230
         H            2.024429183023    -1.140449209127    -1.019750141331     1.007825032230
         H            1.265227183023     0.610233790873     1.382791858669     1.007825032230
         H            4.332371183023    -0.025514209127    -1.813086141331     1.007825032230
         H            5.386025183023     0.718714790873    -0.601990141331     1.007825032230
         H            3.862366183023     1.502649790873    -1.058686141331     1.007825032230
         H           -3.699490816977    -1.055569209127    -0.974548141331     1.007825032230

  Basis Set: AUG-CC-PVTZ
    Blend: AUG-CC-PVTZ
  Basis Set: (AUG-CC-PVTZ AUX)
    Blend: AUG-CC-PVTZ-JKFIT
	 Reference Energy          =    -386.0266546353083186 [Eh]
	 Singles Energy            =      -0.0000000000000000 [Eh]
	 Same-Spin Energy          =      -0.3990260200720639 [Eh]
	 Opposite-Spin Energy      =      -1.3768993560837850 [Eh]
	 Correlation Energy        =      -1.7759253761558489 [Eh]
	 Total Energy              =    -387.8025800114641584 [Eh]

	 ================> DF-SCS-MP2 Energies <==================
	-----------------------------------------------------------
	 SCS Same-Spin Scale       =       0.3333333333333333 [-]
	 SCS Opposite-Spin Scale   =       1.2000000000000000 [-]
	 SCS Same-Spin Energy      =      -0.1330086733573546 [Eh]
	 SCS Opposite-Spin Energy  =      -1.6522792273005420 [Eh]
	 SCS Correlation Energy    =      -1.7852879006578966 [Eh]
	 SCS Total Energy          =    -387.8119425359662387 [Eh]
	-----------------------------------------------------------

  Dipole Moment: [D]
     X:    -1.2616      Y:     0.6105      Z:     0.5512     Total:     1.5060

*** Psi4 exiting successfully. Buy a developer a beer!
