                               Psi4 1.3.2 release

  ==> Input File <==

--------------------------------------------------------------------------
#psi4
#
memory 32 gb

molecule  {
0 1
  O       -2.7848290    -0.9154220    -0.7447340
  C       -2.7698910    -0.0438090     0.3861860
  C       -1.3493740     0.1830541     0.7954776
  C        3.5873700    -0.2293000     0.2222030
  C       -3.4755630     1.2700040     0.0649850
  C       -0.2802220    -0.2946410     0.1124460
  C        2.1660230    -0.5131760    -0.1475910
  C        1.0922740    -0.0266840     0.5021560
  C        4.3244450     0.5343730    -0.8803810
  H       -3.2701229    -0.5267144     1.2436542
  H       -1.1970340     0.8260370     1.6487790
  H        3.6131550     0.3461180     1.1547940
  H        4.1142490    -1.1721620     0.4188690
  H       -2.9813020     1.7413150    -0.7875330
  H       -4.5277090     1.0956620    -0.1864690
  H       -3.4435650     1.9541860     0.9176610
  H       -0.4470010    -0.9272420    -0.7564190
  H        2.0063450    -1.1440610    -1.0244550
  H        1.2471430     0.6066220     1.3780870
  H        4.3142870    -0.0291260    -1.8177910
  H        5.3679410     0.7151030    -0.6066950
  H        3.8442820     1.4990380    -1.0633910
  H       -3.7175750    -1.0591810    -0.9792530
units angstrom
no_reorient  #important for SAPT in psi4, default
symmetry c1  #important for SAPT in psi4, default
}

set PROPERTIES_ORIGIN ["COM"]
properties('MP2/aug-cc-pvtz', properties = ['dipole'])
--------------------------------------------------------------------------

    Molecular point group: c1
  Charge       = 0
  Multiplicity = 1
  Basis Set: AUG-CC-PVTZ
    Blend: AUG-CC-PVTZ
  Basis Set: (AUG-CC-PVTZ AUX)
    Blend: AUG-CC-PVTZ-JKFIT

    Orbital Energies [Eh]
    ---------------------

    Doubly Occupied:

       1A    -20.559289     2A    -11.286421     3A    -11.225767
       4A    -11.224693     5A    -11.223204     6A    -11.222993
       7A    -11.222620     8A    -11.221074     9A    -11.212809
      10A     -1.360897    11A     -1.097060    12A     -1.060849
      13A     -1.015818    14A     -0.961614    15A     -0.877236
      16A     -0.828161    17A     -0.752283    18A     -0.749782
      19A     -0.694502    20A     -0.637494    21A     -0.626164
      22A     -0.617439    23A     -0.590710    24A     -0.582851
      25A     -0.547413    26A     -0.543755    27A     -0.527955
      28A     -0.519016    29A     -0.502138    30A     -0.491481
      31A     -0.478971    32A     -0.467919    33A     -0.453168
      34A     -0.417112    35A     -0.295741

  @DF-RHF Final Energy:  -386.06164241308551

   => Energetics <=

    Nuclear Repulsion Energy =            418.0740090802750046
    One-Electron Energy =               -1352.0785017343127947
    Two-Electron Energy =                 547.9428502409523389
    Total Energy =                       -386.0616424130854512
  Basis Set: (AUG-CC-PVTZ AUX)
    Blend: AUG-CC-PVTZ-RI
    Molecular point group: c1

    Geometry (in Angstrom), charge = 0, multiplicity = 1:

       Center              X                  Y                   Z               Mass
    ------------   -----------------  -----------------  -----------------  -----------------
         O           -2.784505921647    -0.914407515489    -0.747034155467    15.994914619570
         C           -2.769567921647    -0.042794515489     0.383885844533    12.000000000000
         C           -1.349050921647     0.184068584511     0.793177444533    12.000000000000
         C            3.587693078353    -0.228285515489     0.219902844533    12.000000000000
         C           -3.475239921647     1.271018484511     0.062684844533    12.000000000000
         C           -0.279898921647    -0.293626515489     0.110145844533    12.000000000000
         C            2.166346078353    -0.512161515489    -0.149891155467    12.000000000000
         C            1.092597078353    -0.025669515489     0.499855844533    12.000000000000
         C            4.324768078353     0.535387484511    -0.882681155467    12.000000000000
         H           -3.269799821647    -0.525699915489     1.241354044533     1.007825032230
         H           -1.196710921647     0.827051484511     1.646478844533     1.007825032230
         H            3.613478078353     0.347132484511     1.152493844533     1.007825032230
         H            4.114572078353    -1.171147515489     0.416568844533     1.007825032230
         H           -2.980978921647     1.742329484511    -0.789833155467     1.007825032230
         H           -4.527385921647     1.096676484511    -0.188769155467     1.007825032230
         H           -3.443241921647     1.955200484511     0.915360844533     1.007825032230
         H           -0.446677921647    -0.926227515489    -0.758719155467     1.007825032230
         H            2.006668078353    -1.143046515489    -1.026755155467     1.007825032230
         H            1.247466078353     0.607636484511     1.375786844533     1.007825032230
         H            4.314610078353    -0.028111515489    -1.820091155467     1.007825032230
         H            5.368264078353     0.716117484511    -0.608995155467     1.007825032230
         H            3.844605078353     1.500052484511    -1.065691155467     1.007825032230
         H           -3.717251921647    -1.058166515489    -0.981553155467     1.007825032230

  Basis Set: AUG-CC-PVTZ
    Blend: AUG-CC-PVTZ
  Basis Set: (AUG-CC-PVTZ AUX)
    Blend: AUG-CC-PVTZ-JKFIT
	 Reference Energy          =    -386.0616424130855080 [Eh]
	 Singles Energy            =      -0.0000000000000000 [Eh]
	 Same-Spin Energy          =      -0.4004786205375074 [Eh]
	 Opposite-Spin Energy      =      -1.3785671914739661 [Eh]
	 Correlation Energy        =      -1.7790458120114736 [Eh]
	 Total Energy              =    -387.8406882250969829 [Eh]

	 ================> DF-SCS-MP2 Energies <==================
	-----------------------------------------------------------
	 SCS Same-Spin Scale       =       0.3333333333333333 [-]
	 SCS Opposite-Spin Scale   =       1.2000000000000000 [-]
	 SCS Same-Spin Energy      =      -0.1334928735125024 [Eh]
	 SCS Opposite-Spin Energy  =      -1.6542806297687593 [Eh]
	 SCS Correlation Energy    =      -1.7877735032812618 [Eh]
	 SCS Total Energy          =    -387.8494159163667518 [Eh]
	-----------------------------------------------------------

  Dipole Moment: [D]
     X:    -1.1682      Y:     0.6650      Z:     0.5677     Total:     1.4591

*** Psi4 exiting successfully. Buy a developer a beer!
