                               Psi4 1.3.2 release

  ==> Input File <==

--------------------------------------------------------------------------
#psi4
#
memory 32 gb

molecule  {
0 1
  O       -2.7848290    -0.9154220    -0.7447340
  C       -2.7658897    -0.0510123     0.3760644
  C       -1.3446020     0.1937550     0.7721520
  C        3.5873700    -0.2293000     0.2222030
  C       -3.4755630     1.2700040     0.0649850
  C       -0.2874219    -0.2998492     0.1047897
  C        2.1660230    -0.5131760    -0.1475910
  C        1.0922740    -0.0266840     0.5021560
  C        4.3244450     0.5343730    -0.8803810
  H       -3.2865450    -0.5271910     1.2335890
  H       -1.1970340     0.8260370     1.6487790
  H        3.6131550     0.3461180     1.1547940
  H        4.1142490    -1.1721620     0.4188690
  H       -2.9813020     1.7413150    -0.7875330
  H       -4.5277090     1.0956620    -0.1864690
  H       -3.4435650     1.9541860     0.9176610
  H       -0.4470010    -0.9272420    -0.7564190
  H        2.0063450    -1.1440610    -1.0244550
  H        1.2471430     0.6066220     1.3780870
  H        4.3142870    -0.0291260    -1.8177910
  H        5.3679410     0.7151030    -0.6066950
  H        3.8442820     1.4990380    -1.0633910
  H       -3.7175750    -1.0591810    -0.9792530
units angstrom
no_reorient  #important for SAPT in psi4, default
symmetry c1  #important for SAPT in psi4, default
}

set PROPERTIES_ORIGIN ["COM"]
properties('MP2/aug-cc-pvtz', properties = ['dipole'])
--------------------------------------------------------------------------

    Molecular point group: c1
  Charge       = 0
  Multiplicity = 1
  Basis Set: AUG-CC-PVTZ
    Blend: AUG-CC-PVTZ
  Basis Set: (AUG-CC-PVTZ AUX)
    Blend: AUG-CC-PVTZ-JKFIT

    Orbital Energies [Eh]
    ---------------------

    Doubly Occupied:

       1A    -20.560175     2A    -11.286395     3A    -11.225479
       4A    -11.223646     5A    -11.223158     6A    -11.222898
       7A    -11.221561     8A    -11.220304     9A    -11.212675
      10A     -1.365840    11A     -1.096877    12A     -1.060889
      13A     -1.014441    14A     -0.962019    15A     -0.875872
      16A     -0.828325    17A     -0.751461    18A     -0.750387
      19A     -0.696098    20A     -0.638855    21A     -0.626390
      22A     -0.618294    23A     -0.590751    24A     -0.582562
      25A     -0.547020    26A     -0.542915    27A     -0.528418
      28A     -0.519154    29A     -0.503249    30A     -0.492251
      31A     -0.478835    32A     -0.466316    33A     -0.451770
      34A     -0.416409    35A     -0.297694

  @DF-RHF Final Energy:  -386.06270346928568

   => Energetics <=

    Nuclear Repulsion Energy =            418.3454051409298700
    One-Electron Energy =               -1352.6174552115228380
    Two-Electron Energy =                 548.2093466013072884
    Total Energy =                       -386.0627034692856796
  Basis Set: (AUG-CC-PVTZ AUX)
    Blend: AUG-CC-PVTZ-RI
    Molecular point group: c1

    Geometry (in Angstrom), charge = 0, multiplicity = 1:

       Center              X                  Y                   Z               Mass
    ------------   -----------------  -----------------  -----------------  -----------------
         O           -2.784524399950    -0.914240927181    -0.743042338364    15.994914619570
         C           -2.765585099950    -0.049831227181     0.377756061636    12.000000000000
         C           -1.344297399950     0.194936072819     0.773843661636    12.000000000000
         C            3.587674600050    -0.228118927181     0.223894661636    12.000000000000
         C           -3.475258399950     1.271185072819     0.066676661636    12.000000000000
         C           -0.287117299950    -0.298668127181     0.106481361636    12.000000000000
         C            2.166327600050    -0.511994927181    -0.145899338364    12.000000000000
         C            1.092578600050    -0.025502927181     0.503847661636    12.000000000000
         C            4.324749600050     0.535554072819    -0.878689338364    12.000000000000
         H           -3.286240399950    -0.526009927181     1.235280661636     1.007825032230
         H           -1.196729399950     0.827218072819     1.650470661636     1.007825032230
         H            3.613459600050     0.347299072819     1.156485661636     1.007825032230
         H            4.114553600050    -1.170980927181     0.420560661636     1.007825032230
         H           -2.980997399950     1.742496072819    -0.785841338364     1.007825032230
         H           -4.527404399950     1.096843072819    -0.184777338364     1.007825032230
         H           -3.443260399950     1.955367072819     0.919352661636     1.007825032230
         H           -0.446696399950    -0.926060927181    -0.754727338364     1.007825032230
         H            2.006649600050    -1.142879927181    -1.022763338364     1.007825032230
         H            1.247447600050     0.607803072819     1.379778661636     1.007825032230
         H            4.314591600050    -0.027944927181    -1.816099338364     1.007825032230
         H            5.368245600050     0.716284072819    -0.605003338364     1.007825032230
         H            3.844586600050     1.500219072819    -1.061699338364     1.007825032230
         H           -3.717270399950    -1.057999927181    -0.977561338364     1.007825032230

  Basis Set: AUG-CC-PVTZ
    Blend: AUG-CC-PVTZ
  Basis Set: (AUG-CC-PVTZ AUX)
    Blend: AUG-CC-PVTZ-JKFIT
	 Reference Energy          =    -386.0627034692856796 [Eh]
	 Singles Energy            =      -0.0000000000000000 [Eh]
	 Same-Spin Energy          =      -0.4001950054950136 [Eh]
	 Opposite-Spin Energy      =      -1.3779702819500070 [Eh]
	 Correlation Energy        =      -1.7781652874450207 [Eh]
	 Total Energy              =    -387.8408687567306856 [Eh]

	 ================> DF-SCS-MP2 Energies <==================
	-----------------------------------------------------------
	 SCS Same-Spin Scale       =       0.3333333333333333 [-]
	 SCS Opposite-Spin Scale   =       1.2000000000000000 [-]
	 SCS Same-Spin Energy      =      -0.1333983351650045 [Eh]
	 SCS Opposite-Spin Energy  =      -1.6535643383400085 [Eh]
	 SCS Correlation Energy    =      -1.7869626735050130 [Eh]
	 SCS Total Energy          =    -387.8496661427906815 [Eh]
	-----------------------------------------------------------

  Dipole Moment: [D]
     X:    -1.1737      Y:     0.6133      Z:     0.5503     Total:     1.4340

*** Psi4 exiting successfully. Buy a developer a beer!
