                               Psi4 1.3.2 release

  ==> Input File <==

--------------------------------------------------------------------------
#psi4
#
memory 32 gb

molecule  {
0 1
  O       -2.7972516    -0.8981002    -0.7576455
  C       -2.7698910    -0.0438090     0.3861860
  C       -1.3446020     0.1937550     0.7721520
  C        3.5873700    -0.2293000     0.2222030
  C       -3.4804165     1.2611079     0.0403638
  C       -0.2802220    -0.2946410     0.1124460
  C        2.1660230    -0.5131760    -0.1475910
  C        1.0922740    -0.0266840     0.5021560
  C        4.3244450     0.5343730    -0.8803810
  H       -3.2865450    -0.5271910     1.2335890
  H       -1.1970340     0.8260370     1.6487790
  H        3.6131550     0.3461180     1.1547940
  H        4.1142490    -1.1721620     0.4188690
  H       -2.9813020     1.7413150    -0.7875330
  H       -4.5277090     1.0956620    -0.1864690
  H       -3.4435650     1.9541860     0.9176610
  H       -0.4470010    -0.9272420    -0.7564190
  H        2.0063450    -1.1440610    -1.0244550
  H        1.2471430     0.6066220     1.3780870
  H        4.3142870    -0.0291260    -1.8177910
  H        5.3679410     0.7151030    -0.6066950
  H        3.8442820     1.4990380    -1.0633910
  H       -3.7175750    -1.0591810    -0.9792530
units angstrom
no_reorient  #important for SAPT in psi4, default
symmetry c1  #important for SAPT in psi4, default
}

set PROPERTIES_ORIGIN ["COM"]
properties('MP2/aug-cc-pvtz', properties = ['dipole'])
--------------------------------------------------------------------------

    Molecular point group: c1
  Charge       = 0
  Multiplicity = 1
  Basis Set: AUG-CC-PVTZ
    Blend: AUG-CC-PVTZ
  Basis Set: (AUG-CC-PVTZ AUX)
    Blend: AUG-CC-PVTZ-JKFIT

    Orbital Energies [Eh]
    ---------------------

    Doubly Occupied:

       1A    -20.556160     2A    -11.286630     3A    -11.226299
       4A    -11.224183     5A    -11.223529     6A    -11.223332
       7A    -11.222342     8A    -11.219723     9A    -11.213052
      10A     -1.362573    11A     -1.098211    12A     -1.061541
      13A     -1.015939    14A     -0.962576    15A     -0.877169
      16A     -0.829128    17A     -0.752785    18A     -0.749183
      19A     -0.697188    20A     -0.637614    21A     -0.628380
      22A     -0.614799    23A     -0.590727    24A     -0.583391
      25A     -0.550492    26A     -0.542566    27A     -0.524649
      28A     -0.519220    29A     -0.501216    30A     -0.491680
      31A     -0.479389    32A     -0.468530    33A     -0.452151
      34A     -0.418580    35A     -0.297944

  @DF-RHF Final Energy:  -386.06251915842142

   => Energetics <=

    Nuclear Repulsion Energy =            418.3060090982642123
    One-Electron Energy =               -1352.5313109799046742
    Two-Electron Energy =                 548.1627827232190384
    Total Energy =                       -386.0625191584214235
  Basis Set: (AUG-CC-PVTZ AUX)
    Blend: AUG-CC-PVTZ-RI
    Molecular point group: c1

    Geometry (in Angstrom), charge = 0, multiplicity = 1:

       Center              X                  Y                   Z               Mass
    ------------   -----------------  -----------------  -----------------  -----------------
         O           -2.795213855717    -0.899450722806    -0.753664958744    15.994914619570
         C           -2.767853255717    -0.045159522806     0.390166541256    12.000000000000
         C           -1.342564255717     0.192404477194     0.776132541256    12.000000000000
         C            3.589407744283    -0.230650522806     0.226183541256    12.000000000000
         C           -3.478378755717     1.259757377194     0.044344341256    12.000000000000
         C           -0.278184255717    -0.295991522806     0.116426541256    12.000000000000
         C            2.168060744283    -0.514526522806    -0.143610458744    12.000000000000
         C            1.094311744283    -0.028034522806     0.506136541256    12.000000000000
         C            4.326482744283     0.533022477194    -0.876400458744    12.000000000000
         H           -3.284507255717    -0.528541522806     1.237569541256     1.007825032230
         H           -1.194996255717     0.824686477194     1.652759541256     1.007825032230
         H            3.615192744283     0.344767477194     1.158774541256     1.007825032230
         H            4.116286744283    -1.173512522806     0.422849541256     1.007825032230
         H           -2.979264255717     1.739964477194    -0.783552458744     1.007825032230
         H           -4.525671255717     1.094311477194    -0.182488458744     1.007825032230
         H           -3.441527255717     1.952835477194     0.921641541256     1.007825032230
         H           -0.444963255717    -0.928592522806    -0.752438458744     1.007825032230
         H            2.008382744283    -1.145411522806    -1.020474458744     1.007825032230
         H            1.249180744283     0.605271477194     1.382067541256     1.007825032230
         H            4.316324744283    -0.030476522806    -1.813810458744     1.007825032230
         H            5.369978744283     0.713752477194    -0.602714458744     1.007825032230
         H            3.846319744283     1.497687477194    -1.059410458744     1.007825032230
         H           -3.715537255717    -1.060531522806    -0.975272458744     1.007825032230

  Basis Set: AUG-CC-PVTZ
    Blend: AUG-CC-PVTZ
  Basis Set: (AUG-CC-PVTZ AUX)
    Blend: AUG-CC-PVTZ-JKFIT
	 Reference Energy          =    -386.0625191584214235 [Eh]
	 Singles Energy            =      -0.0000000000000000 [Eh]
	 Same-Spin Energy          =      -0.4001371790130803 [Eh]
	 Opposite-Spin Energy      =      -1.3778388510499151 [Eh]
	 Correlation Energy        =      -1.7779760300629954 [Eh]
	 Total Energy              =    -387.8404951884843967 [Eh]

	 ================> DF-SCS-MP2 Energies <==================
	-----------------------------------------------------------
	 SCS Same-Spin Scale       =       0.3333333333333333 [-]
	 SCS Opposite-Spin Scale   =       1.2000000000000000 [-]
	 SCS Same-Spin Energy      =      -0.1333790596710268 [Eh]
	 SCS Opposite-Spin Energy  =      -1.6534066212598981 [Eh]
	 SCS Correlation Energy    =      -1.7867856809309248 [Eh]
	 SCS Total Energy          =    -387.8493048393523281 [Eh]
	-----------------------------------------------------------

  Dipole Moment: [D]
     X:    -1.1188      Y:     0.5932      Z:     0.5998     Total:     1.4012

*** Psi4 exiting successfully. Buy a developer a beer!
