                               Psi4 1.3.2 release

  ==> Input File <==

--------------------------------------------------------------------------
#psi4
#
memory 32 gb

molecule  {
0 1
  O       -2.7848290    -0.9154220    -0.7447340
  C       -2.7698910    -0.0438090     0.3861860
  C       -1.3446020     0.1937550     0.7721520
  C        3.5873700    -0.2293000     0.2222030
  C       -3.4755630     1.2700040     0.0649850
  C       -0.2802220    -0.2946410     0.1124460
  C        2.1660230    -0.5131760    -0.1475910
  C        1.1868183    -0.0082258     0.5290012
  C        4.3244450     0.5343730    -0.8803810
  H       -3.2865450    -0.5271910     1.2335890
  H       -1.1970340     0.8260370     1.6487790
  H        3.6131550     0.3461180     1.1547940
  H        4.1142490    -1.1721620     0.4188690
  H       -2.9813020     1.7413150    -0.7875330
  H       -4.5277090     1.0956620    -0.1864690
  H       -3.4435650     1.9541860     0.9176610
  H       -0.4470010    -0.9272420    -0.7564190
  H        2.0063450    -1.1440610    -1.0244550
  H        1.2471430     0.6066220     1.3780870
  H        4.3142870    -0.0291260    -1.8177910
  H        5.3679410     0.7151030    -0.6066950
  H        3.8442820     1.4990380    -1.0633910
  H       -3.7175750    -1.0591810    -0.9792530
units angstrom
no_reorient  #important for SAPT in psi4, default
symmetry c1  #important for SAPT in psi4, default
}

set PROPERTIES_ORIGIN ["COM"]
properties('MP2/aug-cc-pvtz', properties = ['dipole'])
--------------------------------------------------------------------------

    Molecular point group: c1
  Charge       = 0
  Multiplicity = 1
  Basis Set: AUG-CC-PVTZ
    Blend: AUG-CC-PVTZ
  Basis Set: (AUG-CC-PVTZ AUX)
    Blend: AUG-CC-PVTZ-JKFIT

    Orbital Energies [Eh]
    ---------------------

    Doubly Occupied:

       1A    -20.558037     2A    -11.285752     3A    -11.226888
       4A    -11.220764     5A    -11.220666     6A    -11.220244
       7A    -11.219988     8A    -11.217625     9A    -11.211942
      10A     -1.360034    11A     -1.098298    12A     -1.061005
      13A     -1.010479    14A     -0.967061    15A     -0.870022
      16A     -0.829134    17A     -0.757256    18A     -0.744018
      19A     -0.693725    20A     -0.638324    21A     -0.623738
      22A     -0.617867    23A     -0.596356    24A     -0.577619
      25A     -0.546966    26A     -0.543833    27A     -0.533879
      28A     -0.518594    29A     -0.501397    30A     -0.492622
      31A     -0.481227    32A     -0.452416    33A     -0.449292
      34A     -0.412649    35A     -0.310679

  @DF-RHF Final Energy:  -386.05524729037478

   => Energetics <=

    Nuclear Repulsion Energy =            417.8955424015087488
    One-Electron Energy =               -1351.7607844867013682
    Two-Electron Energy =                 547.8099947948179533
    Total Energy =                       -386.0552472903747230
  Basis Set: (AUG-CC-PVTZ AUX)
    Blend: AUG-CC-PVTZ-RI
    Molecular point group: c1

    Geometry (in Angstrom), charge = 0, multiplicity = 1:

       Center              X                  Y                   Z               Mass
    ------------   -----------------  -----------------  -----------------  -----------------
         O           -2.793825536110    -0.917178463134    -0.747288636857    15.994914619570
         C           -2.778887536110    -0.045565463134     0.383631363143    12.000000000000
         C           -1.353598536110     0.191998536866     0.769597363143    12.000000000000
         C            3.578373463890    -0.231056463134     0.219648363143    12.000000000000
         C           -3.484559536110     1.268247536866     0.062430363143    12.000000000000
         C           -0.289218536110    -0.296397463134     0.109891363143    12.000000000000
         C            2.157026463890    -0.514932463134    -0.150145636857    12.000000000000
         C            1.177821763890    -0.009982263134     0.526446563143    12.000000000000
         C            4.315448463890     0.532616536866    -0.882935636857    12.000000000000
         H           -3.295541536110    -0.528947463134     1.231034363143     1.007825032230
         H           -1.206030536110     0.824280536866     1.646224363143     1.007825032230
         H            3.604158463890     0.344361536866     1.152239363143     1.007825032230
         H            4.105252463890    -1.173918463134     0.416314363143     1.007825032230
         H           -2.990298536110     1.739558536866    -0.790087636857     1.007825032230
         H           -4.536705536110     1.093905536866    -0.189023636857     1.007825032230
         H           -3.452561536110     1.952429536866     0.915106363143     1.007825032230
         H           -0.455997536110    -0.928998463134    -0.758973636857     1.007825032230
         H            1.997348463890    -1.145817463134    -1.027009636857     1.007825032230
         H            1.238146463890     0.604865536866     1.375532363143     1.007825032230
         H            4.305290463890    -0.030882463134    -1.820345636857     1.007825032230
         H            5.358944463890     0.713346536866    -0.609249636857     1.007825032230
         H            3.835285463890     1.497281536866    -1.065945636857     1.007825032230
         H           -3.726571536110    -1.060937463134    -0.981807636857     1.007825032230

  Basis Set: AUG-CC-PVTZ
    Blend: AUG-CC-PVTZ
  Basis Set: (AUG-CC-PVTZ AUX)
    Blend: AUG-CC-PVTZ-JKFIT
	 Reference Energy          =    -386.0552472903747798 [Eh]
	 Singles Energy            =      -0.0000000000000000 [Eh]
	 Same-Spin Energy          =      -0.3988633870210324 [Eh]
	 Opposite-Spin Energy      =      -1.3765032402125175 [Eh]
	 Correlation Energy        =      -1.7753666272335498 [Eh]
	 Total Energy              =    -387.8306139176083320 [Eh]

	 ================> DF-SCS-MP2 Energies <==================
	-----------------------------------------------------------
	 SCS Same-Spin Scale       =       0.3333333333333333 [-]
	 SCS Opposite-Spin Scale   =       1.2000000000000000 [-]
	 SCS Same-Spin Energy      =      -0.1329544623403441 [Eh]
	 SCS Opposite-Spin Energy  =      -1.6518038882550210 [Eh]
	 SCS Correlation Energy    =      -1.7847583505953650 [Eh]
	 SCS Total Energy          =    -387.8400056409701619 [Eh]
	-----------------------------------------------------------

  Dipole Moment: [D]
     X:    -1.1138      Y:     0.6342      Z:     0.5876     Total:     1.4100

*** Psi4 exiting successfully. Buy a developer a beer!
