                               Psi4 1.3.2 release

  ==> Input File <==

--------------------------------------------------------------------------
#psi4
#
memory 32 gb

molecule  {
0 1
  O       -2.7848290    -0.9154220    -0.7447340
  C       -2.7698910    -0.0438090     0.3861860
  C       -1.3446020     0.1937550     0.7721520
  C        3.5873700    -0.2293000     0.2222030
  C       -3.4755630     1.2700040     0.0649850
  C       -0.2802220    -0.2946410     0.1124460
  C        2.1660230    -0.5131760    -0.1475910
  C        1.0922740    -0.0266840     0.5021560
  C        4.3244450     0.5343730    -0.8803810
  H       -3.2865450    -0.5271910     1.2335890
  H       -1.1970340     0.8260370     1.6487790
  H        3.6131550     0.3461180     1.1547940
  H        4.1142490    -1.1721620     0.4188690
  H       -2.9813020     1.7413150    -0.7875330
  H       -4.5277090     1.0956620    -0.1864690
  H       -3.4435650     1.9541860     0.9176610
  H       -0.4470010    -0.9272420    -0.7564190
  H        2.0209679    -1.0862862    -0.9441541
  H        1.2471430     0.6066220     1.3780870
  H        4.3142870    -0.0291260    -1.8177910
  H        5.3679410     0.7151030    -0.6066950
  H        3.8442820     1.4990380    -1.0633910
  H       -3.7175750    -1.0591810    -0.9792530
units angstrom
no_reorient  #important for SAPT in psi4, default
symmetry c1  #important for SAPT in psi4, default
}

set PROPERTIES_ORIGIN ["COM"]
properties('MP2/aug-cc-pvtz', properties = ['dipole'])
--------------------------------------------------------------------------

    Molecular point group: c1
  Charge       = 0
  Multiplicity = 1
  Basis Set: AUG-CC-PVTZ
    Blend: AUG-CC-PVTZ
  Basis Set: (AUG-CC-PVTZ AUX)
    Blend: AUG-CC-PVTZ-JKFIT

    Orbital Energies [Eh]
    ---------------------

    Doubly Occupied:

       1A    -20.558770     2A    -11.286469     3A    -11.223566
       4A    -11.222676     5A    -11.222046     6A    -11.221724
       7A    -11.220640     8A    -11.213199     9A    -11.212723
      10A     -1.360807    11A     -1.099485    12A     -1.062117
      13A     -1.015935    14A     -0.963853    15A     -0.877656
      16A     -0.828406    17A     -0.766668    18A     -0.748132
      19A     -0.696657    20A     -0.639067    21A     -0.628240
      22A     -0.617514    23A     -0.590888    24A     -0.583464
      25A     -0.549275    26A     -0.545243    27A     -0.529431
      28A     -0.518420    29A     -0.500532    30A     -0.492550
      31A     -0.481641    32A     -0.468327    33A     -0.452869
      34A     -0.417976    35A     -0.297109

  @DF-RHF Final Energy:  -386.05679155794240

   => Energetics <=

    Nuclear Repulsion Energy =            418.7483921378547507
    One-Electron Energy =               -1353.3822193338380657
    Two-Electron Energy =                 548.5770356380407975
    Total Energy =                       -386.0567915579424607
  Basis Set: (AUG-CC-PVTZ AUX)
    Blend: AUG-CC-PVTZ-RI
    Molecular point group: c1

    Geometry (in Angstrom), charge = 0, multiplicity = 1:

       Center              X                  Y                   Z               Mass
    ------------   -----------------  -----------------  -----------------  -----------------
         O           -2.784945642169    -0.915883730944    -0.745375832717    15.994914619570
         C           -2.770007642169    -0.044270730944     0.385544167283    12.000000000000
         C           -1.344718642169     0.193293269056     0.771510167283    12.000000000000
         C            3.587253357831    -0.229761730944     0.221561167283    12.000000000000
         C           -3.475679642169     1.269542269056     0.064343167283    12.000000000000
         C           -0.280338642169    -0.295102730944     0.111804167283    12.000000000000
         C            2.165906357831    -0.513637730944    -0.148232832717    12.000000000000
         C            1.092157357831    -0.027145730944     0.501514167283    12.000000000000
         C            4.324328357831     0.533911269056    -0.881022832717    12.000000000000
         H           -3.286661642169    -0.527652730944     1.232947167283     1.007825032230
         H           -1.197150642169     0.825575269056     1.648137167283     1.007825032230
         H            3.613038357831     0.345656269056     1.154152167283     1.007825032230
         H            4.114132357831    -1.172623730944     0.418227167283     1.007825032230
         H           -2.981418642169     1.740853269056    -0.788174832717     1.007825032230
         H           -4.527825642169     1.095200269056    -0.187110832717     1.007825032230
         H           -3.443681642169     1.953724269056     0.917019167283     1.007825032230
         H           -0.447117642169    -0.927703730944    -0.757060832717     1.007825032230
         H            2.020851257831    -1.086747930944    -0.944795932717     1.007825032230
         H            1.247026357831     0.606160269056     1.377445167283     1.007825032230
         H            4.314170357831    -0.029587730944    -1.818432832717     1.007825032230
         H            5.367824357831     0.714641269056    -0.607336832717     1.007825032230
         H            3.844165357831     1.498576269056    -1.064032832717     1.007825032230
         H           -3.717691642169    -1.059642730944    -0.979894832717     1.007825032230

  Basis Set: AUG-CC-PVTZ
    Blend: AUG-CC-PVTZ
  Basis Set: (AUG-CC-PVTZ AUX)
    Blend: AUG-CC-PVTZ-JKFIT
	 Reference Energy          =    -386.0567915579424039 [Eh]
	 Singles Energy            =      -0.0000000000000000 [Eh]
	 Same-Spin Energy          =      -0.4001937115760112 [Eh]
	 Opposite-Spin Energy      =      -1.3777764515278470 [Eh]
	 Correlation Energy        =      -1.7779701631038582 [Eh]
	 Total Energy              =    -387.8347617210462772 [Eh]

	 ================> DF-SCS-MP2 Energies <==================
	-----------------------------------------------------------
	 SCS Same-Spin Scale       =       0.3333333333333333 [-]
	 SCS Opposite-Spin Scale   =       1.2000000000000000 [-]
	 SCS Same-Spin Energy      =      -0.1333979038586704 [Eh]
	 SCS Opposite-Spin Energy  =      -1.6533317418334164 [Eh]
	 SCS Correlation Energy    =      -1.7867296456920867 [Eh]
	 SCS Total Energy          =    -387.8435212036345092 [Eh]
	-----------------------------------------------------------

  Dipole Moment: [D]
     X:    -1.1799      Y:     0.6179      Z:     0.5456     Total:     1.4393

*** Psi4 exiting successfully. Buy a developer a beer!
