                               Psi4 1.3.2 release

  ==> Input File <==

--------------------------------------------------------------------------
#psi4
#
memory 32 gb

molecule  {
0 1
  O       -2.7848290    -0.9154220    -0.7447340
  C       -2.7698910    -0.0438090     0.3861860
  C       -1.3446020     0.1937550     0.7721520
  C        3.5702439    -0.2007061     0.2623926
  C       -3.4755630     1.2700040     0.0649850
  C       -0.2802220    -0.2946410     0.1124460
  C        2.1660230    -0.5131760    -0.1475910
  C        1.0922740    -0.0266840     0.5021560
  C        4.3244450     0.5343730    -0.8803810
  H       -3.2865450    -0.5271910     1.2335890
  H       -1.1970340     0.8260370     1.6487790
  H        3.6131550     0.3461180     1.1547940
  H        4.1142490    -1.1721620     0.4188690
  H       -2.9813020     1.7413150    -0.7875330
  H       -4.5277090     1.0956620    -0.1864690
  H       -3.4435650     1.9541860     0.9176610
  H       -0.4470010    -0.9272420    -0.7564190
  H        1.9687448    -1.1407567    -1.0191570
  H        1.2471430     0.6066220     1.3780870
  H        4.3142870    -0.0291260    -1.8177910
  H        5.3679410     0.7151030    -0.6066950
  H        3.8442820     1.4990380    -1.0633910
  H       -3.7175750    -1.0591810    -0.9792530
units angstrom
no_reorient  #important for SAPT in psi4, default
symmetry c1  #important for SAPT in psi4, default
}

set PROPERTIES_ORIGIN ["COM"]
properties('MP2/aug-cc-pvtz', properties = ['dipole'])
--------------------------------------------------------------------------

    Molecular point group: c1
  Charge       = 0
  Multiplicity = 1
  Basis Set: AUG-CC-PVTZ
    Blend: AUG-CC-PVTZ
  Basis Set: (AUG-CC-PVTZ AUX)
    Blend: AUG-CC-PVTZ-JKFIT

    Orbital Energies [Eh]
    ---------------------

    Doubly Occupied:

       1A    -20.558602     2A    -11.286237     3A    -11.225798
       4A    -11.223520     5A    -11.223102     6A    -11.221762
       7A    -11.221163     8A    -11.220466     9A    -11.213849
      10A     -1.360628    11A     -1.097838    12A     -1.060407
      13A     -1.014569    14A     -0.961316    15A     -0.876328
      16A     -0.829594    17A     -0.754809    18A     -0.747750
      19A     -0.694917    20A     -0.638143    21A     -0.625402
      22A     -0.617184    23A     -0.592022    24A     -0.580804
      25A     -0.546342    26A     -0.542695    27A     -0.527161
      28A     -0.511614    29A     -0.502252    30A     -0.491599
      31A     -0.489509    32A     -0.467199    33A     -0.452559
      34A     -0.416656    35A     -0.296275

  @DF-RHF Final Energy:  -386.05943129328551

   => Energetics <=

    Nuclear Repulsion Energy =            418.2772500393532482
    One-Electron Energy =               -1352.4932203892512916
    Two-Electron Energy =                 548.1565390566125870
    Total Energy =                       -386.0594312932854564
  Basis Set: (AUG-CC-PVTZ AUX)
    Blend: AUG-CC-PVTZ-RI
    Molecular point group: c1

    Geometry (in Angstrom), charge = 0, multiplicity = 1:

       Center              X                  Y                   Z               Mass
    ------------   -----------------  -----------------  -----------------  -----------------
         O           -2.782898569947    -0.918169376154    -0.748600820822    15.994914619570
         C           -2.767960569947    -0.046556376154     0.382319179178    12.000000000000
         C           -1.342671569947     0.191007623846     0.768285179178    12.000000000000
         C            3.572174330053    -0.203453476154     0.258525779178    12.000000000000
         C           -3.473632569947     1.267256623846     0.061118179178    12.000000000000
         C           -0.278291569947    -0.297388376154     0.108579179178    12.000000000000
         C            2.167953430053    -0.515923376154    -0.151457820822    12.000000000000
         C            1.094204430053    -0.029431376154     0.498289179178    12.000000000000
         C            4.326375430053     0.531625623846    -0.884247820822    12.000000000000
         H           -3.284614569947    -0.529938376154     1.229722179178     1.007825032230
         H           -1.195103569947     0.823289623846     1.644912179178     1.007825032230
         H            3.615085430053     0.343370623846     1.150927179178     1.007825032230
         H            4.116179430053    -1.174909376154     0.415002179178     1.007825032230
         H           -2.979371569947     1.738567623846    -0.791399820822     1.007825032230
         H           -4.525778569947     1.092914623846    -0.190335820822     1.007825032230
         H           -3.441634569947     1.951438623846     0.913794179178     1.007825032230
         H           -0.445070569947    -0.929989376154    -0.760285820822     1.007825032230
         H            1.970675230053    -1.143504076154    -1.023023820822     1.007825032230
         H            1.249073430053     0.603874623846     1.374220179178     1.007825032230
         H            4.316217430053    -0.031873376154    -1.821657820822     1.007825032230
         H            5.369871430053     0.712355623846    -0.610561820822     1.007825032230
         H            3.846212430053     1.496290623846    -1.067257820822     1.007825032230
         H           -3.715644569947    -1.061928376154    -0.983119820822     1.007825032230

  Basis Set: AUG-CC-PVTZ
    Blend: AUG-CC-PVTZ
  Basis Set: (AUG-CC-PVTZ AUX)
    Blend: AUG-CC-PVTZ-JKFIT
	 Reference Energy          =    -386.0594312932855132 [Eh]
	 Singles Energy            =      -0.0000000000000000 [Eh]
	 Same-Spin Energy          =      -0.4003535204852182 [Eh]
	 Opposite-Spin Energy      =      -1.3783095982825382 [Eh]
	 Correlation Energy        =      -1.7786631187677564 [Eh]
	 Total Energy              =    -387.8380944120532945 [Eh]

	 ================> DF-SCS-MP2 Energies <==================
	-----------------------------------------------------------
	 SCS Same-Spin Scale       =       0.3333333333333333 [-]
	 SCS Opposite-Spin Scale   =       1.2000000000000000 [-]
	 SCS Same-Spin Energy      =      -0.1334511734950727 [Eh]
	 SCS Opposite-Spin Energy  =      -1.6539715179390457 [Eh]
	 SCS Correlation Energy    =      -1.7874226914341185 [Eh]
	 SCS Total Energy          =    -387.8468539847196439 [Eh]
	-----------------------------------------------------------

  Dipole Moment: [D]
     X:    -1.1438      Y:     0.6541      Z:     0.5906     Total:     1.4439

*** Psi4 exiting successfully. Buy a developer a beer!
