                               Psi4 1.3.2 release

  ==> Input File <==

--------------------------------------------------------------------------
#psi4
#
memory 32 gb

molecule  {
0 1
  O       -2.7848290    -0.9154220    -0.7447340
  C       -2.7698910    -0.0438090     0.3861860
  C       -1.5351981     0.1619869     0.7205389
  C        3.5873700    -0.2293000     0.2222030
  C       -3.4755630     1.2700040     0.0649850
  C       -0.2802220    -0.2946410     0.1124460
  C        2.1660230    -0.5131760    -0.1475910
  C        1.0922740    -0.0266840     0.5021560
  C        4.3244450     0.5343730    -0.8803810
  H       -3.2865450    -0.5271910     1.2335890
  H       -1.1970340     0.8260370     1.6487790
  H        3.6131550     0.3461180     1.1547940
  H        4.1142490    -1.1721620     0.4188690
  H       -2.9813020     1.7413150    -0.7875330
  H       -4.5277090     1.0956620    -0.1864690
  H       -3.4435650     1.9541860     0.9176610
  H       -0.4470010    -0.9272420    -0.7564190
  H        2.0063450    -1.1440610    -1.0244550
  H        1.2471430     0.6066220     1.3780870
  H        4.3142870    -0.0291260    -1.8177910
  H        5.3679410     0.7151030    -0.6066950
  H        3.8442820     1.4990380    -1.0633910
  H       -3.7175750    -1.0591810    -0.9792530
units angstrom
no_reorient  #important for SAPT in psi4, default
symmetry c1  #important for SAPT in psi4, default
}

set PROPERTIES_ORIGIN ["COM"]
properties('MP2/aug-cc-pvtz', properties = ['dipole'])
--------------------------------------------------------------------------

    Molecular point group: c1
  Charge       = 0
  Multiplicity = 1
  Basis Set: AUG-CC-PVTZ
    Blend: AUG-CC-PVTZ
  Basis Set: (AUG-CC-PVTZ AUX)
    Blend: AUG-CC-PVTZ-JKFIT

    Orbital Energies [Eh]
    ---------------------

    Doubly Occupied:

       1A    -20.560536     2A    -11.276481     3A    -11.238374
       4A    -11.236364     5A    -11.229339     6A    -11.227603
       7A    -11.224736     8A    -11.224552     9A    -11.213778
      10A     -1.368193    11A     -1.102487    12A     -1.081875
      13A     -1.017671    14A     -0.956816    15A     -0.894482
      16A     -0.829856    17A     -0.753941    18A     -0.736665
      19A     -0.706973    20A     -0.641865    21A     -0.633996
      22A     -0.620994    23A     -0.592736    24A     -0.576010
      25A     -0.553667    26A     -0.541101    27A     -0.531438
      28A     -0.518822    29A     -0.511851    30A     -0.483374
      31A     -0.477669    32A     -0.464435    33A     -0.459492
      34A     -0.407359    35A     -0.277483

  @DF-RHF Final Energy:  -385.99555190199447

   => Energetics <=

    Nuclear Repulsion Energy =            419.2753619190754648
    One-Electron Energy =               -1354.1957918997186425
    Two-Electron Energy =                 548.9248780786487032
    Total Energy =                       -385.9955519019944177
  Basis Set: (AUG-CC-PVTZ AUX)
    Blend: AUG-CC-PVTZ-RI
    Molecular point group: c1

    Geometry (in Angstrom), charge = 0, multiplicity = 1:

       Center              X                  Y                   Z               Mass
    ------------   -----------------  -----------------  -----------------  -----------------
         O           -2.766691803787    -0.912398968612    -0.739822607803    15.994914619570
         C           -2.751753803787    -0.040785968612     0.391097392197    12.000000000000
         C           -1.517060903787     0.165009931388     0.725450292197    12.000000000000
         C            3.605507196213    -0.226276968612     0.227114392197    12.000000000000
         C           -3.457425803787     1.273027031388     0.069896392197    12.000000000000
         C           -0.262084803787    -0.291617968612     0.117357392197    12.000000000000
         C            2.184160196213    -0.510152968612    -0.142679607803    12.000000000000
         C            1.110411196213    -0.023660968612     0.507067392197    12.000000000000
         C            4.342582196213     0.537396031388    -0.875469607803    12.000000000000
         H           -3.268407803787    -0.524167968612     1.238500392197     1.007825032230
         H           -1.178896803787     0.829060031388     1.653690392197     1.007825032230
         H            3.631292196213     0.349141031388     1.159705392197     1.007825032230
         H            4.132386196213    -1.169138968612     0.423780392197     1.007825032230
         H           -2.963164803787     1.744338031388    -0.782621607803     1.007825032230
         H           -4.509571803787     1.098685031388    -0.181557607803     1.007825032230
         H           -3.425427803787     1.957209031388     0.922572392197     1.007825032230
         H           -0.428863803787    -0.924218968612    -0.751507607803     1.007825032230
         H            2.024482196213    -1.141037968612    -1.019543607803     1.007825032230
         H            1.265280196213     0.609645031388     1.382998392197     1.007825032230
         H            4.332424196213    -0.026102968612    -1.812879607803     1.007825032230
         H            5.386078196213     0.718126031388    -0.601783607803     1.007825032230
         H            3.862419196213     1.502061031388    -1.058479607803     1.007825032230
         H           -3.699437803787    -1.056157968612    -0.974341607803     1.007825032230

  Basis Set: AUG-CC-PVTZ
    Blend: AUG-CC-PVTZ
  Basis Set: (AUG-CC-PVTZ AUX)
    Blend: AUG-CC-PVTZ-JKFIT
	 Reference Energy          =    -385.9955519019944745 [Eh]
	 Singles Energy            =      -0.0000000000000000 [Eh]
	 Same-Spin Energy          =      -0.4060991012493361 [Eh]
	 Opposite-Spin Energy      =      -1.3870194398076898 [Eh]
	 Correlation Energy        =      -1.7931185410570258 [Eh]
	 Total Energy              =    -387.7886704430515010 [Eh]

	 ================> DF-SCS-MP2 Energies <==================
	-----------------------------------------------------------
	 SCS Same-Spin Scale       =       0.3333333333333333 [-]
	 SCS Opposite-Spin Scale   =       1.2000000000000000 [-]
	 SCS Same-Spin Energy      =      -0.1353663670831120 [Eh]
	 SCS Opposite-Spin Energy  =      -1.6644233277692277 [Eh]
	 SCS Correlation Energy    =      -1.7997896948523397 [Eh]
	 SCS Total Energy          =    -387.7953415968468107 [Eh]
	-----------------------------------------------------------

  Dipole Moment: [D]
     X:    -1.2398      Y:     0.6637      Z:     0.5710     Total:     1.5177

*** Psi4 exiting successfully. Buy a developer a beer!
