                               Psi4 1.4a3.dev225

  ==> Input File <==

--------------------------------------------------------------------------
#psi4
#
memory 32 gb

molecule  {
0 1
  O       -2.7624640     1.3159430     0.2248240
  C       -2.8209640    -0.0168770    -0.2887760
  C       -1.4198970    -0.4865040    -0.5315690
  C        3.5469730    -0.0618850    -0.4287090
  C       -3.5485140    -0.9406360     0.6857820
  C       -0.3124200     0.2274490    -0.2577540
  C        2.1505970     0.4383770    -0.2221580
  C        1.0342680    -0.2689350    -0.4861660
  C        4.3265940    -0.1505530     0.8872490
  H       -3.3622360    -0.0200820    -1.2509840
  H       -1.3293920    -1.4912640    -0.9473420
  H        3.5136740    -1.0471260    -0.9088000
  H        4.0812660     0.6062640    -1.1173180
  H       -3.0279280    -0.9272120     1.6463760
  H       -4.5820380    -0.6089360     0.8383050
  H       -3.5770120    -1.9680220     0.3103630
  H       -0.4219900     1.2292040     0.1523950
  H        2.0439225     1.4894619     0.2120656
  H        1.1311650    -1.2755230    -0.8987060
  H        4.3778580     0.8269450     1.3761990
  H        5.3504770    -0.4972710     0.7173650
  H        3.8373540    -0.8453320     1.5752720
  H       -3.6799020     1.6047450     0.3678300
units angstrom
no_reorient  #important for SAPT in psi4, default
symmetry c1  #important for SAPT in psi4, default
}

set PROPERTIES_ORIGIN ["COM"]
properties('MP2/aug-cc-pvtz', properties = ['dipole'])
--------------------------------------------------------------------------

    Molecular point group: c1
  Charge       = 0
  Multiplicity = 1
  Basis Set: AUG-CC-PVTZ
    Blend: AUG-CC-PVTZ
  Basis Set: (AUG-CC-PVTZ AUX)
    Blend: AUG-CC-PVTZ-JKFIT

    Orbital Energies [Eh]
    ---------------------

    Doubly Occupied:

       1A    -20.558819     2A    -11.287067     3A    -11.232214
       4A    -11.224732     5A    -11.224425     6A    -11.224030
       7A    -11.222530     8A    -11.220987     9A    -11.213307
      10A     -1.360143    11A     -1.096595    12A     -1.060410
      13A     -1.015775    14A     -0.961664    15A     -0.876143
      16A     -0.828621    17A     -0.748801    18A     -0.745833
      19A     -0.694112    20A     -0.636247    21A     -0.626622
      22A     -0.616583    23A     -0.589950    24A     -0.582496
      25A     -0.546127    26A     -0.541773    27A     -0.525803
      28A     -0.518829    29A     -0.501021    30A     -0.492428
      31A     -0.477741    32A     -0.467281    33A     -0.452852
      34A     -0.418103    35A     -0.297610

  @DF-RHF Final Energy:  -386.06001288160286

   => Energetics <=

    Nuclear Repulsion Energy =            417.5316970180748513
    One-Electron Energy =               -1351.0080788784000561
    Two-Electron Energy =                 547.4163689787224030
    Total Energy =                       -386.0600128816028018
  Basis Set: (AUG-CC-PVTZ AUX)
    Blend: AUG-CC-PVTZ-RI
    Molecular point group: c1

    Geometry (in Angstrom), charge = 0, multiplicity = 1:

       Center              X                  Y                   Z               Mass
    ------------   -----------------  -----------------  -----------------  -----------------
         O           -2.728234969394     1.292259474802     0.240841904373    15.994914619570
         C           -2.786734969394    -0.040560525198    -0.272758095627    12.000000000000
         C           -1.385667969394    -0.510187525198    -0.515551095627    12.000000000000
         C            3.581202030606    -0.085568525198    -0.412691095627    12.000000000000
         C           -3.514284969394    -0.964319525198     0.701799904373    12.000000000000
         C           -0.278190969394     0.203765474802    -0.241736095627    12.000000000000
         C            2.184826030606     0.414693474802    -0.206140095627    12.000000000000
         C            1.068497030606    -0.292618525198    -0.470148095627    12.000000000000
         C            4.360823030606    -0.174236525198     0.903266904373    12.000000000000
         H           -3.328006969394    -0.043765525198    -1.234966095627     1.007825032230
         H           -1.295162969394    -1.514947525198    -0.931324095627     1.007825032230
         H            3.547903030606    -1.070809525198    -0.892782095627     1.007825032230
         H            4.115495030606     0.582580474802    -1.101300095627     1.007825032230
         H           -2.993698969394    -0.950895525198     1.662393904373     1.007825032230
         H           -4.547808969394    -0.632619525198     0.854322904373     1.007825032230
         H           -3.542782969394    -1.991705525198     0.326380904373     1.007825032230
         H           -0.387760969394     1.205520474802     0.168412904373     1.007825032230
         H            2.078151530606     1.465778374802     0.228083504373     1.007825032230
         H            1.165394030606    -1.299206525198    -0.882688095627     1.007825032230
         H            4.412087030606     0.803261474802     1.392216904373     1.007825032230
         H            5.384706030606    -0.520954525198     0.733382904373     1.007825032230
         H            3.871583030606    -0.869015525198     1.591289904373     1.007825032230
         H           -3.645672969394     1.581061474802     0.383847904373     1.007825032230

  Basis Set: AUG-CC-PVTZ
    Blend: AUG-CC-PVTZ
  Basis Set: (AUG-CC-PVTZ AUX)
    Blend: AUG-CC-PVTZ-JKFIT
	 Reference Energy          =    -386.0600128816028587 [Eh]
	 Singles Energy            =      -0.0000000000000000 [Eh]
	 Same-Spin Energy          =      -0.4003737419485800 [Eh]
	 Opposite-Spin Energy      =      -1.3788035717125968 [Eh]
	 Correlation Energy        =      -1.7791773136611768 [Eh]
	 Total Energy              =    -387.8391901952640524 [Eh]

	 ================> DF-SCS-MP2 Energies <==================
	-----------------------------------------------------------
	 SCS Same-Spin Scale       =       0.3333333333333333 [-]
	 SCS Opposite-Spin Scale   =       1.2000000000000000 [-]
	 SCS Same-Spin Energy      =      -0.1334579139828600 [Eh]
	 SCS Opposite-Spin Energy  =      -1.6545642860551162 [Eh]
	 SCS Correlation Energy    =      -1.7880222000379762 [Eh]
	 SCS Total Energy          =    -387.8480350816408304 [Eh]
	-----------------------------------------------------------

  Dipole Moment: [D]
     X:    -1.1919      Y:    -0.8189      Z:    -0.1528     Total:     1.4541

*** Psi4 exiting successfully. Buy a developer a beer!
