                               Psi4 1.3.2 release

  ==> Input File <==

--------------------------------------------------------------------------
#psi4
#
memory 32 gb

molecule  {
0 1
  O       -2.7848290    -0.9154220    -0.7447340
  C       -2.7698910    -0.0438090     0.3861860
  C       -1.3446020     0.1937550     0.7721520
  C        3.5873700    -0.2293000     0.2222030
  C       -3.4755630     1.2700040     0.0649850
  C       -0.2628862    -0.3227058     0.0739830
  C        2.1660230    -0.5131760    -0.1475910
  C        1.0922740    -0.0266840     0.5021560
  C        4.3244450     0.5343730    -0.8803810
  H       -3.2865450    -0.5271910     1.2335890
  H       -1.1970340     0.8260370     1.6487790
  H        3.6131550     0.3461180     1.1547940
  H        4.1142490    -1.1721620     0.4188690
  H       -2.9813020     1.7413150    -0.7875330
  H       -4.5277090     1.0956620    -0.1864690
  H       -3.4435650     1.9541860     0.9176610
  H       -0.4470010    -0.9272420    -0.7564190
  H        2.0063450    -1.1440610    -1.0244550
  H        1.2847699     0.6028021     1.3733670
  H        4.3142870    -0.0291260    -1.8177910
  H        5.3679410     0.7151030    -0.6066950
  H        3.8442820     1.4990380    -1.0633910
  H       -3.7175750    -1.0591810    -0.9792530
units angstrom
no_reorient  #important for SAPT in psi4, default
symmetry c1  #important for SAPT in psi4, default
}

set PROPERTIES_ORIGIN ["COM"]
properties('MP2/aug-cc-pvtz', properties = ['dipole'])
--------------------------------------------------------------------------

    Molecular point group: c1
  Charge       = 0
  Multiplicity = 1
  Basis Set: AUG-CC-PVTZ
    Blend: AUG-CC-PVTZ
  Basis Set: (AUG-CC-PVTZ AUX)
    Blend: AUG-CC-PVTZ-JKFIT

    Orbital Energies [Eh]
    ---------------------

    Doubly Occupied:

       1A    -20.558879     2A    -11.285993     3A    -11.228589
       4A    -11.226153     5A    -11.224510     6A    -11.222992
       7A    -11.222554     8A    -11.220423     9A    -11.212642
      10A     -1.360834    11A     -1.096299    12A     -1.058312
      13A     -1.016031    14A     -0.958880    15A     -0.876801
      16A     -0.827063    17A     -0.755135    18A     -0.749832
      19A     -0.696023    20A     -0.638288    21A     -0.624974
      22A     -0.616989    23A     -0.590101    24A     -0.581351
      25A     -0.547421    26A     -0.543111    27A     -0.526441
      28A     -0.519193    29A     -0.508939    30A     -0.492306
      31A     -0.478775    32A     -0.468507    33A     -0.451970
      34A     -0.415584    35A     -0.290984

  @DF-RHF Final Energy:  -386.05673467952647

   => Energetics <=

    Nuclear Repulsion Energy =            417.9052756453612574
    One-Electron Energy =               -1351.7382664510009818
    Two-Electron Energy =                 547.7762561261132532
    Total Energy =                       -386.0567346795264712
  Basis Set: (AUG-CC-PVTZ AUX)
    Blend: AUG-CC-PVTZ-RI
    Molecular point group: c1

    Geometry (in Angstrom), charge = 0, multiplicity = 1:

       Center              X                  Y                   Z               Mass
    ------------   -----------------  -----------------  -----------------  -----------------
         O           -2.786779150656    -0.912720843093    -0.741036238627    15.994914619570
         C           -2.771841150656    -0.041107843093     0.389883761373    12.000000000000
         C           -1.346552150656     0.196456156907     0.775849761373    12.000000000000
         C            3.585419849344    -0.226598843093     0.225900761373    12.000000000000
         C           -3.477513150656     1.272705156907     0.068682761373    12.000000000000
         C           -0.264836350656    -0.320004643093     0.077680761373    12.000000000000
         C            2.164072849344    -0.510474843093    -0.143893238627    12.000000000000
         C            1.090323849344    -0.023982843093     0.505853761373    12.000000000000
         C            4.322494849344     0.537074156907    -0.876683238627    12.000000000000
         H           -3.288495150656    -0.524489843093     1.237286761373     1.007825032230
         H           -1.198984150656     0.828738156907     1.652476761373     1.007825032230
         H            3.611204849344     0.348819156907     1.158491761373     1.007825032230
         H            4.112298849344    -1.169460843093     0.422566761373     1.007825032230
         H           -2.983252150656     1.744016156907    -0.783835238627     1.007825032230
         H           -4.529659150656     1.098363156907    -0.182771238627     1.007825032230
         H           -3.445515150656     1.956887156907     0.921358761373     1.007825032230
         H           -0.448951150656    -0.924540843093    -0.752721238627     1.007825032230
         H            2.004394849344    -1.141359843093    -1.020757238627     1.007825032230
         H            1.282819749344     0.605503256907     1.377064761373     1.007825032230
         H            4.312336849344    -0.026424843093    -1.814093238627     1.007825032230
         H            5.365990849344     0.717804156907    -0.602997238627     1.007825032230
         H            3.842331849344     1.501739156907    -1.059693238627     1.007825032230
         H           -3.719525150656    -1.056479843093    -0.975555238627     1.007825032230

  Basis Set: AUG-CC-PVTZ
    Blend: AUG-CC-PVTZ
  Basis Set: (AUG-CC-PVTZ AUX)
    Blend: AUG-CC-PVTZ-JKFIT
	 Reference Energy          =    -386.0567346795264712 [Eh]
	 Singles Energy            =      -0.0000000000000000 [Eh]
	 Same-Spin Energy          =      -0.4008825720391579 [Eh]
	 Opposite-Spin Energy      =      -1.3795654217856230 [Eh]
	 Correlation Energy        =      -1.7804479938247808 [Eh]
	 Total Energy              =    -387.8371826733512648 [Eh]

	 ================> DF-SCS-MP2 Energies <==================
	-----------------------------------------------------------
	 SCS Same-Spin Scale       =       0.3333333333333333 [-]
	 SCS Opposite-Spin Scale   =       1.2000000000000000 [-]
	 SCS Same-Spin Energy      =      -0.1336275240130526 [Eh]
	 SCS Opposite-Spin Energy  =      -1.6554785061427475 [Eh]
	 SCS Correlation Energy    =      -1.7891060301558002 [Eh]
	 SCS Total Energy          =    -387.8458407096822498 [Eh]
	-----------------------------------------------------------

  Dipole Moment: [D]
     X:    -1.1602      Y:     0.6390      Z:     0.5803     Total:     1.4461

*** Psi4 exiting successfully. Buy a developer a beer!
