                               Psi4 1.3.2 release

  ==> Input File <==

--------------------------------------------------------------------------
#psi4
#
memory 32 gb

molecule  {
0 1
  O       -2.7848290    -0.9154220    -0.7447340
  C       -2.7698910    -0.0438090     0.3861860
  C       -1.3446020     0.1937550     0.7721520
  C        3.5873700    -0.2293000     0.2222030
  C       -3.4755630     1.2700040     0.0649850
  C       -0.2882634    -0.2804227     0.1318139
  C        2.1800237    -0.5021695    -0.1322703
  C        1.0922740    -0.0266840     0.5021560
  C        4.3244450     0.5343730    -0.8803810
  H       -3.2865450    -0.5271910     1.2335890
  H       -1.1970340     0.8260370     1.6487790
  H        3.6131550     0.3461180     1.1547940
  H        4.1142490    -1.1721620     0.4188690
  H       -2.9813020     1.7413150    -0.7875330
  H       -4.5277090     1.0956620    -0.1864690
  H       -3.4435650     1.9541860     0.9176610
  H       -0.4470010    -0.9272420    -0.7564190
  H        2.0063450    -1.1440610    -1.0244550
  H        1.2471430     0.6066220     1.3780870
  H        4.3142870    -0.0291260    -1.8177910
  H        5.3679410     0.7151030    -0.6066950
  H        3.8442820     1.4990380    -1.0633910
  H       -3.7175750    -1.0591810    -0.9792530
units angstrom
no_reorient  #important for SAPT in psi4, default
symmetry c1  #important for SAPT in psi4, default
}

set PROPERTIES_ORIGIN ["COM"]
properties('MP2/aug-cc-pvtz', properties = ['dipole'])
--------------------------------------------------------------------------

    Molecular point group: c1
  Charge       = 0
  Multiplicity = 1
  Basis Set: AUG-CC-PVTZ
    Blend: AUG-CC-PVTZ
  Basis Set: (AUG-CC-PVTZ AUX)
    Blend: AUG-CC-PVTZ-JKFIT

    Orbital Energies [Eh]
    ---------------------

    Doubly Occupied:

       1A    -20.558789     2A    -11.286965     3A    -11.227369
       4A    -11.223257     5A    -11.222893     6A    -11.222063
       7A    -11.220901     8A    -11.219845     9A    -11.213508
      10A     -1.360878    11A     -1.099777    12A     -1.064692
      13A     -1.016681    14A     -0.964475    15A     -0.877979
      16A     -0.830995    17A     -0.750940    18A     -0.744567
      19A     -0.694921    20A     -0.637021    21A     -0.629923
      22A     -0.617610    23A     -0.592335    24A     -0.583654
      25A     -0.546134    26A     -0.542213    27A     -0.525763
      28A     -0.521300    29A     -0.499175    30A     -0.492082
      31A     -0.477001    32A     -0.467494    33A     -0.453555
      34A     -0.419579    35A     -0.300600

  @DF-RHF Final Energy:  -386.06138653502745

   => Energetics <=

    Nuclear Repulsion Energy =            418.5574898835918702
    One-Electron Energy =               -1353.0238848696167224
    Two-Electron Energy =                 548.4050084509973431
    Total Energy =                       -386.0613865350275091
  Basis Set: (AUG-CC-PVTZ AUX)
    Blend: AUG-CC-PVTZ-RI
    Molecular point group: c1

    Geometry (in Angstrom), charge = 0, multiplicity = 1:

       Center              X                  Y                   Z               Mass
    ------------   -----------------  -----------------  -----------------  -----------------
         O           -2.785395858387    -0.917822367376    -0.748035008525    15.994914619570
         C           -2.770457858387    -0.046209367376     0.382884991475    12.000000000000
         C           -1.345168858387     0.191354632624     0.768850991475    12.000000000000
         C            3.586803141613    -0.231700367376     0.218901991475    12.000000000000
         C           -3.476129858387     1.267603632624     0.061683991475    12.000000000000
         C           -0.288830258387    -0.282823067376     0.128512891475    12.000000000000
         C            2.179456841613    -0.504569867376    -0.135571308525    12.000000000000
         C            1.091707141613    -0.029084367376     0.498854991475    12.000000000000
         C            4.323878141613     0.531972632624    -0.883682008525    12.000000000000
         H           -3.287111858387    -0.529591367376     1.230287991475     1.007825032230
         H           -1.197600858387     0.823636632624     1.645477991475     1.007825032230
         H            3.612588141613     0.343717632624     1.151492991475     1.007825032230
         H            4.113682141613    -1.174562367376     0.415567991475     1.007825032230
         H           -2.981868858387     1.738914632624    -0.790834008525     1.007825032230
         H           -4.528275858387     1.093261632624    -0.189770008525     1.007825032230
         H           -3.444131858387     1.951785632624     0.914359991475     1.007825032230
         H           -0.447567858387    -0.929642367376    -0.759720008525     1.007825032230
         H            2.005778141613    -1.146461367376    -1.027756008525     1.007825032230
         H            1.246576141613     0.604221632624     1.374785991475     1.007825032230
         H            4.313720141613    -0.031526367376    -1.821092008525     1.007825032230
         H            5.367374141613     0.712702632624    -0.609996008525     1.007825032230
         H            3.843715141613     1.496637632624    -1.066692008525     1.007825032230
         H           -3.718141858387    -1.061581367376    -0.982554008525     1.007825032230

  Basis Set: AUG-CC-PVTZ
    Blend: AUG-CC-PVTZ
  Basis Set: (AUG-CC-PVTZ AUX)
    Blend: AUG-CC-PVTZ-JKFIT
	 Reference Energy          =    -386.0613865350274523 [Eh]
	 Singles Energy            =      -0.0000000000000000 [Eh]
	 Same-Spin Energy          =      -0.4004126612920043 [Eh]
	 Opposite-Spin Energy      =      -1.3781220759334909 [Eh]
	 Correlation Energy        =      -1.7785347372254952 [Eh]
	 Total Energy              =    -387.8399212722529228 [Eh]

	 ================> DF-SCS-MP2 Energies <==================
	-----------------------------------------------------------
	 SCS Same-Spin Scale       =       0.3333333333333333 [-]
	 SCS Opposite-Spin Scale   =       1.2000000000000000 [-]
	 SCS Same-Spin Energy      =      -0.1334708870973347 [Eh]
	 SCS Opposite-Spin Energy  =      -1.6537464911201891 [Eh]
	 SCS Correlation Energy    =      -1.7872173782175238 [Eh]
	 SCS Total Energy          =    -387.8486039132449719 [Eh]
	-----------------------------------------------------------

  Dipole Moment: [D]
     X:    -1.1446      Y:     0.6533      Z:     0.5833     Total:     1.4412

*** Psi4 exiting successfully. Buy a developer a beer!
