                               Psi4 1.4a3.dev225

  ==> Input File <==

--------------------------------------------------------------------------
#psi4
#
memory 32 gb

molecule  {
0 1
  O       -2.7624640     1.3159430     0.2248240
  C       -2.8209640    -0.0168770    -0.2887760
  C       -1.4198970    -0.4865040    -0.5315690
  C        3.5469730    -0.0618850    -0.4287090
  C       -3.5485140    -0.9406360     0.6857820
  C       -0.3124200     0.2274490    -0.2577540
  C        2.1692452     0.4316961    -0.2249164
  C        1.0342680    -0.2689350    -0.4861660
  C        4.3265940    -0.1505530     0.8872490
  H       -3.3622360    -0.0200820    -1.2509840
  H       -1.3293920    -1.4912640    -0.9473420
  H        3.5136740    -1.0471260    -0.9088000
  H        4.0812660     0.6062640    -1.1173180
  H       -3.0279280    -0.9272120     1.6463760
  H       -4.5820380    -0.6089360     0.8383050
  H       -3.5770120    -1.9680220     0.3103630
  H       -0.4219900     1.2292040     0.1523950
  H        2.0485920     1.4434520     0.1930580
  H        1.1311650    -1.2755230    -0.8987060
  H        4.3778580     0.8269450     1.3761990
  H        5.3504770    -0.4972710     0.7173650
  H        3.8373540    -0.8453320     1.5752720
  H       -3.6799020     1.6047450     0.3678300
units angstrom
no_reorient  #important for SAPT in psi4, default
symmetry c1  #important for SAPT in psi4, default
}

set PROPERTIES_ORIGIN ["COM"]
properties('MP2/aug-cc-pvtz', properties = ['dipole'])
--------------------------------------------------------------------------

    Molecular point group: c1
  Charge       = 0
  Multiplicity = 1
  Basis Set: AUG-CC-PVTZ
    Blend: AUG-CC-PVTZ
  Basis Set: (AUG-CC-PVTZ AUX)
    Blend: AUG-CC-PVTZ-JKFIT

    Orbital Energies [Eh]
    ---------------------

    Doubly Occupied:

       1A    -20.558888     2A    -11.287176     3A    -11.227989
       4A    -11.225340     5A    -11.224403     6A    -11.223049
       7A    -11.222852     8A    -11.221042     9A    -11.213590
      10A     -1.360219    11A     -1.097038    12A     -1.062283
      13A     -1.015787    14A     -0.961023    15A     -0.877874
      16A     -0.829003    17A     -0.751504    18A     -0.747682
      19A     -0.694733    20A     -0.636846    21A     -0.628029
      22A     -0.616816    23A     -0.590898    24A     -0.582819
      25A     -0.546368    26A     -0.542661    27A     -0.526308
      28A     -0.519849    29A     -0.501496    30A     -0.492941
      31A     -0.478088    32A     -0.470591    33A     -0.452857
      34A     -0.416537    35A     -0.295616

  @DF-RHF Final Energy:  -386.06104534877562

   => Energetics <=

    Nuclear Repulsion Energy =            417.7270162496845956
    One-Electron Energy =               -1351.3757345043329678
    Two-Electron Energy =                 547.5876729058728642
    Total Energy =                       -386.0610453487755649
  Basis Set: (AUG-CC-PVTZ AUX)
    Blend: AUG-CC-PVTZ-RI
    Molecular point group: c1

    Geometry (in Angstrom), charge = 0, multiplicity = 1:

       Center              X                  Y                   Z               Mass
    ------------   -----------------  -----------------  -----------------  -----------------
         O           -2.730046835761     1.293262934345     0.241256299970    15.994914619570
         C           -2.788546835761    -0.039557065655    -0.272343700030    12.000000000000
         C           -1.387479835761    -0.509184065655    -0.515136700030    12.000000000000
         C            3.579390164239    -0.084565065655    -0.412276700030    12.000000000000
         C           -3.516096835761    -0.963316065655     0.702214299970    12.000000000000
         C           -0.280002835761     0.204768934345    -0.241321700030    12.000000000000
         C            2.201662364239     0.409016034345    -0.208484100030    12.000000000000
         C            1.066685164239    -0.291615065655    -0.469733700030    12.000000000000
         C            4.359011164239    -0.173233065655     0.903681299970    12.000000000000
         H           -3.329818835761    -0.042762065655    -1.234551700030     1.007825032230
         H           -1.296974835761    -1.513944065655    -0.930909700030     1.007825032230
         H            3.546091164239    -1.069806065655    -0.892367700030     1.007825032230
         H            4.113683164239     0.583583934345    -1.100885700030     1.007825032230
         H           -2.995510835761    -0.949892065655     1.662808299970     1.007825032230
         H           -4.549620835761    -0.631616065655     0.854737299970     1.007825032230
         H           -3.544594835761    -1.990702065655     0.326795299970     1.007825032230
         H           -0.389572835761     1.206523934345     0.168827299970     1.007825032230
         H            2.081009164239     1.420771934345     0.209490299970     1.007825032230
         H            1.163582164239    -1.298203065655    -0.882273700030     1.007825032230
         H            4.410275164239     0.804264934345     1.392631299970     1.007825032230
         H            5.382894164239    -0.519951065655     0.733797299970     1.007825032230
         H            3.869771164239    -0.868012065655     1.591704299970     1.007825032230
         H           -3.647484835761     1.582064934345     0.384262299970     1.007825032230

  Basis Set: AUG-CC-PVTZ
    Blend: AUG-CC-PVTZ
  Basis Set: (AUG-CC-PVTZ AUX)
    Blend: AUG-CC-PVTZ-JKFIT
	 Reference Energy          =    -386.0610453487756217 [Eh]
	 Singles Energy            =      -0.0000000000000000 [Eh]
	 Same-Spin Energy          =      -0.4006258833628240 [Eh]
	 Opposite-Spin Energy      =      -1.3789028127196092 [Eh]
	 Correlation Energy        =      -1.7795286960824332 [Eh]
	 Total Energy              =    -387.8405740448580445 [Eh]

	 ================> DF-SCS-MP2 Energies <==================
	-----------------------------------------------------------
	 SCS Same-Spin Scale       =       0.3333333333333333 [-]
	 SCS Opposite-Spin Scale   =       1.2000000000000000 [-]
	 SCS Same-Spin Energy      =      -0.1335419611209413 [Eh]
	 SCS Opposite-Spin Energy  =      -1.6546833752635310 [Eh]
	 SCS Correlation Energy    =      -1.7882253363844725 [Eh]
	 SCS Total Energy          =    -387.8492706851600929 [Eh]
	-----------------------------------------------------------

  Dipole Moment: [D]
     X:    -1.1869      Y:    -0.7986      Z:    -0.1440     Total:     1.4377

*** Psi4 exiting successfully. Buy a developer a beer!
