                               Psi4 1.3.2 release

  ==> Input File <==

--------------------------------------------------------------------------
#psi4
#
memory 32 gb

molecule  {
0 1
  O       -2.7848290    -0.9154220    -0.7447340
  C       -2.7698910    -0.0438090     0.3861860
  C       -1.3446020     0.1937550     0.7721520
  C        3.5873700    -0.2293000     0.2222030
  C       -3.5266386     1.2546791     0.1244431
  C       -0.2802220    -0.2946410     0.1124460
  C        2.1660230    -0.5131760    -0.1475910
  C        1.0922740    -0.0266840     0.5021560
  C        4.3244450     0.5343730    -0.8803810
  H       -3.3232724    -0.4825788     1.2346737
  H       -1.1970340     0.8260370     1.6487790
  H        3.6131550     0.3461180     1.1547940
  H        4.1142490    -1.1721620     0.4188690
  H       -2.9813020     1.7413150    -0.7875330
  H       -4.5277090     1.0956620    -0.1864690
  H       -3.4435650     1.9541860     0.9176610
  H       -0.4470010    -0.9272420    -0.7564190
  H        2.0063450    -1.1440610    -1.0244550
  H        1.2471430     0.6066220     1.3780870
  H        4.3142870    -0.0291260    -1.8177910
  H        5.3679410     0.7151030    -0.6066950
  H        3.8442820     1.4990380    -1.0633910
  H       -3.7175750    -1.0591810    -0.9792530
units angstrom
no_reorient  #important for SAPT in psi4, default
symmetry c1  #important for SAPT in psi4, default
}

set PROPERTIES_ORIGIN ["COM"]
properties('MP2/aug-cc-pvtz', properties = ['dipole'])
--------------------------------------------------------------------------

    Molecular point group: c1
  Charge       = 0
  Multiplicity = 1
  Basis Set: AUG-CC-PVTZ
    Blend: AUG-CC-PVTZ
  Basis Set: (AUG-CC-PVTZ AUX)
    Blend: AUG-CC-PVTZ-JKFIT

    Orbital Energies [Eh]
    ---------------------

    Doubly Occupied:

       1A    -20.561082     2A    -11.287212     3A    -11.226395
       4A    -11.224493     5A    -11.223622     6A    -11.223400
       7A    -11.222655     8A    -11.220759     9A    -11.213041
      10A     -1.361676    11A     -1.098168    12A     -1.061623
      13A     -1.017338    14A     -0.963665    15A     -0.876688
      16A     -0.828426    17A     -0.752833    18A     -0.748611
      19A     -0.695926    20A     -0.640058    21A     -0.628123
      22A     -0.618568    23A     -0.594433    24A     -0.583419
      25A     -0.554868    26A     -0.534615    27A     -0.524586
      28A     -0.516954    29A     -0.501341    30A     -0.492875
      31A     -0.479605    32A     -0.469876    33A     -0.448272
      34A     -0.417077    35A     -0.297771

  @DF-RHF Final Energy:  -386.05494486355934

   => Energetics <=

    Nuclear Repulsion Energy =            417.9308700829389522
    One-Electron Energy =               -1351.7515234980678542
    Two-Electron Energy =                 547.7657085515694462
    Total Energy =                       -386.0549448635593990
  Basis Set: (AUG-CC-PVTZ AUX)
    Blend: AUG-CC-PVTZ-RI
    Molecular point group: c1

    Geometry (in Angstrom), charge = 0, multiplicity = 1:

       Center              X                  Y                   Z               Mass
    ------------   -----------------  -----------------  -----------------  -----------------
         O           -2.779674938095    -0.914320230415    -0.750400723234    15.994914619570
         C           -2.764736938095    -0.042707230415     0.380519276766    12.000000000000
         C           -1.339447938095     0.194856769585     0.766485276766    12.000000000000
         C            3.592524061905    -0.228198230415     0.216536276766    12.000000000000
         C           -3.521484538095     1.255780869585     0.118776376766    12.000000000000
         C           -0.275067938095    -0.293539230415     0.106779276766    12.000000000000
         C            2.171177061905    -0.512074230415    -0.153257723234    12.000000000000
         C            1.097428061905    -0.025582230415     0.496489276766    12.000000000000
         C            4.329599061905     0.535474769585    -0.886047723234    12.000000000000
         H           -3.318118338095    -0.481477030415     1.229006976766     1.007825032230
         H           -1.191879938095     0.827138769585     1.643112276766     1.007825032230
         H            3.618309061905     0.347219769585     1.149127276766     1.007825032230
         H            4.119403061905    -1.171060230415     0.413202276766     1.007825032230
         H           -2.976147938095     1.742416769585    -0.793199723234     1.007825032230
         H           -4.522554938095     1.096763769585    -0.192135723234     1.007825032230
         H           -3.438410938095     1.955287769585     0.911994276766     1.007825032230
         H           -0.441846938095    -0.926140230415    -0.762085723234     1.007825032230
         H            2.011499061905    -1.142959230415    -1.030121723234     1.007825032230
         H            1.252297061905     0.607723769585     1.372420276766     1.007825032230
         H            4.319441061905    -0.028024230415    -1.823457723234     1.007825032230
         H            5.373095061905     0.716204769585    -0.612361723234     1.007825032230
         H            3.849436061905     1.500139769585    -1.069057723234     1.007825032230
         H           -3.712420938095    -1.058079230415    -0.984919723234     1.007825032230

  Basis Set: AUG-CC-PVTZ
    Blend: AUG-CC-PVTZ
  Basis Set: (AUG-CC-PVTZ AUX)
    Blend: AUG-CC-PVTZ-JKFIT
	 Reference Energy          =    -386.0549448635593421 [Eh]
	 Singles Energy            =      -0.0000000000000000 [Eh]
	 Same-Spin Energy          =      -0.4005497023047335 [Eh]
	 Opposite-Spin Energy      =      -1.3787148207626574 [Eh]
	 Correlation Energy        =      -1.7792645230673909 [Eh]
	 Total Energy              =    -387.8342093866267533 [Eh]

	 ================> DF-SCS-MP2 Energies <==================
	-----------------------------------------------------------
	 SCS Same-Spin Scale       =       0.3333333333333333 [-]
	 SCS Opposite-Spin Scale   =       1.2000000000000000 [-]
	 SCS Same-Spin Energy      =      -0.1335165674349112 [Eh]
	 SCS Opposite-Spin Energy  =      -1.6544577849151889 [Eh]
	 SCS Correlation Energy    =      -1.7879743523501002 [Eh]
	 SCS Total Energy          =    -387.8429192159094328 [Eh]
	-----------------------------------------------------------

  Dipole Moment: [D]
     X:    -1.1609      Y:     0.6157      Z:     0.5890     Total:     1.4400

*** Psi4 exiting successfully. Buy a developer a beer!
