                               Psi4 1.3.2 release

  ==> Input File <==

--------------------------------------------------------------------------
#psi4
#
memory 32 gb

molecule  {
0 1
  O       -2.7848290    -0.9154220    -0.7447340
  C       -2.7698910    -0.0438090     0.3861860
  C       -1.3446020     0.1937550     0.7721520
  C        3.5873700    -0.2293000     0.2222030
  C       -3.4755630     1.2700040     0.0649850
  C       -0.2802220    -0.2946410     0.1124460
  C        2.1660230    -0.5131760    -0.1475910
  C        1.2813627     0.0102324     0.5558463
  C        4.3244450     0.5343730    -0.8803810
  H       -3.2865450    -0.5271910     1.2335890
  H       -1.1970340     0.8260370     1.6487790
  H        3.6131550     0.3461180     1.1547940
  H        4.1142490    -1.1721620     0.4188690
  H       -2.9813020     1.7413150    -0.7875330
  H       -4.5277090     1.0956620    -0.1864690
  H       -3.4435650     1.9541860     0.9176610
  H       -0.4470010    -0.9272420    -0.7564190
  H        2.0063450    -1.1440610    -1.0244550
  H        1.2471430     0.6066220     1.3780870
  H        4.3142870    -0.0291260    -1.8177910
  H        5.3679410     0.7151030    -0.6066950
  H        3.8442820     1.4990380    -1.0633910
  H       -3.7175750    -1.0591810    -0.9792530
units angstrom
no_reorient  #important for SAPT in psi4, default
symmetry c1  #important for SAPT in psi4, default
}

set PROPERTIES_ORIGIN ["COM"]
properties('MP2/aug-cc-pvtz', properties = ['dipole'])
--------------------------------------------------------------------------

    Molecular point group: c1
  Charge       = 0
  Multiplicity = 1
  Basis Set: AUG-CC-PVTZ
    Blend: AUG-CC-PVTZ
  Basis Set: (AUG-CC-PVTZ AUX)
    Blend: AUG-CC-PVTZ-JKFIT

    Orbital Energies [Eh]
    ---------------------

    Doubly Occupied:

       1A    -20.557060     2A    -11.284653     3A    -11.227980
       4A    -11.219099     5A    -11.218815     6A    -11.218687
       7A    -11.218438     8A    -11.212355     9A    -11.211455
      10A     -1.359009    11A     -1.104632    12A     -1.059516
      13A     -1.006325    14A     -0.969917    15A     -0.864558
      16A     -0.829092    17A     -0.764755    18A     -0.739882
      19A     -0.691503    20A     -0.644685    21A     -0.621448
      22A     -0.618439    23A     -0.601255    24A     -0.576028
      25A     -0.548406    26A     -0.543111    27A     -0.535203
      28A     -0.518585    29A     -0.500773    30A     -0.491911
      31A     -0.482542    32A     -0.450269    33A     -0.425572
      34A     -0.410688    35A     -0.320982

  @DF-RHF Final Energy:  -386.02716404627989

   => Energetics <=

    Nuclear Repulsion Energy =            417.6456412860222258
    One-Electron Energy =               -1351.2503542785093487
    Two-Electron Energy =                 547.5775489462071164
    Total Energy =                       -386.0271640462799496
  Basis Set: (AUG-CC-PVTZ AUX)
    Blend: AUG-CC-PVTZ-RI
    Molecular point group: c1

    Geometry (in Angstrom), charge = 0, multiplicity = 1:

       Center              X                  Y                   Z               Mass
    ------------   -----------------  -----------------  -----------------  -----------------
         O           -2.802822305569    -0.918934930678    -0.749843195094    15.994914619570
         C           -2.787884305569    -0.047321930678     0.381076804906    12.000000000000
         C           -1.362595305569     0.190242069322     0.767042804906    12.000000000000
         C            3.569376694431    -0.232812930678     0.217093804906    12.000000000000
         C           -3.493556305569     1.266491069322     0.059875804906    12.000000000000
         C           -0.298215305569    -0.298153930678     0.107336804906    12.000000000000
         C            2.148029694431    -0.516688930678    -0.152700195094    12.000000000000
         C            1.263369394431     0.006719469322     0.550737104906    12.000000000000
         C            4.306451694431     0.530860069322    -0.885490195094    12.000000000000
         H           -3.304538305569    -0.530703930678     1.228479804906     1.007825032230
         H           -1.215027305569     0.822524069322     1.643669804906     1.007825032230
         H            3.595161694431     0.342605069322     1.149684804906     1.007825032230
         H            4.096255694431    -1.175674930678     0.413759804906     1.007825032230
         H           -2.999295305569     1.737802069322    -0.792642195094     1.007825032230
         H           -4.545702305569     1.092149069322    -0.191578195094     1.007825032230
         H           -3.461558305569     1.950673069322     0.912551804906     1.007825032230
         H           -0.464994305569    -0.930754930678    -0.761528195094     1.007825032230
         H            1.988351694431    -1.147573930678    -1.029564195094     1.007825032230
         H            1.229149694431     0.603109069322     1.372977804906     1.007825032230
         H            4.296293694431    -0.032638930678    -1.822900195094     1.007825032230
         H            5.349947694431     0.711590069322    -0.611804195094     1.007825032230
         H            3.826288694431     1.495525069322    -1.068500195094     1.007825032230
         H           -3.735568305569    -1.062693930678    -0.984362195094     1.007825032230

  Basis Set: AUG-CC-PVTZ
    Blend: AUG-CC-PVTZ
  Basis Set: (AUG-CC-PVTZ AUX)
    Blend: AUG-CC-PVTZ-JKFIT
	 Reference Energy          =    -386.0271640462798928 [Eh]
	 Singles Energy            =      -0.0000000000000000 [Eh]
	 Same-Spin Energy          =      -0.3984713331042968 [Eh]
	 Opposite-Spin Energy      =      -1.3764704581669656 [Eh]
	 Correlation Energy        =      -1.7749417912712624 [Eh]
	 Total Energy              =    -387.8021058375511529 [Eh]

	 ================> DF-SCS-MP2 Energies <==================
	-----------------------------------------------------------
	 SCS Same-Spin Scale       =       0.3333333333333333 [-]
	 SCS Opposite-Spin Scale   =       1.2000000000000000 [-]
	 SCS Same-Spin Energy      =      -0.1328237777014323 [Eh]
	 SCS Opposite-Spin Energy  =      -1.6517645498003586 [Eh]
	 SCS Correlation Energy    =      -1.7845883275017909 [Eh]
	 SCS Total Energy          =    -387.8117523737817010 [Eh]
	-----------------------------------------------------------

  Dipole Moment: [D]
     X:    -1.0319      Y:     0.6263      Z:     0.5961     Total:     1.3462

*** Psi4 exiting successfully. Buy a developer a beer!
