                               Psi4 1.3.2 release

  ==> Input File <==

--------------------------------------------------------------------------
#psi4
#
memory 32 gb

molecule  {
0 1
  O       -2.7848290    -0.9154220    -0.7447340
  C       -2.7698910    -0.0438090     0.3861860
  C       -1.3446020     0.1937550     0.7721520
  C        3.5873700    -0.2293000     0.2222030
  C       -3.4755630     1.2700040     0.0649850
  C       -0.2760444    -0.3017198     0.1028062
  C        2.1588997    -0.5186239    -0.1551774
  C        1.0922740    -0.0266840     0.5021560
  C        4.3244450     0.5343730    -0.8803810
  H       -3.2865450    -0.5271910     1.2335890
  H       -1.1970340     0.8260370     1.6487790
  H        3.6131550     0.3461180     1.1547940
  H        4.1142490    -1.1721620     0.4188690
  H       -2.9813020     1.7413150    -0.7875330
  H       -4.5277090     1.0956620    -0.1864690
  H       -3.4435650     1.9541860     0.9176610
  H       -0.4470010    -0.9272420    -0.7564190
  H        2.0063450    -1.1440610    -1.0244550
  H        1.2471430     0.6066220     1.3780870
  H        4.3142870    -0.0291260    -1.8177910
  H        5.3679410     0.7151030    -0.6066950
  H        3.8442820     1.4990380    -1.0633910
  H       -3.7175750    -1.0591810    -0.9792530
units angstrom
no_reorient  #important for SAPT in psi4, default
symmetry c1  #important for SAPT in psi4, default
}

set PROPERTIES_ORIGIN ["COM"]
properties('MP2/aug-cc-pvtz', properties = ['dipole'])
--------------------------------------------------------------------------

    Molecular point group: c1
  Charge       = 0
  Multiplicity = 1
  Basis Set: AUG-CC-PVTZ
    Blend: AUG-CC-PVTZ
  Basis Set: (AUG-CC-PVTZ AUX)
    Blend: AUG-CC-PVTZ-JKFIT

    Orbital Energies [Eh]
    ---------------------

    Doubly Occupied:

       1A    -20.558700     2A    -11.286228     3A    -11.225345
       4A    -11.224376     5A    -11.223492     6A    -11.223207
       7A    -11.222475     8A    -11.220501     9A    -11.212569
      10A     -1.360712    11A     -1.096956    12A     -1.059734
      13A     -1.015849    14A     -0.961469    15A     -0.876067
      16A     -0.827491    17A     -0.753718    18A     -0.749482
      19A     -0.695316    20A     -0.637712    21A     -0.626107
      22A     -0.617174    23A     -0.589883    24A     -0.582134
      25A     -0.546953    26A     -0.544008    27A     -0.528063
      28A     -0.517988    29A     -0.502537    30A     -0.492132
      31A     -0.480163    32A     -0.466945    33A     -0.452536
      34A     -0.417697    35A     -0.295892

  @DF-RHF Final Energy:  -386.06193873640211

   => Energetics <=

    Nuclear Repulsion Energy =            418.1305448916948535
    One-Electron Energy =               -1352.2017435207105791
    Two-Electron Energy =                 548.0092598926136134
    Total Energy =                       -386.0619387364021122
  Basis Set: (AUG-CC-PVTZ AUX)
    Blend: AUG-CC-PVTZ-RI
    Molecular point group: c1

    Geometry (in Angstrom), charge = 0, multiplicity = 1:

       Center              X                  Y                   Z               Mass
    ------------   -----------------  -----------------  -----------------  -----------------
         O           -2.784548465711    -0.914229964841    -0.743094837694    15.994914619570
         C           -2.769610465711    -0.042616964841     0.387825162306    12.000000000000
         C           -1.344321465711     0.194947035159     0.773791162306    12.000000000000
         C            3.587650534289    -0.228107964841     0.223842162306    12.000000000000
         C           -3.475282465711     1.271196035159     0.066624162306    12.000000000000
         C           -0.275763865711    -0.300527764841     0.104445362306    12.000000000000
         C            2.159180234289    -0.517431864841    -0.153538237694    12.000000000000
         C            1.092554534289    -0.025491964841     0.503795162306    12.000000000000
         C            4.324725534289     0.535565035159    -0.878741837694    12.000000000000
         H           -3.286264465711    -0.525998964841     1.235228162306     1.007825032230
         H           -1.196753465711     0.827229035159     1.650418162306     1.007825032230
         H            3.613435534289     0.347310035159     1.156433162306     1.007825032230
         H            4.114529534289    -1.170969964841     0.420508162306     1.007825032230
         H           -2.981021465711     1.742507035159    -0.785893837694     1.007825032230
         H           -4.527428465711     1.096854035159    -0.184829837694     1.007825032230
         H           -3.443284465711     1.955378035159     0.919300162306     1.007825032230
         H           -0.446720465711    -0.926049964841    -0.754779837694     1.007825032230
         H            2.006625534289    -1.142868964841    -1.022815837694     1.007825032230
         H            1.247423534289     0.607814035159     1.379726162306     1.007825032230
         H            4.314567534289    -0.027933964841    -1.816151837694     1.007825032230
         H            5.368221534289     0.716295035159    -0.605055837694     1.007825032230
         H            3.844562534289     1.500230035159    -1.061751837694     1.007825032230
         H           -3.717294465711    -1.057988964841    -0.977613837694     1.007825032230

  Basis Set: AUG-CC-PVTZ
    Blend: AUG-CC-PVTZ
  Basis Set: (AUG-CC-PVTZ AUX)
    Blend: AUG-CC-PVTZ-JKFIT
	 Reference Energy          =    -386.0619387364021122 [Eh]
	 Singles Energy            =      -0.0000000000000000 [Eh]
	 Same-Spin Energy          =      -0.4003523677124172 [Eh]
	 Opposite-Spin Energy      =      -1.3784762755096258 [Eh]
	 Correlation Energy        =      -1.7788286432220430 [Eh]
	 Total Energy              =    -387.8407673796241397 [Eh]

	 ================> DF-SCS-MP2 Energies <==================
	-----------------------------------------------------------
	 SCS Same-Spin Scale       =       0.3333333333333333 [-]
	 SCS Opposite-Spin Scale   =       1.2000000000000000 [-]
	 SCS Same-Spin Energy      =      -0.1334507892374724 [Eh]
	 SCS Opposite-Spin Energy  =      -1.6541715306115510 [Eh]
	 SCS Correlation Energy    =      -1.7876223198490233 [Eh]
	 SCS Total Energy          =    -387.8495610562511615 [Eh]
	-----------------------------------------------------------

  Dipole Moment: [D]
     X:    -1.1673      Y:     0.6373      Z:     0.5757     Total:     1.4492

*** Psi4 exiting successfully. Buy a developer a beer!
