                               Psi4 1.3.2 release

  ==> Input File <==

--------------------------------------------------------------------------
#psi4
#
memory 32 gb

molecule  {
0 1
  O       -2.7101235    -0.9166805    -0.7422801
  C       -2.7698910    -0.0438090     0.3861860
  C       -1.3229801     0.1472242     0.7130043
  C        3.5873700    -0.2293000     0.2222030
  C       -3.4755630     1.2700040     0.0649850
  C       -0.2802220    -0.2946410     0.1124460
  C        2.1660230    -0.5131760    -0.1475910
  C        1.0922740    -0.0266840     0.5021560
  C        4.3244450     0.5343730    -0.8803810
  H       -3.2865450    -0.5271910     1.2335890
  H       -1.1970340     0.8260370     1.6487790
  H        3.6131550     0.3461180     1.1547940
  H        4.1142490    -1.1721620     0.4188690
  H       -2.9813020     1.7413150    -0.7875330
  H       -4.5277090     1.0956620    -0.1864690
  H       -3.4435650     1.9541860     0.9176610
  H       -0.4470010    -0.9272420    -0.7564190
  H        2.0063450    -1.1440610    -1.0244550
  H        1.2471430     0.6066220     1.3780870
  H        4.3142870    -0.0291260    -1.8177910
  H        5.3679410     0.7151030    -0.6066950
  H        3.8442820     1.4990380    -1.0633910
  H       -3.7175750    -1.0591810    -0.9792530
units angstrom
no_reorient  #important for SAPT in psi4, default
symmetry c1  #important for SAPT in psi4, default
}

set PROPERTIES_ORIGIN ["COM"]
properties('MP2/aug-cc-pvtz', properties = ['dipole'])
--------------------------------------------------------------------------

    Molecular point group: c1
  Charge       = 0
  Multiplicity = 1
  Basis Set: AUG-CC-PVTZ
    Blend: AUG-CC-PVTZ
  Basis Set: (AUG-CC-PVTZ AUX)
    Blend: AUG-CC-PVTZ-JKFIT

    Orbital Energies [Eh]
    ---------------------

    Doubly Occupied:

       1A    -20.566337     2A    -11.286846     3A    -11.225465
       4A    -11.223163     5A    -11.222851     6A    -11.222565
       7A    -11.217957     8A    -11.212556     9A    -11.210977
      10A     -1.351548    11A     -1.100598    12A     -1.061669
      13A     -1.016434    14A     -0.967675    15A     -0.875092
      16A     -0.831143    17A     -0.753755    18A     -0.728960
      19A     -0.691391    20A     -0.635691    21A     -0.631183
      22A     -0.615593    23A     -0.589806    24A     -0.578363
      25A     -0.546699    26A     -0.542624    27A     -0.526395
      28A     -0.517054    29A     -0.497250    30A     -0.489873
      31A     -0.478233    32A     -0.458565    33A     -0.453504
      34A     -0.424581    35A     -0.305208

  @DF-RHF Final Energy:  -386.04392816305290

   => Energetics <=

    Nuclear Repulsion Energy =            419.5845516848901298
    One-Electron Energy =               -1355.1417510697019679
    Two-Electron Energy =                 549.5132712217589415
    Total Energy =                       -386.0439281630528967
  Basis Set: (AUG-CC-PVTZ AUX)
    Blend: AUG-CC-PVTZ-RI
    Molecular point group: c1

    Geometry (in Angstrom), charge = 0, multiplicity = 1:

       Center              X                  Y                   Z               Mass
    ------------   -----------------  -----------------  -----------------  -----------------
         O           -2.721656340387    -0.912093035506    -0.736962970552    15.994914619570
         C           -2.781423840387    -0.039221535506     0.391503129448    12.000000000000
         C           -1.334512940387     0.151811664494     0.718321429448    12.000000000000
         C            3.575837159613    -0.224712535506     0.227520129448    12.000000000000
         C           -3.487095840387     1.274591464494     0.070302129448    12.000000000000
         C           -0.291754840387    -0.290053535506     0.117763129448    12.000000000000
         C            2.154490159613    -0.508588535506    -0.142273870552    12.000000000000
         C            1.080741159613    -0.022096535506     0.507473129448    12.000000000000
         C            4.312912159613     0.538960464494    -0.875063870552    12.000000000000
         H           -3.298077840387    -0.522603535506     1.238906129448     1.007825032230
         H           -1.208566840387     0.830624464494     1.654096129448     1.007825032230
         H            3.601622159613     0.350705464494     1.160111129448     1.007825032230
         H            4.102716159613    -1.167574535506     0.424186129448     1.007825032230
         H           -2.992834840387     1.745902464494    -0.782215870552     1.007825032230
         H           -4.539241840387     1.100249464494    -0.181151870552     1.007825032230
         H           -3.455097840387     1.958773464494     0.922978129448     1.007825032230
         H           -0.458533840387    -0.922654535506    -0.751101870552     1.007825032230
         H            1.994812159613    -1.139473535506    -1.019137870552     1.007825032230
         H            1.235610159613     0.611209464494     1.383404129448     1.007825032230
         H            4.302754159613    -0.024538535506    -1.812473870552     1.007825032230
         H            5.356408159613     0.719690464494    -0.601377870552     1.007825032230
         H            3.832749159613     1.503625464494    -1.058073870552     1.007825032230
         H           -3.729107840387    -1.054593535506    -0.973935870552     1.007825032230

  Basis Set: AUG-CC-PVTZ
    Blend: AUG-CC-PVTZ
  Basis Set: (AUG-CC-PVTZ AUX)
    Blend: AUG-CC-PVTZ-JKFIT
	 Reference Energy          =    -386.0439281630528967 [Eh]
	 Singles Energy            =      -0.0000000000000000 [Eh]
	 Same-Spin Energy          =      -0.4012740091709565 [Eh]
	 Opposite-Spin Energy      =      -1.3806401850072483 [Eh]
	 Correlation Energy        =      -1.7819141941782046 [Eh]
	 Total Energy              =    -387.8258423572311244 [Eh]

	 ================> DF-SCS-MP2 Energies <==================
	-----------------------------------------------------------
	 SCS Same-Spin Scale       =       0.3333333333333333 [-]
	 SCS Opposite-Spin Scale   =       1.2000000000000000 [-]
	 SCS Same-Spin Energy      =      -0.1337580030569855 [Eh]
	 SCS Opposite-Spin Energy  =      -1.6567682220086979 [Eh]
	 SCS Correlation Energy    =      -1.7905262250656833 [Eh]
	 SCS Total Energy          =    -387.8344543881185587 [Eh]
	-----------------------------------------------------------

  Dipole Moment: [D]
     X:    -1.3175      Y:     0.6198      Z:     0.4956     Total:     1.5381

*** Psi4 exiting successfully. Buy a developer a beer!
