                               Psi4 1.3.2 release

  ==> Input File <==

--------------------------------------------------------------------------
#psi4
#
memory 32 gb

molecule  {
0 1
  O       -2.7848290    -0.9154220    -0.7447340
  C       -2.7698910    -0.0438090     0.3861860
  C       -1.3446020     0.1937550     0.7721520
  C        3.5873700    -0.2293000     0.2222030
  C       -3.4755630     1.2700040     0.0649850
  C       -0.2802220    -0.2946410     0.1124460
  C        2.1589001    -0.5185950    -0.1551984
  C        1.0922740    -0.0266840     0.5021560
  C        4.3244450     0.5343730    -0.8803810
  H       -3.2865450    -0.5271910     1.2335890
  H       -1.1970340     0.8260370     1.6487790
  H        3.6131550     0.3461180     1.1547940
  H        4.1142490    -1.1721620     0.4188690
  H       -2.9813020     1.7413150    -0.7875330
  H       -4.5277090     1.0956620    -0.1864690
  H       -3.4435650     1.9541860     0.9176610
  H       -0.4470010    -0.9272420    -0.7564190
  H        2.0063450    -1.1440610    -1.0244550
  H        1.2377053     0.6074785     1.3790846
  H        4.3142870    -0.0291260    -1.8177910
  H        5.3679410     0.7151030    -0.6066950
  H        3.8442820     1.4990380    -1.0633910
  H       -3.7175750    -1.0591810    -0.9792530
units angstrom
no_reorient  #important for SAPT in psi4, default
symmetry c1  #important for SAPT in psi4, default
}

set PROPERTIES_ORIGIN ["COM"]
properties('MP2/aug-cc-pvtz', properties = ['dipole'])
--------------------------------------------------------------------------

    Molecular point group: c1
  Charge       = 0
  Multiplicity = 1
  Basis Set: AUG-CC-PVTZ
    Blend: AUG-CC-PVTZ
  Basis Set: (AUG-CC-PVTZ AUX)
    Blend: AUG-CC-PVTZ-JKFIT

    Orbital Energies [Eh]
    ---------------------

    Doubly Occupied:

       1A    -20.558661     2A    -11.286361     3A    -11.225716
       4A    -11.223640     5A    -11.223408     6A    -11.222968
       7A    -11.221468     8A    -11.220559     9A    -11.212633
      10A     -1.360694    11A     -1.097443    12A     -1.060482
      13A     -1.015899    14A     -0.962388    15A     -0.876067
      16A     -0.827943    17A     -0.754232    18A     -0.747907
      19A     -0.695100    20A     -0.637563    21A     -0.626801
      22A     -0.617288    23A     -0.590009    24A     -0.582472
      25A     -0.546755    26A     -0.544115    27A     -0.528273
      28A     -0.517969    29A     -0.500331    30A     -0.492196
      31A     -0.480245    32A     -0.466505    33A     -0.452783
      34A     -0.418411    35A     -0.297516

  @DF-RHF Final Energy:  -386.06258389455115

   => Energetics <=

    Nuclear Repulsion Energy =            418.2236421978478802
    One-Electron Energy =               -1352.3868510060699464
    Two-Electron Energy =                 548.1006249136709130
    Total Energy =                       -386.0625838945511532
  Basis Set: (AUG-CC-PVTZ AUX)
    Blend: AUG-CC-PVTZ-RI
    Molecular point group: c1

    Geometry (in Angstrom), charge = 0, multiplicity = 1:

       Center              X                  Y                   Z               Mass
    ------------   -----------------  -----------------  -----------------  -----------------
         O           -2.784075540742    -0.914913173022    -0.744018127811    15.994914619570
         C           -2.769137540742    -0.043300173022     0.386901872189    12.000000000000
         C           -1.343848540742     0.194263826978     0.772867872189    12.000000000000
         C            3.588123459258    -0.228791173022     0.222918872189    12.000000000000
         C           -3.474809540742     1.270512826978     0.065700872189    12.000000000000
         C           -0.279468540742    -0.294132173022     0.113161872189    12.000000000000
         C            2.159653559258    -0.518086173022    -0.154482527811    12.000000000000
         C            1.093027459258    -0.026175173022     0.502871872189    12.000000000000
         C            4.325198459258     0.534881826978    -0.879665127811    12.000000000000
         H           -3.285791540742    -0.526682173022     1.234304872189     1.007825032230
         H           -1.196280540742     0.826545826978     1.649494872189     1.007825032230
         H            3.613908459258     0.346626826978     1.155509872189     1.007825032230
         H            4.115002459258    -1.171653173022     0.419584872189     1.007825032230
         H           -2.980548540742     1.741823826978    -0.786817127811     1.007825032230
         H           -4.526955540742     1.096170826978    -0.185753127811     1.007825032230
         H           -3.442811540742     1.954694826978     0.918376872189     1.007825032230
         H           -0.446247540742    -0.926733173022    -0.755703127811     1.007825032230
         H            2.007098459258    -1.143552173022    -1.023739127811     1.007825032230
         H            1.238458759258     0.607987326978     1.379800472189     1.007825032230
         H            4.315040459258    -0.028617173022    -1.817075127811     1.007825032230
         H            5.368694459258     0.715611826978    -0.605979127811     1.007825032230
         H            3.845035459258     1.499546826978    -1.062675127811     1.007825032230
         H           -3.716821540742    -1.058672173022    -0.978537127811     1.007825032230

  Basis Set: AUG-CC-PVTZ
    Blend: AUG-CC-PVTZ
  Basis Set: (AUG-CC-PVTZ AUX)
    Blend: AUG-CC-PVTZ-JKFIT
	 Reference Energy          =    -386.0625838945511532 [Eh]
	 Singles Energy            =      -0.0000000000000000 [Eh]
	 Same-Spin Energy          =      -0.4002437607359614 [Eh]
	 Opposite-Spin Energy      =      -1.3782154675398133 [Eh]
	 Correlation Energy        =      -1.7784592282757747 [Eh]
	 Total Energy              =    -387.8410431228269317 [Eh]

	 ================> DF-SCS-MP2 Energies <==================
	-----------------------------------------------------------
	 SCS Same-Spin Scale       =       0.3333333333333333 [-]
	 SCS Opposite-Spin Scale   =       1.2000000000000000 [-]
	 SCS Same-Spin Energy      =      -0.1334145869119871 [Eh]
	 SCS Opposite-Spin Energy  =      -1.6538585610477758 [Eh]
	 SCS Correlation Energy    =      -1.7872731479597630 [Eh]
	 SCS Total Energy          =    -387.8498570425109051 [Eh]
	-----------------------------------------------------------

  Dipole Moment: [D]
     X:    -1.1665      Y:     0.6383      Z:     0.5753     Total:     1.4489

*** Psi4 exiting successfully. Buy a developer a beer!
