                               Psi4 1.4a3.dev225

  ==> Input File <==

--------------------------------------------------------------------------
#psi4
#
memory 32 gb

molecule  {
0 1
  O       -2.7624640     1.3159430     0.2248240
  C       -2.8209640    -0.0168770    -0.2887760
  C       -1.4198970    -0.4865040    -0.5315690
  C        3.5469730    -0.0618850    -0.4287090
  C       -3.5485140    -0.9406360     0.6857820
  C       -0.3124200     0.2274490    -0.2577540
  C        2.1505970     0.4383770    -0.2221580
  C        1.0157354    -0.2621040    -0.4830227
  C        4.3265940    -0.1505530     0.8872490
  H       -3.3622360    -0.0200820    -1.2509840
  H       -1.3293920    -1.4912640    -0.9473420
  H        3.5136740    -1.0471260    -0.9088000
  H        4.0812660     0.6062640    -1.1173180
  H       -3.0279280    -0.9272120     1.6463760
  H       -4.5820380    -0.6089360     0.8383050
  H       -3.5770120    -1.9680220     0.3103630
  H       -0.4219900     1.2292040     0.1523950
  H        2.0485920     1.4434520     0.1930580
  H        1.1311650    -1.2755230    -0.8987060
  H        4.3778580     0.8269450     1.3761990
  H        5.3504770    -0.4972710     0.7173650
  H        3.8373540    -0.8453320     1.5752720
  H       -3.6799020     1.6047450     0.3678300
units angstrom
no_reorient  #important for SAPT in psi4, default
symmetry c1  #important for SAPT in psi4, default
}

set PROPERTIES_ORIGIN ["COM"]
properties('MP2/aug-cc-pvtz', properties = ['dipole'])
--------------------------------------------------------------------------

    Molecular point group: c1
  Charge       = 0
  Multiplicity = 1
  Basis Set: AUG-CC-PVTZ
    Blend: AUG-CC-PVTZ
  Basis Set: (AUG-CC-PVTZ AUX)
    Blend: AUG-CC-PVTZ-JKFIT

    Orbital Energies [Eh]
    ---------------------

    Doubly Occupied:

       1A    -20.558948     2A    -11.287164     3A    -11.228062
       4A    -11.224831     5A    -11.224303     6A    -11.224004
       7A    -11.221788     8A    -11.221086     9A    -11.213446
      10A     -1.360278    11A     -1.097852    12A     -1.060575
      13A     -1.016925    14A     -0.961003    15A     -0.877867
      16A     -0.828257    17A     -0.752714    18A     -0.747769
      19A     -0.695029    20A     -0.637063    21A     -0.627954
      22A     -0.616650    23A     -0.589116    24A     -0.583939
      25A     -0.546561    26A     -0.543392    27A     -0.525856
      28A     -0.518545    29A     -0.500442    30A     -0.492193
      31A     -0.478492    32A     -0.470527    33A     -0.453186
      34A     -0.419441    35A     -0.294431

  @DF-RHF Final Energy:  -386.06087673576735

   => Energetics <=

    Nuclear Repulsion Energy =            417.8434731998097504
    One-Electron Energy =               -1351.6093161991252600
    Two-Electron Energy =                 547.7049662635481582
    Total Energy =                       -386.0608767357673514
  Basis Set: (AUG-CC-PVTZ AUX)
    Blend: AUG-CC-PVTZ-RI
    Molecular point group: c1

    Geometry (in Angstrom), charge = 0, multiplicity = 1:

       Center              X                  Y                   Z               Mass
    ------------   -----------------  -----------------  -----------------  -----------------
         O           -2.726508740581     1.291977152752     0.240694698920    15.994914619570
         C           -2.785008740581    -0.040842847248    -0.272905301080    12.000000000000
         C           -1.383941740581    -0.510469847248    -0.515698301080    12.000000000000
         C            3.582928259419    -0.085850847248    -0.412838301080    12.000000000000
         C           -3.512558740581    -0.964601847248     0.701652698920    12.000000000000
         C           -0.276464740581     0.203483152752    -0.241883301080    12.000000000000
         C            2.186552259419     0.414411152752    -0.206287301080    12.000000000000
         C            1.051690659419    -0.286069847248    -0.467152001080    12.000000000000
         C            4.362549259419    -0.174518847248     0.903119698920    12.000000000000
         H           -3.326280740581    -0.044047847248    -1.235113301080     1.007825032230
         H           -1.293436740581    -1.515229847248    -0.931471301080     1.007825032230
         H            3.549629259419    -1.071091847248    -0.892929301080     1.007825032230
         H            4.117221259419     0.582298152752    -1.101447301080     1.007825032230
         H           -2.991972740581    -0.951177847248     1.662246698920     1.007825032230
         H           -4.546082740581    -0.632901847248     0.854175698920     1.007825032230
         H           -3.541056740581    -1.991987847248     0.326233698920     1.007825032230
         H           -0.386034740581     1.205238152752     0.168265698920     1.007825032230
         H            2.084547259419     1.419486152752     0.208928698920     1.007825032230
         H            1.167120259419    -1.299488847248    -0.882835301080     1.007825032230
         H            4.413813259419     0.802979152752     1.392069698920     1.007825032230
         H            5.386432259419    -0.521236847248     0.733235698920     1.007825032230
         H            3.873309259419    -0.869297847248     1.591142698920     1.007825032230
         H           -3.643946740581     1.580779152752     0.383700698920     1.007825032230

  Basis Set: AUG-CC-PVTZ
    Blend: AUG-CC-PVTZ
  Basis Set: (AUG-CC-PVTZ AUX)
    Blend: AUG-CC-PVTZ-JKFIT
	 Reference Energy          =    -386.0608767357673514 [Eh]
	 Singles Energy            =      -0.0000000000000000 [Eh]
	 Same-Spin Energy          =      -0.4007078871432419 [Eh]
	 Opposite-Spin Energy      =      -1.3790009728122992 [Eh]
	 Correlation Energy        =      -1.7797088599555411 [Eh]
	 Total Energy              =    -387.8405855957228709 [Eh]

	 ================> DF-SCS-MP2 Energies <==================
	-----------------------------------------------------------
	 SCS Same-Spin Scale       =       0.3333333333333333 [-]
	 SCS Opposite-Spin Scale   =       1.2000000000000000 [-]
	 SCS Same-Spin Energy      =      -0.1335692957144139 [Eh]
	 SCS Opposite-Spin Energy  =      -1.6548011673747589 [Eh]
	 SCS Correlation Energy    =      -1.7883704630891728 [Eh]
	 SCS Total Energy          =    -387.8492471988565171 [Eh]
	-----------------------------------------------------------

  Dipole Moment: [D]
     X:    -1.2072      Y:    -0.7939      Z:    -0.1405     Total:     1.4516

*** Psi4 exiting successfully. Buy a developer a beer!
