                               Psi4 1.3.2 release

  ==> Input File <==

--------------------------------------------------------------------------
#psi4
#
memory 32 gb

molecule  {
0 1
  O       -2.7848290    -0.9154220    -0.7447340
  C       -2.7698910    -0.0438090     0.3861860
  C       -1.3446020     0.1937550     0.7721520
  C        3.5873700    -0.2293000     0.2222030
  C       -3.4755630     1.2700040     0.0649850
  C       -0.2802220    -0.2946410     0.1124460
  C        2.1660230    -0.5131760    -0.1475910
  C        1.0922740    -0.0266840     0.5021560
  C        4.3244450     0.5343730    -0.8803810
  H       -3.1929431    -0.4396170     1.0800655
  H       -1.1970340     0.8260370     1.6487790
  H        3.6131550     0.3461180     1.1547940
  H        4.1142490    -1.1721620     0.4188690
  H       -2.9813020     1.7413150    -0.7875330
  H       -4.5277090     1.0956620    -0.1864690
  H       -3.4435650     1.9541860     0.9176610
  H       -0.4470010    -0.9272420    -0.7564190
  H        2.0063450    -1.1440610    -1.0244550
  H        1.2471430     0.6066220     1.3780870
  H        4.3142870    -0.0291260    -1.8177910
  H        5.3679410     0.7151030    -0.6066950
  H        3.8442820     1.4990380    -1.0633910
  H       -3.7175750    -1.0591810    -0.9792530
units angstrom
no_reorient  #important for SAPT in psi4, default
symmetry c1  #important for SAPT in psi4, default
}

set PROPERTIES_ORIGIN ["COM"]
properties('MP2/aug-cc-pvtz', properties = ['dipole'])
--------------------------------------------------------------------------

    Molecular point group: c1
  Charge       = 0
  Multiplicity = 1
  Basis Set: AUG-CC-PVTZ
    Blend: AUG-CC-PVTZ
  Basis Set: (AUG-CC-PVTZ AUX)
    Blend: AUG-CC-PVTZ-JKFIT

    Orbital Energies [Eh]
    ---------------------

    Doubly Occupied:

       1A    -20.555822     2A    -11.260666     3A    -11.225435
       4A    -11.223027     5A    -11.222824     6A    -11.222244
       7A    -11.220733     8A    -11.218993     9A    -11.212606
      10A     -1.359846    11A     -1.098060    12A     -1.065085
      13A     -1.020632    14A     -0.962200    15A     -0.883652
      16A     -0.839920    17A     -0.760489    18A     -0.747683
      19A     -0.711697    20A     -0.636509    21A     -0.629944
      22A     -0.617795    23A     -0.589724    24A     -0.582338
      25A     -0.546432    26A     -0.543138    27A     -0.527888
      28A     -0.518725    29A     -0.500320    30A     -0.496965
      31A     -0.479078    32A     -0.468365    33A     -0.456696
      34A     -0.419551    35A     -0.297661

  @DF-RHF Final Energy:  -386.03204331478349

   => Energetics <=

    Nuclear Repulsion Energy =            419.4356165902884754
    One-Electron Energy =               -1354.6898283258310585
    Two-Electron Energy =                 549.2221684207592034
    Total Energy =                       -386.0320433147834365
  Basis Set: (AUG-CC-PVTZ AUX)
    Blend: AUG-CC-PVTZ-RI
    Molecular point group: c1

    Geometry (in Angstrom), charge = 0, multiplicity = 1:

       Center              X                  Y                   Z               Mass
    ------------   -----------------  -----------------  -----------------  -----------------
         O           -2.785576841176    -0.916121885712    -0.743507111547    15.994914619570
         C           -2.770638841176    -0.044508885712     0.387412888453    12.000000000000
         C           -1.345349841176     0.193055114288     0.773378888453    12.000000000000
         C            3.586622158824    -0.229999885712     0.223429888453    12.000000000000
         C           -3.476310841176     1.269304114288     0.066211888453    12.000000000000
         C           -0.280969841176    -0.295340885712     0.113672888453    12.000000000000
         C            2.165275158824    -0.513875885712    -0.146364111547    12.000000000000
         C            1.091526158824    -0.027383885712     0.503382888453    12.000000000000
         C            4.323697158824     0.533673114288    -0.879154111547    12.000000000000
         H           -3.193690941176    -0.440316885712     1.081292388453     1.007825032230
         H           -1.197781841176     0.825337114288     1.650005888453     1.007825032230
         H            3.612407158824     0.345418114288     1.156020888453     1.007825032230
         H            4.113501158824    -1.172861885712     0.420095888453     1.007825032230
         H           -2.982049841176     1.740615114288    -0.786306111547     1.007825032230
         H           -4.528456841176     1.094962114288    -0.185242111547     1.007825032230
         H           -3.444312841176     1.953486114288     0.918887888453     1.007825032230
         H           -0.447748841176    -0.927941885712    -0.755192111547     1.007825032230
         H            2.005597158824    -1.144760885712    -1.023228111547     1.007825032230
         H            1.246395158824     0.605922114288     1.379313888453     1.007825032230
         H            4.313539158824    -0.029825885712    -1.816564111547     1.007825032230
         H            5.367193158824     0.714403114288    -0.605468111547     1.007825032230
         H            3.843534158824     1.498338114288    -1.062164111547     1.007825032230
         H           -3.718322841176    -1.059880885712    -0.978026111547     1.007825032230

  Basis Set: AUG-CC-PVTZ
    Blend: AUG-CC-PVTZ
  Basis Set: (AUG-CC-PVTZ AUX)
    Blend: AUG-CC-PVTZ-JKFIT
	 Reference Energy          =    -386.0320433147834933 [Eh]
	 Singles Energy            =      -0.0000000000000000 [Eh]
	 Same-Spin Energy          =      -0.4002042875299473 [Eh]
	 Opposite-Spin Energy      =      -1.3774409498339835 [Eh]
	 Correlation Energy        =      -1.7776452373639309 [Eh]
	 Total Energy              =    -387.8096885521474064 [Eh]

	 ================> DF-SCS-MP2 Energies <==================
	-----------------------------------------------------------
	 SCS Same-Spin Scale       =       0.3333333333333333 [-]
	 SCS Opposite-Spin Scale   =       1.2000000000000000 [-]
	 SCS Same-Spin Energy      =      -0.1334014291766491 [Eh]
	 SCS Opposite-Spin Energy  =      -1.6529291398007802 [Eh]
	 SCS Correlation Energy    =      -1.7863305689774291 [Eh]
	 SCS Total Energy          =    -387.8183738837608985 [Eh]
	-----------------------------------------------------------

  Dipole Moment: [D]
     X:    -1.2214      Y:     0.6258      Z:     0.6803     Total:     1.5317

*** Psi4 exiting successfully. Buy a developer a beer!
