                               Psi4 1.3.2 release

  ==> Input File <==

--------------------------------------------------------------------------
#psi4
#
memory 32 gb

molecule  {
0 1
  O       -2.7848290    -0.9154220    -0.7447340
  C       -2.7698910    -0.0438090     0.3861860
  C       -1.3446020     0.1937550     0.7721520
  C        3.5873700    -0.2293000     0.2222030
  C       -3.4755630     1.2700040     0.0649850
  C       -0.2802220    -0.2946410     0.1124460
  C        2.1660230    -0.5131760    -0.1475910
  C        1.0922740    -0.0266840     0.5021560
  C        4.3244450     0.5343730    -0.8803810
  H       -3.2865450    -0.5271910     1.2335890
  H       -1.1970340     0.8260370     1.6487790
  H        3.6108026     0.2936225     1.0697135
  H        4.1142490    -1.1721620     0.4188690
  H       -2.9813020     1.7413150    -0.7875330
  H       -4.5277090     1.0956620    -0.1864690
  H       -3.4435650     1.9541860     0.9176610
  H       -0.4470010    -0.9272420    -0.7564190
  H        2.0063450    -1.1440610    -1.0244550
  H        1.2471430     0.6066220     1.3780870
  H        4.3142870    -0.0291260    -1.8177910
  H        5.3679410     0.7151030    -0.6066950
  H        3.8442820     1.4990380    -1.0633910
  H       -3.7175750    -1.0591810    -0.9792530
units angstrom
no_reorient  #important for SAPT in psi4, default
symmetry c1  #important for SAPT in psi4, default
}

set PROPERTIES_ORIGIN ["COM"]
properties('MP2/aug-cc-pvtz', properties = ['dipole'])
--------------------------------------------------------------------------

    Molecular point group: c1
  Charge       = 0
  Multiplicity = 1
  Basis Set: AUG-CC-PVTZ
    Blend: AUG-CC-PVTZ
  Basis Set: (AUG-CC-PVTZ AUX)
    Blend: AUG-CC-PVTZ-JKFIT

    Orbital Energies [Eh]
    ---------------------

    Doubly Occupied:

       1A    -20.558616     2A    -11.286336     3A    -11.225318
       4A    -11.223464     5A    -11.222777     6A    -11.221608
       7A    -11.220528     8A    -11.212144     9A    -11.210584
      10A     -1.360651    11A     -1.098951    12A     -1.063344
      13A     -1.017339    14A     -0.962472    15A     -0.877736
      16A     -0.833050    17A     -0.757736    18A     -0.747878
      19A     -0.695242    20A     -0.640868    21A     -0.627434
      22A     -0.618209    23A     -0.592268    24A     -0.583777
      25A     -0.546374    26A     -0.543203    27A     -0.527377
      28A     -0.518660    29A     -0.501322    30A     -0.493493
      31A     -0.486874    32A     -0.467473    33A     -0.452733
      34A     -0.418081    35A     -0.297213

  @DF-RHF Final Energy:  -386.05682105088385

   => Energetics <=

    Nuclear Repulsion Energy =            418.7252420273475195
    One-Electron Energy =               -1353.3418625607700960
    Two-Electron Energy =                 548.5597994825386650
    Total Energy =                       -386.0568210508838547
  Basis Set: (AUG-CC-PVTZ AUX)
    Blend: AUG-CC-PVTZ-RI
    Molecular point group: c1

    Geometry (in Angstrom), charge = 0, multiplicity = 1:

       Center              X                  Y                   Z               Mass
    ------------   -----------------  -----------------  -----------------  -----------------
         O           -2.784809975820    -0.915002452326    -0.744054106998    15.994914619570
         C           -2.769871975820    -0.043389452326     0.386865893002    12.000000000000
         C           -1.344582975820     0.194174547674     0.772831893002    12.000000000000
         C            3.587389024180    -0.228880452326     0.222882893002    12.000000000000
         C           -3.475543975820     1.270423547674     0.065664893002    12.000000000000
         C           -0.280202975820    -0.294221452326     0.113125893002    12.000000000000
         C            2.166042024180    -0.512756452326    -0.146911106998    12.000000000000
         C            1.092293024180    -0.026264452326     0.502835893002    12.000000000000
         C            4.324464024180     0.534792547674    -0.879701106998    12.000000000000
         H           -3.286525975820    -0.526771452326     1.234268893002     1.007825032230
         H           -1.197014975820     0.826456547674     1.649458893002     1.007825032230
         H            3.610821624180     0.294042047674     1.070393393002     1.007825032230
         H            4.114268024180    -1.171742452326     0.419548893002     1.007825032230
         H           -2.981282975820     1.741734547674    -0.786853106998     1.007825032230
         H           -4.527689975820     1.096081547674    -0.185789106998     1.007825032230
         H           -3.443545975820     1.954605547674     0.918340893002     1.007825032230
         H           -0.446981975820    -0.926822452326    -0.755739106998     1.007825032230
         H            2.006364024180    -1.143641452326    -1.023775106998     1.007825032230
         H            1.247162024180     0.607041547674     1.378766893002     1.007825032230
         H            4.314306024180    -0.028706452326    -1.817111106998     1.007825032230
         H            5.367960024180     0.715522547674    -0.606015106998     1.007825032230
         H            3.844301024180     1.499457547674    -1.062711106998     1.007825032230
         H           -3.717555975820    -1.058761452326    -0.978573106998     1.007825032230

  Basis Set: AUG-CC-PVTZ
    Blend: AUG-CC-PVTZ
  Basis Set: (AUG-CC-PVTZ AUX)
    Blend: AUG-CC-PVTZ-JKFIT
	 Reference Energy          =    -386.0568210508838547 [Eh]
	 Singles Energy            =      -0.0000000000000000 [Eh]
	 Same-Spin Energy          =      -0.4003067894891141 [Eh]
	 Opposite-Spin Energy      =      -1.3777199532541049 [Eh]
	 Correlation Energy        =      -1.7780267427432190 [Eh]
	 Total Energy              =    -387.8348477936270911 [Eh]

	 ================> DF-SCS-MP2 Energies <==================
	-----------------------------------------------------------
	 SCS Same-Spin Scale       =       0.3333333333333333 [-]
	 SCS Opposite-Spin Scale   =       1.2000000000000000 [-]
	 SCS Same-Spin Energy      =      -0.1334355964963714 [Eh]
	 SCS Opposite-Spin Energy  =      -1.6532639439049259 [Eh]
	 SCS Correlation Energy    =      -1.7866995404012973 [Eh]
	 SCS Total Energy          =    -387.8435205912851416 [Eh]
	-----------------------------------------------------------

  Dipole Moment: [D]
     X:    -1.1423      Y:     0.6607      Z:     0.6314     Total:     1.4629

*** Psi4 exiting successfully. Buy a developer a beer!
