                               Psi4 1.3.2 release

  ==> Input File <==

--------------------------------------------------------------------------
#psi4
#
memory 32 gb

molecule  {
0 1
  O       -2.7848290    -0.9154220    -0.7447340
  C       -2.7698910    -0.0438090     0.3861860
  C       -1.3446020     0.1937550     0.7721520
  C        3.5873700    -0.2293000     0.2222030
  C       -3.4755630     1.2700040     0.0649850
  C       -0.2802220    -0.2946410     0.1124460
  C        2.3560620    -0.4752208    -0.0981483
  C        1.0922740    -0.0266840     0.5021560
  C        4.3244450     0.5343730    -0.8803810
  H       -3.2865450    -0.5271910     1.2335890
  H       -1.1970340     0.8260370     1.6487790
  H        3.6131550     0.3461180     1.1547940
  H        4.1142490    -1.1721620     0.4188690
  H       -2.9813020     1.7413150    -0.7875330
  H       -4.5277090     1.0956620    -0.1864690
  H       -3.4435650     1.9541860     0.9176610
  H       -0.4470010    -0.9272420    -0.7564190
  H        2.0063450    -1.1440610    -1.0244550
  H        1.2471430     0.6066220     1.3780870
  H        4.3142870    -0.0291260    -1.8177910
  H        5.3679410     0.7151030    -0.6066950
  H        3.8442820     1.4990380    -1.0633910
  H       -3.7175750    -1.0591810    -0.9792530
units angstrom
no_reorient  #important for SAPT in psi4, default
symmetry c1  #important for SAPT in psi4, default
}

set PROPERTIES_ORIGIN ["COM"]
properties('MP2/aug-cc-pvtz', properties = ['dipole'])
--------------------------------------------------------------------------

    Molecular point group: c1
  Charge       = 0
  Multiplicity = 1
  Basis Set: AUG-CC-PVTZ
    Blend: AUG-CC-PVTZ
  Basis Set: (AUG-CC-PVTZ AUX)
    Blend: AUG-CC-PVTZ-JKFIT

    Orbital Energies [Eh]
    ---------------------

    Doubly Occupied:

       1A    -20.558799     2A    -11.287019     3A    -11.242723
       4A    -11.236503     5A    -11.226565     6A    -11.223896
       7A    -11.220723     8A    -11.218771     9A    -11.215344
      10A     -1.360894    11A     -1.117523    12A     -1.075738
      13A     -1.014941    14A     -0.951165    15A     -0.893908
      16A     -0.830778    17A     -0.748897    18A     -0.740966
      19A     -0.693972    20A     -0.641877    21A     -0.640236
      22A     -0.618400    23A     -0.601227    24A     -0.582614
      25A     -0.546982    26A     -0.542493    27A     -0.539506
      28A     -0.519593    29A     -0.514979    30A     -0.495203
      31A     -0.480738    32A     -0.452618    33A     -0.444997
      34A     -0.406661    35A     -0.276605

  @DF-RHF Final Energy:  -385.99655728387108

   => Energetics <=

    Nuclear Repulsion Energy =            418.3799580396238298
    One-Electron Energy =               -1352.4253260997277266
    Two-Electron Energy =                 548.0488107762328127
    Total Energy =                       -385.9965572838710841
  Basis Set: (AUG-CC-PVTZ AUX)
    Blend: AUG-CC-PVTZ-RI
    Molecular point group: c1

    Geometry (in Angstrom), charge = 0, multiplicity = 1:

       Center              X                  Y                   Z               Mass
    ------------   -----------------  -----------------  -----------------  -----------------
         O           -2.802912735357    -0.919033782055    -0.749438996877    15.994914619570
         C           -2.787974735357    -0.047420782055     0.381481003123    12.000000000000
         C           -1.362685735357     0.190143217945     0.767447003123    12.000000000000
         C            3.569286264643    -0.232911782055     0.217498003123    12.000000000000
         C           -3.493646735357     1.266392217945     0.060280003123    12.000000000000
         C           -0.298305735357    -0.298252782055     0.107741003123    12.000000000000
         C            2.337978264643    -0.478832582055    -0.102853296877    12.000000000000
         C            1.074190264643    -0.030295782055     0.497451003123    12.000000000000
         C            4.306361264643     0.530761217945    -0.885085996877    12.000000000000
         H           -3.304628735357    -0.530802782055     1.228884003123     1.007825032230
         H           -1.215117735357     0.822425217945     1.644074003123     1.007825032230
         H            3.595071264643     0.342506217945     1.150089003123     1.007825032230
         H            4.096165264643    -1.175773782055     0.414164003123     1.007825032230
         H           -2.999385735357     1.737703217945    -0.792237996877     1.007825032230
         H           -4.545792735357     1.092050217945    -0.191173996877     1.007825032230
         H           -3.461648735357     1.950574217945     0.912956003123     1.007825032230
         H           -0.465084735357    -0.930853782055    -0.761123996877     1.007825032230
         H            1.988261264643    -1.147672782055    -1.029159996877     1.007825032230
         H            1.229059264643     0.603010217945     1.373382003123     1.007825032230
         H            4.296203264643    -0.032737782055    -1.822495996877     1.007825032230
         H            5.349857264643     0.711491217945    -0.611399996877     1.007825032230
         H            3.826198264643     1.495426217945    -1.068095996877     1.007825032230
         H           -3.735658735357    -1.062792782055    -0.983957996877     1.007825032230

  Basis Set: AUG-CC-PVTZ
    Blend: AUG-CC-PVTZ
  Basis Set: (AUG-CC-PVTZ AUX)
    Blend: AUG-CC-PVTZ-JKFIT
	 Reference Energy          =    -385.9965572838710841 [Eh]
	 Singles Energy            =      -0.0000000000000000 [Eh]
	 Same-Spin Energy          =      -0.4060051547089484 [Eh]
	 Opposite-Spin Energy      =      -1.3865951457428207 [Eh]
	 Correlation Energy        =      -1.7926003004517690 [Eh]
	 Total Energy              =    -387.7891575843228793 [Eh]

	 ================> DF-SCS-MP2 Energies <==================
	-----------------------------------------------------------
	 SCS Same-Spin Scale       =       0.3333333333333333 [-]
	 SCS Opposite-Spin Scale   =       1.2000000000000000 [-]
	 SCS Same-Spin Energy      =      -0.1353350515696495 [Eh]
	 SCS Opposite-Spin Energy  =      -1.6639141748913848 [Eh]
	 SCS Correlation Energy    =      -1.7992492264610342 [Eh]
	 SCS Total Energy          =    -387.7958065103321132 [Eh]
	-----------------------------------------------------------

  Dipole Moment: [D]
     X:    -0.9312      Y:     0.6798      Z:     0.5996     Total:     1.2995

*** Psi4 exiting successfully. Buy a developer a beer!
