                               Psi4 1.3.2 release

  ==> Input File <==

--------------------------------------------------------------------------
#psi4
#
memory 32 gb

molecule  {
0 1
  O       -2.7848290    -0.9154220    -0.7447340
  C       -2.7698910    -0.0438090     0.3861860
  C       -1.3363619     0.2149366     0.7251551
  C        3.5873700    -0.2293000     0.2222030
  C       -3.4755630     1.2700040     0.0649850
  C       -0.2802220    -0.2946410     0.1124460
  C        2.1660230    -0.5131760    -0.1475910
  C        1.0922740    -0.0266840     0.5021560
  C        4.3244450     0.5343730    -0.8803810
  H       -3.3189121    -0.5277024     1.2126873
  H       -1.1970340     0.8260370     1.6487790
  H        3.6131550     0.3461180     1.1547940
  H        4.1142490    -1.1721620     0.4188690
  H       -2.9813020     1.7413150    -0.7875330
  H       -4.5277090     1.0956620    -0.1864690
  H       -3.4435650     1.9541860     0.9176610
  H       -0.4470010    -0.9272420    -0.7564190
  H        2.0063450    -1.1440610    -1.0244550
  H        1.2471430     0.6066220     1.3780870
  H        4.3142870    -0.0291260    -1.8177910
  H        5.3679410     0.7151030    -0.6066950
  H        3.8442820     1.4990380    -1.0633910
  H       -3.7175750    -1.0591810    -0.9792530
units angstrom
no_reorient  #important for SAPT in psi4, default
symmetry c1  #important for SAPT in psi4, default
}

set PROPERTIES_ORIGIN ["COM"]
properties('MP2/aug-cc-pvtz', properties = ['dipole'])
--------------------------------------------------------------------------

    Molecular point group: c1
  Charge       = 0
  Multiplicity = 1
  Basis Set: AUG-CC-PVTZ
    Blend: AUG-CC-PVTZ
  Basis Set: (AUG-CC-PVTZ AUX)
    Blend: AUG-CC-PVTZ-JKFIT

    Orbital Energies [Eh]
    ---------------------

    Doubly Occupied:

       1A    -20.557581     2A    -11.286555     3A    -11.226521
       4A    -11.223690     5A    -11.223458     6A    -11.222399
       7A    -11.219677     8A    -11.219651     9A    -11.213122
      10A     -1.360509    11A     -1.099492    12A     -1.062324
      13A     -1.016769    14A     -0.964195    15A     -0.875623
      16A     -0.829551    17A     -0.753469    18A     -0.744013
      19A     -0.696690    20A     -0.637380    21A     -0.629759
      22A     -0.617006    23A     -0.590058    24A     -0.582719
      25A     -0.544910    26A     -0.542545    27A     -0.526252
      28A     -0.518926    29A     -0.497640    30A     -0.494248
      31A     -0.479469    32A     -0.467491    33A     -0.451975
      34A     -0.420298    35A     -0.300877

  @DF-RHF Final Energy:  -386.06120899854756

   => Energetics <=

    Nuclear Repulsion Energy =            418.6418237916672069
    One-Electron Energy =               -1353.2123857883777873
    Two-Electron Energy =                 548.5093529981630809
    Total Energy =                       -386.0612089985474995
  Basis Set: (AUG-CC-PVTZ AUX)
    Blend: AUG-CC-PVTZ-RI
    Molecular point group: c1

    Geometry (in Angstrom), charge = 0, multiplicity = 1:

       Center              X                  Y                   Z               Mass
    ------------   -----------------  -----------------  -----------------  -----------------
         O           -2.785354220102    -0.917433532598    -0.740094835623    15.994914619570
         C           -2.770416220102    -0.045820532598     0.390825164377    12.000000000000
         C           -1.336887120102     0.212925067402     0.729794264377    12.000000000000
         C            3.586844779898    -0.231311532598     0.226842164377    12.000000000000
         C           -3.476088220102     1.267992467402     0.069624164377    12.000000000000
         C           -0.280747220102    -0.296652532598     0.117085164377    12.000000000000
         C            2.165497779898    -0.515187532598    -0.142951835623    12.000000000000
         C            1.091748779898    -0.028695532598     0.506795164377    12.000000000000
         C            4.323919779898     0.532361467402    -0.875741835623    12.000000000000
         H           -3.319437320102    -0.529713932598     1.217326464377     1.007825032230
         H           -1.197559220102     0.824025467402     1.653418164377     1.007825032230
         H            3.612629779898     0.344106467402     1.159433164377     1.007825032230
         H            4.113723779898    -1.174173532598     0.423508164377     1.007825032230
         H           -2.981827220102     1.739303467402    -0.782893835623     1.007825032230
         H           -4.528234220102     1.093650467402    -0.181829835623     1.007825032230
         H           -3.444090220102     1.952174467402     0.922300164377     1.007825032230
         H           -0.447526220102    -0.929253532598    -0.751779835623     1.007825032230
         H            2.005819779898    -1.146072532598    -1.019815835623     1.007825032230
         H            1.246617779898     0.604610467402     1.382726164377     1.007825032230
         H            4.313761779898    -0.031137532598    -1.813151835623     1.007825032230
         H            5.367415779898     0.713091467402    -0.602055835623     1.007825032230
         H            3.843756779898     1.497026467402    -1.058751835623     1.007825032230
         H           -3.718100220102    -1.061192532598    -0.974613835623     1.007825032230

  Basis Set: AUG-CC-PVTZ
    Blend: AUG-CC-PVTZ
  Basis Set: (AUG-CC-PVTZ AUX)
    Blend: AUG-CC-PVTZ-JKFIT
	 Reference Energy          =    -386.0612089985475563 [Eh]
	 Singles Energy            =      -0.0000000000000000 [Eh]
	 Same-Spin Energy          =      -0.4002328110824309 [Eh]
	 Opposite-Spin Energy      =      -1.3780866694129168 [Eh]
	 Correlation Energy        =      -1.7783194804953477 [Eh]
	 Total Energy              =    -387.8395284790428832 [Eh]

	 ================> DF-SCS-MP2 Energies <==================
	-----------------------------------------------------------
	 SCS Same-Spin Scale       =       0.3333333333333333 [-]
	 SCS Opposite-Spin Scale   =       1.2000000000000000 [-]
	 SCS Same-Spin Energy      =      -0.1334109370274770 [Eh]
	 SCS Opposite-Spin Energy  =      -1.6537040032955002 [Eh]
	 SCS Correlation Energy    =      -1.7871149403229771 [Eh]
	 SCS Total Energy          =    -387.8483239388705215 [Eh]
	-----------------------------------------------------------

  Dipole Moment: [D]
     X:    -1.1293      Y:     0.5921      Z:     0.5896     Total:     1.4049

*** Psi4 exiting successfully. Buy a developer a beer!
