                               Psi4 1.3.2 release

  ==> Input File <==

--------------------------------------------------------------------------
#psi4
#
memory 32 gb

molecule  {
0 1
  O       -2.7848290    -0.9154220    -0.7447340
  C       -2.7698910    -0.0438090     0.3861860
  C       -1.1540059     0.2255231     0.8237651
  C        3.5873700    -0.2293000     0.2222030
  C       -3.4755630     1.2700040     0.0649850
  C       -0.2802220    -0.2946410     0.1124460
  C        2.1660230    -0.5131760    -0.1475910
  C        1.0922740    -0.0266840     0.5021560
  C        4.3244450     0.5343730    -0.8803810
  H       -3.2865450    -0.5271910     1.2335890
  H       -1.1970340     0.8260370     1.6487790
  H        3.6131550     0.3461180     1.1547940
  H        4.1142490    -1.1721620     0.4188690
  H       -2.9813020     1.7413150    -0.7875330
  H       -4.5277090     1.0956620    -0.1864690
  H       -3.4435650     1.9541860     0.9176610
  H       -0.4470010    -0.9272420    -0.7564190
  H        2.0063450    -1.1440610    -1.0244550
  H        1.2471430     0.6066220     1.3780870
  H        4.3142870    -0.0291260    -1.8177910
  H        5.3679410     0.7151030    -0.6066950
  H        3.8442820     1.4990380    -1.0633910
  H       -3.7175750    -1.0591810    -0.9792530
units angstrom
no_reorient  #important for SAPT in psi4, default
symmetry c1  #important for SAPT in psi4, default
}

set PROPERTIES_ORIGIN ["COM"]
properties('MP2/aug-cc-pvtz', properties = ['dipole'])
--------------------------------------------------------------------------

    Molecular point group: c1
  Charge       = 0
  Multiplicity = 1
  Basis Set: AUG-CC-PVTZ
    Blend: AUG-CC-PVTZ
  Basis Set: (AUG-CC-PVTZ AUX)
    Blend: AUG-CC-PVTZ-JKFIT

    Orbital Energies [Eh]
    ---------------------

    Doubly Occupied:

       1A    -20.557442     2A    -11.288959     3A    -11.222012
       4A    -11.221256     5A    -11.219474     6A    -11.218475
       7A    -11.215456     8A    -11.211662     9A    -11.209711
      10A     -1.356151    11A     -1.109122    12A     -1.060127
      13A     -1.008318    14A     -0.967120    15A     -0.863071
      16A     -0.822760    17A     -0.762030    18A     -0.750316
      19A     -0.687066    20A     -0.644241    21A     -0.633975
      22A     -0.611836    23A     -0.588405    24A     -0.586331
      25A     -0.559540    26A     -0.541655    27A     -0.523698
      28A     -0.517920    29A     -0.507782    30A     -0.486090
      31A     -0.476533    32A     -0.452014    33A     -0.432824
      34A     -0.419778    35A     -0.310339

  @DF-RHF Final Energy:  -386.02651856536551

   => Energetics <=

    Nuclear Repulsion Energy =            417.9351977068829456
    One-Electron Energy =               -1351.8364506277935106
    Two-Electron Energy =                 547.8747343555450016
    Total Energy =                       -386.0265185653655635
  Basis Set: (AUG-CC-PVTZ AUX)
    Blend: AUG-CC-PVTZ-RI
    Molecular point group: c1

    Geometry (in Angstrom), charge = 0, multiplicity = 1:

       Center              X                  Y                   Z               Mass
    ------------   -----------------  -----------------  -----------------  -----------------
         O           -2.802965748547    -0.918445022569    -0.749645530404    15.994914619570
         C           -2.788027748547    -0.046832022569     0.381274469596    12.000000000000
         C           -1.172142648547     0.222500077431     0.818853569596    12.000000000000
         C            3.569233251453    -0.232323022569     0.217291469596    12.000000000000
         C           -3.493699748547     1.266980977431     0.060073469596    12.000000000000
         C           -0.298358748547    -0.297664022569     0.107534469596    12.000000000000
         C            2.147886251453    -0.516199022569    -0.152502530404    12.000000000000
         C            1.074137251453    -0.029707022569     0.497244469596    12.000000000000
         C            4.306308251453     0.531349977431    -0.885292530404    12.000000000000
         H           -3.304681748547    -0.530214022569     1.228677469596     1.007825032230
         H           -1.215170748547     0.823013977431     1.643867469596     1.007825032230
         H            3.595018251453     0.343094977431     1.149882469596     1.007825032230
         H            4.096112251453    -1.175185022569     0.413957469596     1.007825032230
         H           -2.999438748547     1.738291977431    -0.792444530404     1.007825032230
         H           -4.545845748547     1.092638977431    -0.191380530404     1.007825032230
         H           -3.461701748547     1.951162977431     0.912749469596     1.007825032230
         H           -0.465137748547    -0.930265022569    -0.761330530404     1.007825032230
         H            1.988208251453    -1.147084022569    -1.029366530404     1.007825032230
         H            1.229006251453     0.603598977431     1.373175469596     1.007825032230
         H            4.296150251453    -0.032149022569    -1.822702530404     1.007825032230
         H            5.349804251453     0.712079977431    -0.611606530404     1.007825032230
         H            3.826145251453     1.496014977431    -1.068302530404     1.007825032230
         H           -3.735711748547    -1.062204022569    -0.984164530404     1.007825032230

  Basis Set: AUG-CC-PVTZ
    Blend: AUG-CC-PVTZ
  Basis Set: (AUG-CC-PVTZ AUX)
    Blend: AUG-CC-PVTZ-JKFIT
	 Reference Energy          =    -386.0265185653655067 [Eh]
	 Singles Energy            =      -0.0000000000000000 [Eh]
	 Same-Spin Energy          =      -0.3992245486049562 [Eh]
	 Opposite-Spin Energy      =      -1.3770090277582354 [Eh]
	 Correlation Energy        =      -1.7762335763631916 [Eh]
	 Total Energy              =    -387.8027521417287176 [Eh]

	 ================> DF-SCS-MP2 Energies <==================
	-----------------------------------------------------------
	 SCS Same-Spin Scale       =       0.3333333333333333 [-]
	 SCS Opposite-Spin Scale   =       1.2000000000000000 [-]
	 SCS Same-Spin Energy      =      -0.1330748495349854 [Eh]
	 SCS Opposite-Spin Energy  =      -1.6524108333098824 [Eh]
	 SCS Correlation Energy    =      -1.7854856828448677 [Eh]
	 SCS Total Energy          =    -387.8120042482103713 [Eh]
	-----------------------------------------------------------

  Dipole Moment: [D]
     X:    -1.1282      Y:     0.6451      Z:     0.6150     Total:     1.4377

*** Psi4 exiting successfully. Buy a developer a beer!
