                               Psi4 1.4a3.dev225

  ==> Input File <==

--------------------------------------------------------------------------
#psi4
#
memory 32 gb

molecule  {
-1 1
  O       -1.6007150    -0.1046360     1.1589700
  O       -1.8247480     0.2557850    -1.0595740
  O        0.9980150     1.3323240     0.0674640
  O        2.4614550    -0.4137090     0.0564000
  C        0.1428070    -0.8965380    -0.2290110
  C       -1.1744150    -0.2029730    -0.1298180
  C        1.3336225     0.1252335    -0.0046126
  H        0.2115580    -1.6991150     0.5098460
  H        0.2355680    -1.3348830    -1.2264790
  H       -2.4411180     0.3988970     1.1281900
units angstrom
no_reorient  #important for SAPT in psi4, default
symmetry c1  #important for SAPT in psi4, default
}

set PROPERTIES_ORIGIN ["COM"]
properties('MP2/aug-cc-pvtz', properties = ['dipole'])
--------------------------------------------------------------------------

    Molecular point group: c1
  Charge       = -1
  Multiplicity = 1
  Basis Set: AUG-CC-PVTZ
    Blend: AUG-CC-PVTZ
  Basis Set: (AUG-CC-PVTZ AUX)
    Blend: AUG-CC-PVTZ-JKFIT

    Orbital Energies [Eh]
    ---------------------

    Doubly Occupied:

       1A    -20.477920     2A    -20.405422     3A    -20.312624
       4A    -20.311969     5A    -11.245220     6A    -11.164969
       7A    -11.085243     8A     -1.318148     9A     -1.210900
      10A     -1.187952    11A     -1.090954    12A     -0.873999
      13A     -0.680815    14A     -0.564088    15A     -0.556985
      16A     -0.521240    17A     -0.488313    18A     -0.445214
      19A     -0.436569    20A     -0.429515    21A     -0.404836
      22A     -0.350616    23A     -0.339117    24A     -0.313132
      25A     -0.230945    26A     -0.215780    27A     -0.212989

  @DF-RHF Final Energy:  -415.02979488964144

   => Energetics <=

    Nuclear Repulsion Energy =            289.1753268195367923
    One-Electron Energy =               -1154.6592977457503366
    Two-Electron Energy =                 450.4541760365720506
    Total Energy =                       -415.0297948896414368
  Basis Set: (AUG-CC-PVTZ AUX)
    Blend: AUG-CC-PVTZ-RI
    Molecular point group: c1

    Geometry (in Angstrom), charge = -1, multiplicity = 1:

       Center              X                  Y                   Z               Mass
    ------------   -----------------  -----------------  -----------------  -----------------
         O           -1.621670847991    -0.131467543827     1.162615492154    15.994914619570
         O           -1.845703847991     0.228953456173    -1.055928507846    15.994914619570
         O            0.977059152009     1.305492456173     0.071109492154    15.994914619570
         O            2.440499152009    -0.440540543827     0.060045492154    15.994914619570
         C            0.121851152009    -0.923369543827    -0.225365507846    12.000000000000
         C           -1.195370847991    -0.229804543827    -0.126172507846    12.000000000000
         C            1.312666652009     0.098401956173    -0.000967107846    12.000000000000
         H            0.190602152009    -1.725946543827     0.513491492154     1.007825032230
         H            0.214612152009    -1.361714543827    -1.222833507846     1.007825032230
         H           -2.462073847991     0.372065456173     1.131835492154     1.007825032230

  Basis Set: AUG-CC-PVTZ
    Blend: AUG-CC-PVTZ
  Basis Set: (AUG-CC-PVTZ AUX)
    Blend: AUG-CC-PVTZ-JKFIT
	 Reference Energy          =    -415.0297948896414368 [Eh]
	 Singles Energy            =      -0.0000000000000000 [Eh]
	 Same-Spin Energy          =      -0.4008515146729449 [Eh]
	 Opposite-Spin Energy      =      -1.1681937305728860 [Eh]
	 Correlation Energy        =      -1.5690452452458308 [Eh]
	 Total Energy              =    -416.5988401348872685 [Eh]

	 ================> DF-SCS-MP2 Energies <==================
	-----------------------------------------------------------
	 SCS Same-Spin Scale       =       0.3333333333333333 [-]
	 SCS Opposite-Spin Scale   =       1.2000000000000000 [-]
	 SCS Same-Spin Energy      =      -0.1336171715576483 [Eh]
	 SCS Opposite-Spin Energy  =      -1.4018324766874632 [Eh]
	 SCS Correlation Energy    =      -1.5354496482451114 [Eh]
	 SCS Total Energy          =    -416.5652445378865423 [Eh]
	-----------------------------------------------------------

  Dipole Moment: [D]
     X:    -6.0563      Y:    -2.3708      Z:     0.9834     Total:     6.5777

*** Psi4 exiting successfully. Buy a developer a beer!
