                               Psi4 1.3.2 release

  ==> Input File <==

--------------------------------------------------------------------------
#psi4
#
memory 32 gb

molecule  {
-1 1
  O       -1.6248440     0.4205080     1.0662040
  O       -1.8285700    -0.2634140    -1.0709070
  O        0.9874640     1.2716570    -0.4175620
  O        2.4715130    -0.3822350     0.1558140
  C        0.1438310    -0.9061850     0.1996810
  C       -1.1683160    -0.2561350    -0.0391410
  C        1.3578713     0.1134321     0.0019520
  H        0.2143420    -1.2704300     1.2280200
  H        0.2567200    -1.7478830    -0.4879250
  H       -2.4148060     0.8894050     0.7315680
units angstrom
no_reorient  #important for SAPT in psi4, default
symmetry c1  #important for SAPT in psi4, default
}

set PROPERTIES_ORIGIN ["COM"]
properties('MP2/aug-cc-pvtz', properties = ['dipole'])
--------------------------------------------------------------------------

    Molecular point group: c1
  Charge       = -1
  Multiplicity = 1
  Basis Set: AUG-CC-PVTZ
    Blend: AUG-CC-PVTZ
  Basis Set: (AUG-CC-PVTZ AUX)
    Blend: AUG-CC-PVTZ-JKFIT

    Orbital Energies [Eh]
    ---------------------

    Doubly Occupied:

       1A    -20.472229     2A    -20.406216     3A    -20.323248
       4A    -20.309940     5A    -11.245827     6A    -11.170382
       7A    -11.086511     8A     -1.313415     9A     -1.207492
      10A     -1.192978    11A     -1.089086    12A     -0.874966
      13A     -0.672308    14A     -0.563094    15A     -0.557256
      16A     -0.518366    17A     -0.488193    18A     -0.446818
      19A     -0.437943    20A     -0.429405    21A     -0.404743
      22A     -0.352754    23A     -0.339876    24A     -0.313686
      25A     -0.234396    26A     -0.215333    27A     -0.214925

  @DF-RHF Final Energy:  -415.02577410347988

   => Energetics <=

    Nuclear Repulsion Energy =            288.4572365593434711
    One-Electron Energy =               -1153.2032456499907767
    Two-Electron Energy =                 449.7202349871673732
    Total Energy =                       -415.0257741034798755
  Basis Set: (AUG-CC-PVTZ AUX)
    Blend: AUG-CC-PVTZ-RI
    Molecular point group: c1

    Geometry (in Angstrom), charge = -1, multiplicity = 1:

       Center              X                  Y                   Z               Mass
    ------------   -----------------  -----------------  -----------------  -----------------
         O           -1.645529404188     0.401025947128     1.074250145356    15.994914619570
         O           -1.849255404188    -0.282896052872    -1.062860854644    15.994914619570
         O            0.966778595812     1.252174947128    -0.409515854644    15.994914619570
         O            2.450827595812    -0.401717052872     0.163860145356    15.994914619570
         C            0.123145595812    -0.925667052872     0.207727145356    12.000000000000
         C           -1.189001404188    -0.275617052872    -0.031094854644    12.000000000000
         C            1.337185895812     0.093950047128     0.009998145356    12.000000000000
         H            0.193656595812    -1.289912052872     1.236066145356     1.007825032230
         H            0.236034595812    -1.767365052872    -0.479878854644     1.007825032230
         H           -2.435491404188     0.869922947128     0.739614145356     1.007825032230

  Basis Set: AUG-CC-PVTZ
    Blend: AUG-CC-PVTZ
  Basis Set: (AUG-CC-PVTZ AUX)
    Blend: AUG-CC-PVTZ-JKFIT
	 Reference Energy          =    -415.0257741034798755 [Eh]
	 Singles Energy            =      -0.0000000000000000 [Eh]
	 Same-Spin Energy          =      -0.4013811320024153 [Eh]
	 Opposite-Spin Energy      =      -1.1694149999192176 [Eh]
	 Correlation Energy        =      -1.5707961319216328 [Eh]
	 Total Energy              =    -416.5965702354014866 [Eh]

	 ================> DF-SCS-MP2 Energies <==================
	-----------------------------------------------------------
	 SCS Same-Spin Scale       =       0.3333333333333333 [-]
	 SCS Opposite-Spin Scale   =       1.2000000000000000 [-]
	 SCS Same-Spin Energy      =      -0.1337937106674718 [Eh]
	 SCS Opposite-Spin Energy  =      -1.4032979999030610 [Eh]
	 SCS Correlation Energy    =      -1.5370917105705328 [Eh]
	 SCS Total Energy          =    -416.5628658140503831 [Eh]
	-----------------------------------------------------------

  Dipole Moment: [D]
     X:    -5.5713      Y:    -1.8656      Z:     1.8432     Total:     6.1577

*** Psi4 exiting successfully. Buy a developer a beer!
