                               Psi4 1.3.2 release

  ==> Input File <==

--------------------------------------------------------------------------
#psi4
#
memory 32 gb

molecule  {
-1 1
  O       -1.6248440     0.4205080     1.0662040
  O       -1.8285700    -0.2634140    -1.0709070
  O        0.9874640     1.2716570    -0.4175620
  O        2.4715130    -0.3822350     0.1558140
  C        0.1438310    -0.9061850     0.1996810
  C       -1.1683160    -0.2561350    -0.0391410
  C        1.4159589     0.1861239    -0.0662121
  H        0.2143420    -1.2704300     1.2280200
  H        0.2567200    -1.7478830    -0.4879250
  H       -2.4148060     0.8894050     0.7315680
units angstrom
no_reorient  #important for SAPT in psi4, default
symmetry c1  #important for SAPT in psi4, default
}

set PROPERTIES_ORIGIN ["COM"]
properties('MP2/aug-cc-pvtz', properties = ['dipole'])
--------------------------------------------------------------------------

    Molecular point group: c1
  Charge       = -1
  Multiplicity = 1
  Basis Set: AUG-CC-PVTZ
    Blend: AUG-CC-PVTZ
  Basis Set: (AUG-CC-PVTZ AUX)
    Blend: AUG-CC-PVTZ-JKFIT

    Orbital Energies [Eh]
    ---------------------

    Doubly Occupied:

       1A    -20.465773     2A    -20.397058     3A    -20.327774
       4A    -20.327340     5A    -11.234810     6A    -11.177052
       7A    -11.067815     8A     -1.306118     9A     -1.216784
      10A     -1.199614    11A     -1.132061    12A     -0.853347
      13A     -0.657811    14A     -0.555075    15A     -0.544899
      16A     -0.511165    17A     -0.490150    18A     -0.446076
      19A     -0.437224    20A     -0.431694    21A     -0.413716
      22A     -0.367666    23A     -0.335394    24A     -0.306446
      25A     -0.254199    26A     -0.235641    27A     -0.194706

  @DF-RHF Final Energy:  -415.02435614881921

   => Energetics <=

    Nuclear Repulsion Energy =            288.4117871839173404
    One-Electron Energy =               -1153.0974660491256145
    Two-Electron Energy =                 449.6613227163890656
    Total Energy =                       -415.0243561488192086
  Basis Set: (AUG-CC-PVTZ AUX)
    Blend: AUG-CC-PVTZ-RI
    Molecular point group: c1

    Geometry (in Angstrom), charge = -1, multiplicity = 1:

       Center              X                  Y                   Z               Mass
    ------------   -----------------  -----------------  -----------------  -----------------
         O           -1.652296685685     0.392557257199     1.082191352304    15.994914619570
         O           -1.856022685685    -0.291364742801    -1.054919647696    15.994914619570
         O            0.960011314315     1.243706257199    -0.401574647696    15.994914619570
         O            2.444060314315    -0.410185742801     0.171801352304    15.994914619570
         C            0.116378314315    -0.934135742801     0.215668352304    12.000000000000
         C           -1.195768685685    -0.284085742801    -0.023153647696    12.000000000000
         C            1.388506214315     0.158173157199    -0.050224747696    12.000000000000
         H            0.186889314315    -1.298380742801     1.244007352304     1.007825032230
         H            0.229267314315    -1.775833742801    -0.471937647696     1.007825032230
         H           -2.442258685685     0.861454257199     0.747555352304     1.007825032230

  Basis Set: AUG-CC-PVTZ
    Blend: AUG-CC-PVTZ
  Basis Set: (AUG-CC-PVTZ AUX)
    Blend: AUG-CC-PVTZ-JKFIT
	 Reference Energy          =    -415.0243561488192086 [Eh]
	 Singles Energy            =      -0.0000000000000000 [Eh]
	 Same-Spin Energy          =      -0.4010274013485291 [Eh]
	 Opposite-Spin Energy      =      -1.1672279707209752 [Eh]
	 Correlation Energy        =      -1.5682553720695043 [Eh]
	 Total Energy              =    -416.5926115208887381 [Eh]

	 ================> DF-SCS-MP2 Energies <==================
	-----------------------------------------------------------
	 SCS Same-Spin Scale       =       0.3333333333333333 [-]
	 SCS Opposite-Spin Scale   =       1.2000000000000000 [-]
	 SCS Same-Spin Energy      =      -0.1336758004495097 [Eh]
	 SCS Opposite-Spin Energy  =      -1.4006735648651703 [Eh]
	 SCS Correlation Energy    =      -1.5343493653146800 [Eh]
	 SCS Total Energy          =    -416.5587055141338624 [Eh]
	-----------------------------------------------------------

  Dipole Moment: [D]
     X:    -4.8375      Y:    -1.1256      Z:     1.6211     Total:     5.2246

*** Psi4 exiting successfully. Buy a developer a beer!
