                               Psi4 1.4a3.dev225

  ==> Input File <==

--------------------------------------------------------------------------
#psi4
#
memory 32 gb

molecule  {
-1 1
  O       -1.6007150    -0.1046360     1.1589700
  O       -1.8247480     0.2557850    -1.0595740
  O        0.9980150     1.3323240     0.0674640
  O        2.4614550    -0.4137090     0.0564000
  C        0.1428070    -0.8965380    -0.2290110
  C       -1.2185590    -0.1797296    -0.1264937
  C        1.3185970     0.1123410    -0.0074440
  H        0.2115580    -1.6991150     0.5098460
  H        0.2355680    -1.3348830    -1.2264790
  H       -2.4411180     0.3988970     1.1281900
units angstrom
no_reorient  #important for SAPT in psi4, default
symmetry c1  #important for SAPT in psi4, default
}

set PROPERTIES_ORIGIN ["COM"]
properties('MP2/aug-cc-pvtz', properties = ['dipole'])
--------------------------------------------------------------------------

    Molecular point group: c1
  Charge       = -1
  Multiplicity = 1
  Basis Set: AUG-CC-PVTZ
    Blend: AUG-CC-PVTZ
  Basis Set: (AUG-CC-PVTZ AUX)
    Blend: AUG-CC-PVTZ-JKFIT

    Orbital Energies [Eh]
    ---------------------

    Doubly Occupied:

       1A    -20.483961     2A    -20.410216     3A    -20.308338
       4A    -20.307281     5A    -11.243259     6A    -11.160227
       7A    -11.085662     8A     -1.333266     9A     -1.232088
      10A     -1.179198    11A     -1.080527    12A     -0.862303
      13A     -0.685885    14A     -0.573243    15A     -0.558187
      16A     -0.525440    17A     -0.494001    18A     -0.450175
      19A     -0.431904    20A     -0.428425    21A     -0.399507
      22A     -0.354972    23A     -0.338120    24A     -0.312120
      25A     -0.224187    26A     -0.214939    27A     -0.206981

  @DF-RHF Final Energy:  -415.02822343993756

   => Energetics <=

    Nuclear Repulsion Energy =            289.2270604740145359
    One-Electron Energy =               -1154.7417387763878196
    Two-Electron Energy =                 450.4864548624357781
    Total Energy =                       -415.0282234399375625
  Basis Set: (AUG-CC-PVTZ AUX)
    Blend: AUG-CC-PVTZ-RI
    Molecular point group: c1

    Geometry (in Angstrom), charge = -1, multiplicity = 1:

       Center              X                  Y                   Z               Mass
    ------------   -----------------  -----------------  -----------------  -----------------
         O           -1.614777523726    -0.132673437237     1.162558068658    15.994914619570
         O           -1.838810523726     0.227747562763    -1.055985931342    15.994914619570
         O            0.983952476274     1.304286562763     0.071052068658    15.994914619570
         O            2.447392476274    -0.441746437237     0.059988068658    15.994914619570
         C            0.128744476274    -0.924575437237    -0.225422931342    12.000000000000
         C           -1.232621523726    -0.207767037237    -0.122905631342    12.000000000000
         C            1.304534476274     0.084303562763    -0.003855931342    12.000000000000
         H            0.197495476274    -1.727152437237     0.513434068658     1.007825032230
         H            0.221505476274    -1.362920437237    -1.222890931342     1.007825032230
         H           -2.455180523726     0.370859562763     1.131778068658     1.007825032230

  Basis Set: AUG-CC-PVTZ
    Blend: AUG-CC-PVTZ
  Basis Set: (AUG-CC-PVTZ AUX)
    Blend: AUG-CC-PVTZ-JKFIT
	 Reference Energy          =    -415.0282234399375625 [Eh]
	 Singles Energy            =      -0.0000000000000000 [Eh]
	 Same-Spin Energy          =      -0.4001013697550549 [Eh]
	 Opposite-Spin Energy      =      -1.1670611692307444 [Eh]
	 Correlation Energy        =      -1.5671625389857993 [Eh]
	 Total Energy              =    -416.5953859789233888 [Eh]

	 ================> DF-SCS-MP2 Energies <==================
	-----------------------------------------------------------
	 SCS Same-Spin Scale       =       0.3333333333333333 [-]
	 SCS Opposite-Spin Scale   =       1.2000000000000000 [-]
	 SCS Same-Spin Energy      =      -0.1333671232516850 [Eh]
	 SCS Opposite-Spin Energy  =      -1.4004734030768933 [Eh]
	 SCS Correlation Energy    =      -1.5338405263285781 [Eh]
	 SCS Total Energy          =    -416.5620639662661233 [Eh]
	-----------------------------------------------------------

  Dipole Moment: [D]
     X:    -6.5509      Y:    -2.3509      Z:     0.9779     Total:     7.0283

*** Psi4 exiting successfully. Buy a developer a beer!
