                               Psi4 1.3.2 release

  ==> Input File <==

--------------------------------------------------------------------------
#psi4
#
memory 32 gb

molecule  {
-1 1
  O       -1.6248440     0.4205080     1.0662040
  O       -1.8285700    -0.2634140    -1.0709070
  O        0.9874640     1.2716570    -0.4175620
  O        2.4715130    -0.3822350     0.1558140
  C        0.1438310    -0.9061850     0.1996810
  C       -1.1683160    -0.2561350    -0.0391410
  C        1.3410260     0.1217830    -0.0505500
  H        0.1988915    -1.1619887     1.2611235
  H        0.2567200    -1.7478830    -0.4879250
  H       -2.4148060     0.8894050     0.7315680
units angstrom
no_reorient  #important for SAPT in psi4, default
symmetry c1  #important for SAPT in psi4, default
}

set PROPERTIES_ORIGIN ["COM"]
properties('MP2/aug-cc-pvtz', properties = ['dipole'])
--------------------------------------------------------------------------

    Molecular point group: c1
  Charge       = -1
  Multiplicity = 1
  Basis Set: AUG-CC-PVTZ
    Blend: AUG-CC-PVTZ
  Basis Set: (AUG-CC-PVTZ AUX)
    Blend: AUG-CC-PVTZ-JKFIT

    Orbital Energies [Eh]
    ---------------------

    Doubly Occupied:

       1A    -20.473370     2A    -20.406201     3A    -20.316769
       4A    -20.316324     5A    -11.244917     6A    -11.170191
       7A    -11.086432     8A     -1.314348     9A     -1.208058
      10A     -1.188446    11A     -1.094127    12A     -0.876444
      13A     -0.671560    14A     -0.564501    15A     -0.556089
      16A     -0.515935    17A     -0.488715    18A     -0.447792
      19A     -0.444738    20A     -0.426053    21A     -0.404333
      22A     -0.354610    23A     -0.339999    24A     -0.312755
      25A     -0.235021    26A     -0.216566    27A     -0.215011

  @DF-RHF Final Energy:  -415.02754879619346

   => Energetics <=

    Nuclear Repulsion Energy =            288.7235641224991696
    One-Electron Energy =               -1153.7236104405587866
    Two-Electron Energy =                 449.9724975218661598
    Total Energy =                       -415.0275487961934573
  Basis Set: (AUG-CC-PVTZ AUX)
    Blend: AUG-CC-PVTZ-RI
    Molecular point group: c1

    Geometry (in Angstrom), charge = -1, multiplicity = 1:

       Center              X                  Y                   Z               Mass
    ------------   -----------------  -----------------  -----------------  -----------------
         O           -1.643415730621     0.398992022048     1.080042798874    15.994914619570
         O           -1.847141730621    -0.284929977952    -1.057068201126    15.994914619570
         O            0.968892269379     1.250141022048    -0.403723201126    15.994914619570
         O            2.452941269379    -0.403750977952     0.169652798874    15.994914619570
         C            0.125259269379    -0.927700977952     0.213519798874    12.000000000000
         C           -1.186887730621    -0.277650977952    -0.025302201126    12.000000000000
         C            1.322454269379     0.100267022048    -0.036711201126    12.000000000000
         H            0.180319769379    -1.183504677952     1.274962298874     1.007825032230
         H            0.238148269379    -1.769398977952    -0.474086201126     1.007825032230
         H           -2.433377730621     0.867889022048     0.745406798874     1.007825032230

  Basis Set: AUG-CC-PVTZ
    Blend: AUG-CC-PVTZ
  Basis Set: (AUG-CC-PVTZ AUX)
    Blend: AUG-CC-PVTZ-JKFIT
	 Reference Energy          =    -415.0275487961934573 [Eh]
	 Singles Energy            =      -0.0000000000000000 [Eh]
	 Same-Spin Energy          =      -0.4014429666214303 [Eh]
	 Opposite-Spin Energy      =      -1.1693117254146395 [Eh]
	 Correlation Energy        =      -1.5707546920360698 [Eh]
	 Total Energy              =    -416.5983034882295328 [Eh]

	 ================> DF-SCS-MP2 Energies <==================
	-----------------------------------------------------------
	 SCS Same-Spin Scale       =       0.3333333333333333 [-]
	 SCS Opposite-Spin Scale   =       1.2000000000000000 [-]
	 SCS Same-Spin Energy      =      -0.1338143222071434 [Eh]
	 SCS Opposite-Spin Energy  =      -1.4031740704975673 [Eh]
	 SCS Correlation Energy    =      -1.5369883927047108 [Eh]
	 SCS Total Energy          =    -416.5645371888981572 [Eh]
	-----------------------------------------------------------

  Dipole Moment: [D]
     X:    -5.7646      Y:    -1.6079      Z:     1.7341     Total:     6.2309

*** Psi4 exiting successfully. Buy a developer a beer!
