                               Psi4 1.3.2 release

  ==> Input File <==

--------------------------------------------------------------------------
#psi4
#
memory 32 gb

molecule  {
-1 1
  O       -1.6248440     0.4205080     1.0662040
  O       -1.8285700    -0.2634140    -1.0709070
  O        0.9874640     1.2716570    -0.4175620
  O        2.4715130    -0.3822350     0.1558140
  C        0.1438310    -0.9061850     0.1996810
  C       -1.1916080    -0.3008074    -0.0271477
  C        1.3410260     0.1217830    -0.0505500
  H        0.2143420    -1.2704300     1.2280200
  H        0.2567200    -1.7478830    -0.4879250
  H       -2.4148060     0.8894050     0.7315680
units angstrom
no_reorient  #important for SAPT in psi4, default
symmetry c1  #important for SAPT in psi4, default
}

set PROPERTIES_ORIGIN ["COM"]
properties('MP2/aug-cc-pvtz', properties = ['dipole'])
--------------------------------------------------------------------------

    Molecular point group: c1
  Charge       = -1
  Multiplicity = 1
  Basis Set: AUG-CC-PVTZ
    Blend: AUG-CC-PVTZ
  Basis Set: (AUG-CC-PVTZ AUX)
    Blend: AUG-CC-PVTZ-JKFIT

    Orbital Energies [Eh]
    ---------------------

    Doubly Occupied:

       1A    -20.471963     2A    -20.409094     3A    -20.316495
       4A    -20.316006     5A    -11.246100     6A    -11.170995
       7A    -11.086872     8A     -1.312894     9A     -1.208963
      10A     -1.187887    11A     -1.093562    12A     -0.875763
      13A     -0.671377    14A     -0.563680    15A     -0.557217
      16A     -0.518619    17A     -0.487601    18A     -0.447554
      19A     -0.437958    20A     -0.426762    21A     -0.404967
      22A     -0.352340    23A     -0.340712    24A     -0.314788
      25A     -0.234826    26A     -0.216481    27A     -0.215816

  @DF-RHF Final Energy:  -415.02673958272607

   => Energetics <=

    Nuclear Repulsion Energy =            288.2526933637616366
    One-Electron Energy =               -1152.7842799587122045
    Two-Electron Energy =                 449.5048470122245021
    Total Energy =                       -415.0267395827260657
  Basis Set: (AUG-CC-PVTZ AUX)
    Blend: AUG-CC-PVTZ-RI
    Molecular point group: c1

    Geometry (in Angstrom), charge = -1, multiplicity = 1:

       Center              X                  Y                   Z               Mass
    ------------   -----------------  -----------------  -----------------  -----------------
         O           -1.640853356156     0.405257449461     1.078969461974    15.994914619570
         O           -1.844579356156    -0.278664550539    -1.058141538026    15.994914619570
         O            0.971454643844     1.256406449461    -0.404796538026    15.994914619570
         O            2.455503643844    -0.397485550539     0.168579461974    15.994914619570
         C            0.127821643844    -0.921435550539     0.212446461974    12.000000000000
         C           -1.207617356156    -0.316057950539    -0.014382238026    12.000000000000
         C            1.325016643844     0.106532449461    -0.037784538026    12.000000000000
         H            0.198332643844    -1.285680550539     1.240785461974     1.007825032230
         H            0.240710643844    -1.763133550539    -0.475159538026     1.007825032230
         H           -2.430815356156     0.874154449461     0.744333461974     1.007825032230

  Basis Set: AUG-CC-PVTZ
    Blend: AUG-CC-PVTZ
  Basis Set: (AUG-CC-PVTZ AUX)
    Blend: AUG-CC-PVTZ-JKFIT
	 Reference Energy          =    -415.0267395827260657 [Eh]
	 Singles Energy            =      -0.0000000000000000 [Eh]
	 Same-Spin Energy          =      -0.4015113654143697 [Eh]
	 Opposite-Spin Energy      =      -1.1696916830930522 [Eh]
	 Correlation Energy        =      -1.5712030485074218 [Eh]
	 Total Energy              =    -416.5979426312334795 [Eh]

	 ================> DF-SCS-MP2 Energies <==================
	-----------------------------------------------------------
	 SCS Same-Spin Scale       =       0.3333333333333333 [-]
	 SCS Opposite-Spin Scale   =       1.2000000000000000 [-]
	 SCS Same-Spin Energy      =      -0.1338371218047899 [Eh]
	 SCS Opposite-Spin Energy  =      -1.4036300197116625 [Eh]
	 SCS Correlation Energy    =      -1.5374671415164523 [Eh]
	 SCS Total Energy          =    -416.5642067242425242 [Eh]
	-----------------------------------------------------------

  Dipole Moment: [D]
     X:    -5.8079      Y:    -1.7218      Z:     1.7083     Total:     6.2940

*** Psi4 exiting successfully. Buy a developer a beer!
