                               Psi4 1.4a3.dev225

  ==> Input File <==

--------------------------------------------------------------------------
#psi4
#
memory 32 gb

molecule  {
-1 1
  O       -1.6007150    -0.1046360     1.1589700
  O       -1.8247480     0.2557850    -1.0595740
  O        0.9980150     1.3323240     0.0674640
  O        2.4614550    -0.4137090     0.0564000
  C        0.1428070    -0.8965380    -0.2290110
  C       -1.1302710    -0.2262164    -0.1331423
  C        1.3185970     0.1123410    -0.0074440
  H        0.2115580    -1.6991150     0.5098460
  H        0.2355680    -1.3348830    -1.2264790
  H       -2.4411180     0.3988970     1.1281900
units angstrom
no_reorient  #important for SAPT in psi4, default
symmetry c1  #important for SAPT in psi4, default
}

set PROPERTIES_ORIGIN ["COM"]
properties('MP2/aug-cc-pvtz', properties = ['dipole'])
--------------------------------------------------------------------------

    Molecular point group: c1
  Charge       = -1
  Multiplicity = 1
  Basis Set: AUG-CC-PVTZ
    Blend: AUG-CC-PVTZ
  Basis Set: (AUG-CC-PVTZ AUX)
    Blend: AUG-CC-PVTZ-JKFIT

    Orbital Energies [Eh]
    ---------------------

    Doubly Occupied:

       1A    -20.474374     2A    -20.403889     3A    -20.314461
       4A    -20.313903     5A    -11.251423     6A    -11.169302
       7A    -11.089834     8A     -1.305715     9A     -1.193178
      10A     -1.185568    11A     -1.087072    12A     -0.896437
      13A     -0.681092    14A     -0.566188    15A     -0.556320
      16A     -0.522462    17A     -0.483074    18A     -0.447527
      19A     -0.439991    20A     -0.427822    21A     -0.403060
      22A     -0.348866    23A     -0.331321    24A     -0.313020
      25A     -0.230959    26A     -0.222894    27A     -0.212433

  @DF-RHF Final Energy:  -415.02102987399923

   => Energetics <=

    Nuclear Repulsion Energy =            289.1980814583185975
    One-Electron Energy =               -1154.6938500537994514
    Two-Electron Energy =                 450.4747387214816285
    Total Energy =                       -415.0210298739992254
  Basis Set: (AUG-CC-PVTZ AUX)
    Blend: AUG-CC-PVTZ-RI
    Molecular point group: c1

    Geometry (in Angstrom), charge = -1, multiplicity = 1:

       Center              X                  Y                   Z               Mass
    ------------   -----------------  -----------------  -----------------  -----------------
         O           -1.625063191388    -0.127257664137     1.163332639268    15.994914619570
         O           -1.849096191388     0.233163335863    -1.055211360732    15.994914619570
         O            0.973666808612     1.309702335863     0.071826639268    15.994914619570
         O            2.437106808612    -0.436330664137     0.060762639268    15.994914619570
         C            0.118458808612    -0.919159664137    -0.224648360732    12.000000000000
         C           -1.154619191388    -0.248838064137    -0.128779660732    12.000000000000
         C            1.294248808612     0.089719335863    -0.003081360732    12.000000000000
         H            0.187209808612    -1.721736664137     0.514208639268     1.007825032230
         H            0.211219808612    -1.357504664137    -1.222116360732     1.007825032230
         H           -2.465466191388     0.376275335863     1.132552639268     1.007825032230

  Basis Set: AUG-CC-PVTZ
    Blend: AUG-CC-PVTZ
  Basis Set: (AUG-CC-PVTZ AUX)
    Blend: AUG-CC-PVTZ-JKFIT
	 Reference Energy          =    -415.0210298739992254 [Eh]
	 Singles Energy            =      -0.0000000000000000 [Eh]
	 Same-Spin Energy          =      -0.4024222008984064 [Eh]
	 Opposite-Spin Energy      =      -1.1713081158902283 [Eh]
	 Correlation Energy        =      -1.5737303167886347 [Eh]
	 Total Energy              =    -416.5947601907878379 [Eh]

	 ================> DF-SCS-MP2 Energies <==================
	-----------------------------------------------------------
	 SCS Same-Spin Scale       =       0.3333333333333333 [-]
	 SCS Opposite-Spin Scale   =       1.2000000000000000 [-]
	 SCS Same-Spin Energy      =      -0.1341407336328021 [Eh]
	 SCS Opposite-Spin Energy  =      -1.4055697390682740 [Eh]
	 SCS Correlation Energy    =      -1.5397104727010762 [Eh]
	 SCS Total Energy          =    -416.5607403467002996 [Eh]
	-----------------------------------------------------------

  Dipole Moment: [D]
     X:    -5.8565      Y:    -2.5565      Z:     0.9388     Total:     6.4587

*** Psi4 exiting successfully. Buy a developer a beer!
