                               Psi4 1.3.2 release

  ==> Input File <==

--------------------------------------------------------------------------
#psi4
#
memory 32 gb

molecule  {
-1 1
  O       -1.6248440     0.4205080     1.0662040
  O       -1.8285700    -0.2634140    -1.0709070
  O        0.9874640     1.2716570    -0.4175620
  O        2.4715130    -0.3822350     0.1558140
  C        0.1438310    -0.9061850     0.1996810
  C       -1.1537308    -0.2466799    -0.0879248
  C        1.3410260     0.1217830    -0.0505500
  H        0.2143420    -1.2704300     1.2280200
  H        0.2567200    -1.7478830    -0.4879250
  H       -2.4148060     0.8894050     0.7315680
units angstrom
no_reorient  #important for SAPT in psi4, default
symmetry c1  #important for SAPT in psi4, default
}

set PROPERTIES_ORIGIN ["COM"]
properties('MP2/aug-cc-pvtz', properties = ['dipole'])
--------------------------------------------------------------------------

    Molecular point group: c1
  Charge       = -1
  Multiplicity = 1
  Basis Set: AUG-CC-PVTZ
    Blend: AUG-CC-PVTZ
  Basis Set: (AUG-CC-PVTZ AUX)
    Blend: AUG-CC-PVTZ-JKFIT

    Orbital Energies [Eh]
    ---------------------

    Doubly Occupied:

       1A    -20.461291     2A    -20.414733     3A    -20.317673
       4A    -20.315692     5A    -11.244674     6A    -11.170140
       7A    -11.086624     8A     -1.312322     9A     -1.214710
      10A     -1.188684    11A     -1.094402    12A     -0.875050
      13A     -0.659604    14A     -0.563348    15A     -0.554676
      16A     -0.521513    17A     -0.487177    18A     -0.454602
      19A     -0.434804    20A     -0.424554    21A     -0.407488
      22A     -0.355662    23A     -0.344933    24A     -0.317445
      25A     -0.235769    26A     -0.216737    27A     -0.215659

  @DF-RHF Final Energy:  -415.02730922371427

   => Energetics <=

    Nuclear Repulsion Energy =            288.7469303512540364
    One-Electron Energy =               -1153.7685446481320923
    Two-Electron Energy =                 449.9943050731637868
    Total Energy =                       -415.0273092237142691
  Basis Set: (AUG-CC-PVTZ AUX)
    Blend: AUG-CC-PVTZ-RI
    Molecular point group: c1

    Geometry (in Angstrom), charge = -1, multiplicity = 1:

       Center              X                  Y                   Z               Mass
    ------------   -----------------  -----------------  -----------------  -----------------
         O           -1.645266099577     0.398951524801     1.086050073745    15.994914619570
         O           -1.848992099577    -0.284970475199    -1.051060926255    15.994914619570
         O            0.967041900423     1.250100524801    -0.397715926255    15.994914619570
         O            2.451090900423    -0.403791475199     0.175660073745    15.994914619570
         C            0.123408900423    -0.927741475199     0.219527073745    12.000000000000
         C           -1.174152899577    -0.268236375199    -0.068078726255    12.000000000000
         C            1.320603900423     0.100226524801    -0.030703926255    12.000000000000
         H            0.193919900423    -1.291986475199     1.247866073745     1.007825032230
         H            0.236297900423    -1.769439475199    -0.468078926255     1.007825032230
         H           -2.435228099577     0.867848524801     0.751414073745     1.007825032230

  Basis Set: AUG-CC-PVTZ
    Blend: AUG-CC-PVTZ
  Basis Set: (AUG-CC-PVTZ AUX)
    Blend: AUG-CC-PVTZ-JKFIT
	 Reference Energy          =    -415.0273092237142691 [Eh]
	 Singles Energy            =      -0.0000000000000000 [Eh]
	 Same-Spin Energy          =      -0.4009468909425817 [Eh]
	 Opposite-Spin Energy      =      -1.1687338052622191 [Eh]
	 Correlation Energy        =      -1.5696806962048009 [Eh]
	 Total Energy              =    -416.5969899199190536 [Eh]

	 ================> DF-SCS-MP2 Energies <==================
	-----------------------------------------------------------
	 SCS Same-Spin Scale       =       0.3333333333333333 [-]
	 SCS Opposite-Spin Scale   =       1.2000000000000000 [-]
	 SCS Same-Spin Energy      =      -0.1336489636475272 [Eh]
	 SCS Opposite-Spin Energy  =      -1.4024805663146629 [Eh]
	 SCS Correlation Energy    =      -1.5361295299621902 [Eh]
	 SCS Total Energy          =    -416.5634387536764507 [Eh]
	-----------------------------------------------------------

  Dipole Moment: [D]
     X:    -5.7552      Y:    -1.7612      Z:     1.3595     Total:     6.1703

*** Psi4 exiting successfully. Buy a developer a beer!
