                               Psi4 1.3.2 release

  ==> Input File <==

--------------------------------------------------------------------------
#psi4
#
memory 32 gb

molecule  {
-1 1
  O       -1.6248440     0.4205080     1.0662040
  O       -1.8285700    -0.2634140    -1.0709070
  O        0.9874640     1.2716570    -0.4175620
  O        2.4715130    -0.3822350     0.1558140
  C        0.1438310    -0.9061850     0.1996810
  C       -1.1198375    -0.2301909    -0.1843821
  C        1.3410260     0.1217830    -0.0505500
  H        0.2143420    -1.2704300     1.2280200
  H        0.2567200    -1.7478830    -0.4879250
  H       -2.4148060     0.8894050     0.7315680
units angstrom
no_reorient  #important for SAPT in psi4, default
symmetry c1  #important for SAPT in psi4, default
}

set PROPERTIES_ORIGIN ["COM"]
properties('MP2/aug-cc-pvtz', properties = ['dipole'])
--------------------------------------------------------------------------

    Molecular point group: c1
  Charge       = -1
  Multiplicity = 1
  Basis Set: AUG-CC-PVTZ
    Blend: AUG-CC-PVTZ
  Basis Set: (AUG-CC-PVTZ AUX)
    Blend: AUG-CC-PVTZ-JKFIT

    Orbital Energies [Eh]
    ---------------------

    Doubly Occupied:

       1A    -20.434816     2A    -20.430326     3A    -20.319749
       4A    -20.315980     5A    -11.243281     6A    -11.170567
       7A    -11.089358     8A     -1.339073     9A     -1.196573
      10A     -1.189150    11A     -1.095807    12A     -0.875964
      13A     -0.641642    14A     -0.564694    15A     -0.555429
      16A     -0.526949    17A     -0.490283    18A     -0.464100
      19A     -0.429600    20A     -0.423835    21A     -0.410588
      22A     -0.356488    23A     -0.345490    24A     -0.314141
      25A     -0.237209    26A     -0.218054    27A     -0.215971

  @DF-RHF Final Energy:  -415.00914964579039

   => Energetics <=

    Nuclear Repulsion Energy =            289.0747244013982140
    One-Electron Energy =               -1154.3775145933072963
    Two-Electron Energy =                 450.2936405461186382
    Total Energy =                       -415.0091496457903872
  Basis Set: (AUG-CC-PVTZ AUX)
    Blend: AUG-CC-PVTZ-RI
    Molecular point group: c1

    Geometry (in Angstrom), charge = -1, multiplicity = 1:

       Center              X                  Y                   Z               Mass
    ------------   -----------------  -----------------  -----------------  -----------------
         O           -1.649214713428     0.397030534700     1.097287475558    15.994914619570
         O           -1.852940713428    -0.286891465300    -1.039823524442    15.994914619570
         O            0.963093286572     1.248179534700    -0.386478524442    15.994914619570
         O            2.447142286572    -0.405712465300     0.186897475558    15.994914619570
         C            0.119460286572    -0.929662465300     0.230764475558    12.000000000000
         C           -1.144208213428    -0.253668365300    -0.153298624442    12.000000000000
         C            1.316655286572     0.098305534700    -0.019466524442    12.000000000000
         H            0.189971286572    -1.293907465300     1.259103475558     1.007825032230
         H            0.232349286572    -1.771360465300    -0.456841524442     1.007825032230
         H           -2.439176713428     0.865927534700     0.762651475558     1.007825032230

  Basis Set: AUG-CC-PVTZ
    Blend: AUG-CC-PVTZ
  Basis Set: (AUG-CC-PVTZ AUX)
    Blend: AUG-CC-PVTZ-JKFIT
	 Reference Energy          =    -415.0091496457903872 [Eh]
	 Singles Energy            =      -0.0000000000000000 [Eh]
	 Same-Spin Energy          =      -0.4007712214358143 [Eh]
	 Opposite-Spin Energy      =      -1.1689408597305224 [Eh]
	 Correlation Energy        =      -1.5697120811663368 [Eh]
	 Total Energy              =    -416.5788617269567453 [Eh]

	 ================> DF-SCS-MP2 Energies <==================
	-----------------------------------------------------------
	 SCS Same-Spin Scale       =       0.3333333333333333 [-]
	 SCS Opposite-Spin Scale   =       1.2000000000000000 [-]
	 SCS Same-Spin Energy      =      -0.1335904071452714 [Eh]
	 SCS Opposite-Spin Energy  =      -1.4027290316766268 [Eh]
	 SCS Correlation Energy    =      -1.5363194388218981 [Eh]
	 SCS Total Energy          =    -416.5454690846123071 [Eh]
	-----------------------------------------------------------

  Dipole Moment: [D]
     X:    -5.5985      Y:    -1.9962      Z:     0.5766     Total:     5.9716

*** Psi4 exiting successfully. Buy a developer a beer!
