                               Psi4 1.4a3.dev225

  ==> Input File <==

--------------------------------------------------------------------------
#psi4
#
memory 32 gb

molecule  {
-1 1
  O       -1.6007150    -0.1046360     1.1589700
  O       -1.8247480     0.2557850    -1.0595740
  O        0.9980150     1.3323240     0.0674640
  O        2.4614550    -0.4137090     0.0564000
  C        0.1428070    -0.8965380    -0.2290110
  C       -1.1744150    -0.2029730    -0.1298180
  C        1.2810332     0.0801097    -0.0145225
  H        0.2115580    -1.6991150     0.5098460
  H        0.2355680    -1.3348830    -1.2264790
  H       -2.4411180     0.3988970     1.1281900
units angstrom
no_reorient  #important for SAPT in psi4, default
symmetry c1  #important for SAPT in psi4, default
}

set PROPERTIES_ORIGIN ["COM"]
properties('MP2/aug-cc-pvtz', properties = ['dipole'])
--------------------------------------------------------------------------

    Molecular point group: c1
  Charge       = -1
  Multiplicity = 1
  Basis Set: AUG-CC-PVTZ
    Blend: AUG-CC-PVTZ
  Basis Set: (AUG-CC-PVTZ AUX)
    Blend: AUG-CC-PVTZ-JKFIT

    Orbital Energies [Eh]
    ---------------------

    Doubly Occupied:

       1A    -20.482163     2A    -20.410747     3A    -20.308866
       4A    -20.307484     5A    -11.251598     6A    -11.164495
       7A    -11.094269     8A     -1.322817     9A     -1.215705
      10A     -1.169042    11A     -1.066222    12A     -0.890308
      13A     -0.691034    14A     -0.570208    15A     -0.567604
      16A     -0.528615    17A     -0.487164    18A     -0.450559
      19A     -0.444855    20A     -0.427344    21A     -0.390646
      22A     -0.347439    23A     -0.330900    24A     -0.316888
      25A     -0.227035    26A     -0.217963    27A     -0.201852

  @DF-RHF Final Energy:  -415.02127540916024

   => Energetics <=

    Nuclear Repulsion Energy =            289.2702012346062475
    One-Electron Energy =               -1154.8153086774900657
    Two-Electron Energy =                 450.5238320337235791
    Total Energy =                       -415.0212754091602392
  Basis Set: (AUG-CC-PVTZ AUX)
    Blend: AUG-CC-PVTZ-RI
    Molecular point group: c1

    Geometry (in Angstrom), charge = -1, multiplicity = 1:

       Center              X                  Y                   Z               Mass
    ------------   -----------------  -----------------  -----------------  -----------------
         O           -1.615544125647    -0.126210562013     1.163770008486    15.994914619570
         O           -1.839577125647     0.234210437987    -1.054773991514    15.994914619570
         O            0.983185874353     1.310749437987     0.072264008486    15.994914619570
         O            2.446625874353    -0.435283562013     0.061200008486    15.994914619570
         C            0.127977874353    -0.918112562013    -0.224210991514    12.000000000000
         C           -1.189244125647    -0.224547562013    -0.125017991514    12.000000000000
         C            1.266204074353     0.058535137987    -0.009722491514    12.000000000000
         H            0.196728874353    -1.720689562013     0.514646008486     1.007825032230
         H            0.220738874353    -1.356457562013    -1.221678991514     1.007825032230
         H           -2.455947125647     0.377322437987     1.132990008486     1.007825032230

  Basis Set: AUG-CC-PVTZ
    Blend: AUG-CC-PVTZ
  Basis Set: (AUG-CC-PVTZ AUX)
    Blend: AUG-CC-PVTZ-JKFIT
	 Reference Energy          =    -415.0212754091602392 [Eh]
	 Singles Energy            =      -0.0000000000000000 [Eh]
	 Same-Spin Energy          =      -0.4019425344299959 [Eh]
	 Opposite-Spin Energy      =      -1.1710036202663898 [Eh]
	 Correlation Energy        =      -1.5729461546963859 [Eh]
	 Total Energy              =    -416.5942215638566495 [Eh]

	 ================> DF-SCS-MP2 Energies <==================
	-----------------------------------------------------------
	 SCS Same-Spin Scale       =       0.3333333333333333 [-]
	 SCS Opposite-Spin Scale   =       1.2000000000000000 [-]
	 SCS Same-Spin Energy      =      -0.1339808448099986 [Eh]
	 SCS Opposite-Spin Energy  =      -1.4052043443196678 [Eh]
	 SCS Correlation Energy    =      -1.5391851891296664 [Eh]
	 SCS Total Energy          =    -416.5604605982899216 [Eh]
	-----------------------------------------------------------

  Dipole Moment: [D]
     X:    -6.5614      Y:    -2.6437      Z:     0.9144     Total:     7.1328

*** Psi4 exiting successfully. Buy a developer a beer!
