                               Psi4 1.3.2 release

  ==> Input File <==

--------------------------------------------------------------------------
#psi4
#
memory 32 gb

molecule  {
-1 1
  O       -1.6248440     0.4205080     1.0662040
  O       -1.8285700    -0.2634140    -1.0709070
  O        0.9874640     1.2716570    -0.4175620
  O        2.4715130    -0.3822350     0.1558140
  C        0.1438310    -0.9061850     0.1996810
  C       -1.3451924    -0.1685088    -0.0713340
  C        1.3410260     0.1217830    -0.0505500
  H        0.2143420    -1.2704300     1.2280200
  H        0.2567200    -1.7478830    -0.4879250
  H       -2.4148060     0.8894050     0.7315680
units angstrom
no_reorient  #important for SAPT in psi4, default
symmetry c1  #important for SAPT in psi4, default
}

set PROPERTIES_ORIGIN ["COM"]
properties('MP2/aug-cc-pvtz', properties = ['dipole'])
--------------------------------------------------------------------------

    Molecular point group: c1
  Charge       = -1
  Multiplicity = 1
  Basis Set: AUG-CC-PVTZ
    Blend: AUG-CC-PVTZ
  Basis Set: (AUG-CC-PVTZ AUX)
    Blend: AUG-CC-PVTZ-JKFIT

    Orbital Energies [Eh]
    ---------------------

    Doubly Occupied:

       1A    -20.493293     2A    -20.423241     3A    -20.305063
       4A    -20.303060     5A    -11.236548     6A    -11.153278
       7A    -11.071998     8A     -1.373404     9A     -1.287411
      10A     -1.175123    11A     -1.081284    12A     -0.817189
      13A     -0.678432    14A     -0.599218    15A     -0.566555
      16A     -0.532996    17A     -0.510825    18A     -0.461108
      19A     -0.422149    20A     -0.416113    21A     -0.402081
      22A     -0.384390    23A     -0.334175    24A     -0.285852
      25A     -0.219282    26A     -0.205571    27A     -0.197885

  @DF-RHF Final Energy:  -414.98763372483791

   => Energetics <=

    Nuclear Repulsion Energy =            288.8119537562600385
    One-Electron Energy =               -1153.7241301100309556
    Two-Electron Energy =                 449.9245426289330680
    Total Energy =                       -414.9876337248379059
  Basis Set: (AUG-CC-PVTZ AUX)
    Blend: AUG-CC-PVTZ-RI
    Molecular point group: c1

    Geometry (in Angstrom), charge = -1, multiplicity = 1:

       Center              X                  Y                   Z               Mass
    ------------   -----------------  -----------------  -----------------  -----------------
         O           -1.622960572354     0.389844489244     1.084117223810    15.994914619570
         O           -1.826686572354    -0.294077510756    -1.052993776190    15.994914619570
         O            0.989347427646     1.240993489244    -0.399648776190    15.994914619570
         O            2.473396427646    -0.412898510756     0.173727223810    15.994914619570
         C            0.145714427646    -0.936848510756     0.217594223810    12.000000000000
         C           -1.343308972354    -0.199172310756    -0.053420776190    12.000000000000
         C            1.342909427646     0.091119489244    -0.032636776190    12.000000000000
         H            0.216225427646    -1.301093510756     1.245933223810     1.007825032230
         H            0.258603427646    -1.778546510756    -0.470011776190     1.007825032230
         H           -2.412922572354     0.858741489244     0.749481223810     1.007825032230

  Basis Set: AUG-CC-PVTZ
    Blend: AUG-CC-PVTZ
  Basis Set: (AUG-CC-PVTZ AUX)
    Blend: AUG-CC-PVTZ-JKFIT
	 Reference Energy          =    -414.9876337248379059 [Eh]
	 Singles Energy            =      -0.0000000000000000 [Eh]
	 Same-Spin Energy          =      -0.3990002752468140 [Eh]
	 Opposite-Spin Energy      =      -1.1648967707976277 [Eh]
	 Correlation Energy        =      -1.5638970460444417 [Eh]
	 Total Energy              =    -416.5515307708823229 [Eh]

	 ================> DF-SCS-MP2 Energies <==================
	-----------------------------------------------------------
	 SCS Same-Spin Scale       =       0.3333333333333333 [-]
	 SCS Opposite-Spin Scale   =       1.2000000000000000 [-]
	 SCS Same-Spin Energy      =      -0.1330000917489380 [Eh]
	 SCS Opposite-Spin Energy  =      -1.3978761249571532 [Eh]
	 SCS Correlation Energy    =      -1.5308762167060912 [Eh]
	 SCS Total Energy          =    -416.5185099415439822 [Eh]
	-----------------------------------------------------------

  Dipole Moment: [D]
     X:    -7.1755      Y:    -1.2532      Z:     1.5108     Total:     7.4391

*** Psi4 exiting successfully. Buy a developer a beer!
