                               Psi4 1.3.2 release

  ==> Input File <==

--------------------------------------------------------------------------
#psi4
#
memory 32 gb

molecule  {
-1 1
  O       -1.6248440     0.4205080     1.0662040
  O       -1.8285700    -0.2634140    -1.0709070
  O        0.9874640     1.2716570    -0.4175620
  O        2.4715130    -0.3822350     0.1558140
  C        0.1438310    -0.9061850     0.1996810
  C       -1.1434253    -0.2122546    -0.0508434
  C        1.3410260     0.1217830    -0.0505500
  H        0.2143420    -1.2704300     1.2280200
  H        0.2567200    -1.7478830    -0.4879250
  H       -2.4148060     0.8894050     0.7315680
units angstrom
no_reorient  #important for SAPT in psi4, default
symmetry c1  #important for SAPT in psi4, default
}

set PROPERTIES_ORIGIN ["COM"]
properties('MP2/aug-cc-pvtz', properties = ['dipole'])
--------------------------------------------------------------------------

    Molecular point group: c1
  Charge       = -1
  Multiplicity = 1
  Basis Set: AUG-CC-PVTZ
    Blend: AUG-CC-PVTZ
  Basis Set: (AUG-CC-PVTZ AUX)
    Blend: AUG-CC-PVTZ-JKFIT

    Orbital Energies [Eh]
    ---------------------

    Doubly Occupied:

       1A    -20.474290     2A    -20.405289     3A    -20.318444
       4A    -20.315555     5A    -11.247046     6A    -11.169934
       7A    -11.086140     8A     -1.314675     9A     -1.205978
      10A     -1.189017    11A     -1.094824    12A     -0.875455
      13A     -0.673117    14A     -0.563565    15A     -0.554550
      16A     -0.521853    17A     -0.489305    18A     -0.446203
      19A     -0.438201    20A     -0.427934    21A     -0.406980
      22A     -0.353105    23A     -0.338223    24A     -0.313850
      25A     -0.236240    26A     -0.217150    27A     -0.215206

  @DF-RHF Final Energy:  -415.02739543357114

   => Energetics <=

    Nuclear Repulsion Energy =            288.8286945455324712
    One-Electron Energy =               -1153.9279255029452997
    Two-Electron Energy =                 450.0718355238416848
    Total Energy =                       -415.0273954335711437
  Basis Set: (AUG-CC-PVTZ AUX)
    Blend: AUG-CC-PVTZ-RI
    Molecular point group: c1

    Geometry (in Angstrom), charge = -1, multiplicity = 1:

       Center              X                  Y                   Z               Mass
    ------------   -----------------  -----------------  -----------------  -----------------
         O           -1.646466703827     0.394940932253     1.081730042067    15.994914619570
         O           -1.850192703827    -0.288981067747    -1.055380957933    15.994914619570
         O            0.965841296173     1.246089932253    -0.402035957933    15.994914619570
         O            2.449890296173    -0.407802067747     0.171340042067    15.994914619570
         C            0.122208296173    -0.931752067747     0.215207042067    12.000000000000
         C           -1.165048003827    -0.237821667747    -0.035317357933    12.000000000000
         C            1.319403296173     0.096215932253    -0.035023957933    12.000000000000
         H            0.192719296173    -1.295997067747     1.243546042067     1.007825032230
         H            0.235097296173    -1.773450067747    -0.472398957933     1.007825032230
         H           -2.436428703827     0.863837932253     0.747094042067     1.007825032230

  Basis Set: AUG-CC-PVTZ
    Blend: AUG-CC-PVTZ
  Basis Set: (AUG-CC-PVTZ AUX)
    Blend: AUG-CC-PVTZ-JKFIT
	 Reference Energy          =    -415.0273954335711437 [Eh]
	 Singles Energy            =      -0.0000000000000000 [Eh]
	 Same-Spin Energy          =      -0.4013202984081328 [Eh]
	 Opposite-Spin Energy      =      -1.1691833732790060 [Eh]
	 Correlation Energy        =      -1.5705036716871388 [Eh]
	 Total Energy              =    -416.5978991052583069 [Eh]

	 ================> DF-SCS-MP2 Energies <==================
	-----------------------------------------------------------
	 SCS Same-Spin Scale       =       0.3333333333333333 [-]
	 SCS Opposite-Spin Scale   =       1.2000000000000000 [-]
	 SCS Same-Spin Energy      =      -0.1337734328027109 [Eh]
	 SCS Opposite-Spin Energy  =      -1.4030200479348072 [Eh]
	 SCS Correlation Energy    =      -1.5367934807375181 [Eh]
	 SCS Total Energy          =    -416.5641889143086587 [Eh]
	-----------------------------------------------------------

  Dipole Moment: [D]
     X:    -5.7500      Y:    -1.5814      Z:     1.7472     Total:     6.2142

*** Psi4 exiting successfully. Buy a developer a beer!
