                               Psi4 1.3.2 release

  ==> Input File <==

--------------------------------------------------------------------------
#psi4
#
memory 32 gb

molecule  {
-1 1
  O       -1.6248440     0.4205080     1.0662040
  O       -1.8285700    -0.2634140    -1.0709070
  O        0.9874640     1.2716570    -0.4175620
  O        2.4715130    -0.3822350     0.1558140
  C        0.1438310    -0.9061850     0.1996810
  C       -1.1612222    -0.2513077    -0.0635730
  C        1.3410260     0.1217830    -0.0505500
  H        0.2143420    -1.2704300     1.2280200
  H        0.2567200    -1.7478830    -0.4879250
  H       -2.4148060     0.8894050     0.7315680
units angstrom
no_reorient  #important for SAPT in psi4, default
symmetry c1  #important for SAPT in psi4, default
}

set PROPERTIES_ORIGIN ["COM"]
properties('MP2/aug-cc-pvtz', properties = ['dipole'])
--------------------------------------------------------------------------

    Molecular point group: c1
  Charge       = -1
  Multiplicity = 1
  Basis Set: AUG-CC-PVTZ
    Blend: AUG-CC-PVTZ
  Basis Set: (AUG-CC-PVTZ AUX)
    Blend: AUG-CC-PVTZ-JKFIT

    Orbital Energies [Eh]
    ---------------------

    Doubly Occupied:

       1A    -20.467403     2A    -20.410910     3A    -20.317318
       4A    -20.315768     5A    -11.245360     6A    -11.170205
       7A    -11.086392     8A     -1.311834     9A     -1.213126
      10A     -1.188481    11A     -1.094196    12A     -0.875208
      13A     -0.665803    14A     -0.563398    15A     -0.555257
      16A     -0.520883    17A     -0.487665    18A     -0.451062
      19A     -0.436386    20A     -0.425920    21A     -0.406784
      22A     -0.353948    23A     -0.343138    24A     -0.316325
      25A     -0.235544    26A     -0.216540    27A     -0.215686

  @DF-RHF Final Energy:  -415.02863900480332

   => Energetics <=

    Nuclear Repulsion Energy =            288.6626872961422805
    One-Electron Energy =               -1153.6015737638736027
    Two-Electron Energy =                 449.9102474629279982
    Total Energy =                       -415.0286390048033240
  Basis Set: (AUG-CC-PVTZ AUX)
    Blend: AUG-CC-PVTZ-RI
    Molecular point group: c1

    Geometry (in Angstrom), charge = -1, multiplicity = 1:

       Center              X                  Y                   Z               Mass
    ------------   -----------------  -----------------  -----------------  -----------------
         O           -1.644393341663     0.399490669564     1.083213057143    15.994914619570
         O           -1.848119341663    -0.284431330436    -1.053897942857    15.994914619570
         O            0.967914658337     1.250639669564    -0.400552942857    15.994914619570
         O            2.451963658337    -0.403252330436     0.172823057143    15.994914619570
         C            0.124281658337    -0.927202330436     0.216690057143    12.000000000000
         C           -1.180771541663    -0.272325030436    -0.046563942857    12.000000000000
         C            1.321476658337     0.100765669564    -0.033540942857    12.000000000000
         H            0.194792658337    -1.291447330436     1.245029057143     1.007825032230
         H            0.237170658337    -1.768900330436    -0.470915942857     1.007825032230
         H           -2.434355341663     0.868387669564     0.748577057143     1.007825032230

  Basis Set: AUG-CC-PVTZ
    Blend: AUG-CC-PVTZ
  Basis Set: (AUG-CC-PVTZ AUX)
    Blend: AUG-CC-PVTZ-JKFIT
	 Reference Energy          =    -415.0286390048033240 [Eh]
	 Singles Energy            =      -0.0000000000000000 [Eh]
	 Same-Spin Energy          =      -0.4011009572659776 [Eh]
	 Opposite-Spin Energy      =      -1.1689011843631736 [Eh]
	 Correlation Energy        =      -1.5700021416291512 [Eh]
	 Total Energy              =    -416.5986411464324988 [Eh]

	 ================> DF-SCS-MP2 Energies <==================
	-----------------------------------------------------------
	 SCS Same-Spin Scale       =       0.3333333333333333 [-]
	 SCS Opposite-Spin Scale   =       1.2000000000000000 [-]
	 SCS Same-Spin Energy      =      -0.1337003190886592 [Eh]
	 SCS Opposite-Spin Energy  =      -1.4026814212358083 [Eh]
	 SCS Correlation Energy    =      -1.5363817403244675 [Eh]
	 SCS Total Energy          =    -416.5650207451278106 [Eh]
	-----------------------------------------------------------

  Dipole Moment: [D]
     X:    -5.7774      Y:    -1.7058      Z:     1.5470     Total:     6.2194

*** Psi4 exiting successfully. Buy a developer a beer!
