                               Psi4 1.3.2 release

  ==> Input File <==

--------------------------------------------------------------------------
#psi4
#
memory 32 gb

molecule  {
-1 1
  O       -1.6248440     0.4205080     1.0662040
  O       -1.8285700    -0.2634140    -1.0709070
  O        0.9874640     1.2716570    -0.4175620
  O        2.4715130    -0.3822350     0.1558140
  C        0.1438310    -0.9061850     0.1996810
  C       -1.1683160    -0.2561350    -0.0391410
  C        1.3496323     0.1177635    -0.0243331
  H        0.2143420    -1.2704300     1.2280200
  H        0.2567200    -1.7478830    -0.4879250
  H       -2.4148060     0.8894050     0.7315680
units angstrom
no_reorient  #important for SAPT in psi4, default
symmetry c1  #important for SAPT in psi4, default
}

set PROPERTIES_ORIGIN ["COM"]
properties('MP2/aug-cc-pvtz', properties = ['dipole'])
--------------------------------------------------------------------------

    Molecular point group: c1
  Charge       = -1
  Multiplicity = 1
  Basis Set: AUG-CC-PVTZ
    Blend: AUG-CC-PVTZ
  Basis Set: (AUG-CC-PVTZ AUX)
    Blend: AUG-CC-PVTZ-JKFIT

    Orbital Energies [Eh]
    ---------------------

    Doubly Occupied:

       1A    -20.472772     2A    -20.406643     3A    -20.319549
       4A    -20.313448     5A    -11.245966     6A    -11.170328
       7A    -11.086349     8A     -1.313935     9A     -1.207974
      10A     -1.189543    11A     -1.092824    12A     -0.875214
      13A     -0.672373    14A     -0.563433    15A     -0.556632
      16A     -0.519356    17A     -0.488328    18A     -0.446874
      19A     -0.437886    20A     -0.428418    21A     -0.405485
      22A     -0.352536    23A     -0.339857    24A     -0.314110
      25A     -0.234921    26A     -0.216186    27A     -0.215677

  @DF-RHF Final Energy:  -415.02784818930218

   => Energetics <=

    Nuclear Repulsion Energy =            288.5232486309275828
    One-Electron Energy =               -1153.3289604434855846
    Two-Electron Energy =                 449.7778636232558256
    Total Energy =                       -415.0278481893021763
  Basis Set: (AUG-CC-PVTZ AUX)
    Blend: AUG-CC-PVTZ-RI
    Molecular point group: c1

    Geometry (in Angstrom), charge = -1, multiplicity = 1:

       Center              X                  Y                   Z               Mass
    ------------   -----------------  -----------------  -----------------  -----------------
         O           -1.644569549894     0.400521333354     1.077312393941    15.994914619570
         O           -1.848295549894    -0.283400666646    -1.059798606059    15.994914619570
         O            0.967738450106     1.251670333354    -0.406453606059    15.994914619570
         O            2.451787450106    -0.402221666646     0.166922393941    15.994914619570
         C            0.124105450106    -0.926171666646     0.210789393941    12.000000000000
         C           -1.188041549894    -0.276121666646    -0.028032606059    12.000000000000
         C            1.329906750106     0.097776833354    -0.013224706059    12.000000000000
         H            0.194616450106    -1.290416666646     1.239128393941     1.007825032230
         H            0.236994450106    -1.767869666646    -0.476816606059     1.007825032230
         H           -2.434531549894     0.869418333354     0.742676393941     1.007825032230

  Basis Set: AUG-CC-PVTZ
    Blend: AUG-CC-PVTZ
  Basis Set: (AUG-CC-PVTZ AUX)
    Blend: AUG-CC-PVTZ-JKFIT
	 Reference Energy          =    -415.0278481893021763 [Eh]
	 Singles Energy            =      -0.0000000000000000 [Eh]
	 Same-Spin Energy          =      -0.4013183539726249 [Eh]
	 Opposite-Spin Energy      =      -1.1692281704531458 [Eh]
	 Correlation Energy        =      -1.5705465244257706 [Eh]
	 Total Energy              =    -416.5983947137279415 [Eh]

	 ================> DF-SCS-MP2 Energies <==================
	-----------------------------------------------------------
	 SCS Same-Spin Scale       =       0.3333333333333333 [-]
	 SCS Opposite-Spin Scale   =       1.2000000000000000 [-]
	 SCS Same-Spin Energy      =      -0.1337727846575416 [Eh]
	 SCS Opposite-Spin Energy  =      -1.4030738045437749 [Eh]
	 SCS Correlation Energy    =      -1.5368465892013166 [Eh]
	 SCS Total Energy          =    -416.5646947785035081 [Eh]
	-----------------------------------------------------------

  Dipole Moment: [D]
     X:    -5.6806      Y:    -1.7576      Z:     1.7870     Total:     6.2090

*** Psi4 exiting successfully. Buy a developer a beer!
