                               Psi4 1.3.2 release

  ==> Input File <==

--------------------------------------------------------------------------
#psi4
#
memory 32 gb

molecule  {
-1 1
  O       -1.6248440     0.4205080     1.0662040
  O       -1.8285700    -0.2634140    -1.0709070
  O        0.9874640     1.2716570    -0.4175620
  O        2.4715130    -0.3822350     0.1558140
  C        0.1438310    -0.9061850     0.1996810
  C       -1.1683160    -0.2561350    -0.0391410
  C        1.3410260     0.1217830    -0.0505500
  H        0.2078921    -1.2371114     1.1339547
  H        0.2567200    -1.7478830    -0.4879250
  H       -2.4148060     0.8894050     0.7315680
units angstrom
no_reorient  #important for SAPT in psi4, default
symmetry c1  #important for SAPT in psi4, default
}

set PROPERTIES_ORIGIN ["COM"]
properties('MP2/aug-cc-pvtz', properties = ['dipole'])
--------------------------------------------------------------------------

    Molecular point group: c1
  Charge       = -1
  Multiplicity = 1
  Basis Set: AUG-CC-PVTZ
    Blend: AUG-CC-PVTZ
  Basis Set: (AUG-CC-PVTZ AUX)
    Blend: AUG-CC-PVTZ-JKFIT

    Orbital Energies [Eh]
    ---------------------

    Doubly Occupied:

       1A    -20.473452     2A    -20.406285     3A    -20.316377
       4A    -20.316025     5A    -11.245192     6A    -11.169697
       7A    -11.074100     8A     -1.314321     9A     -1.208009
      10A     -1.188064    11A     -1.093771    12A     -0.883756
      13A     -0.674649    14A     -0.564583    15A     -0.555465
      16A     -0.530653    17A     -0.488491    18A     -0.450516
      19A     -0.443372    20A     -0.427784    21A     -0.406154
      22A     -0.354830    23A     -0.339695    24A     -0.314930
      25A     -0.235267    26A     -0.216164    27A     -0.215144

  @DF-RHF Final Energy:  -415.02274949789239

   => Energetics <=

    Nuclear Repulsion Energy =            289.1037764684870126
    One-Electron Energy =               -1154.4395595799724106
    Two-Electron Energy =                 450.3130336135930065
    Total Energy =                       -415.0227494978923914
  Basis Set: (AUG-CC-PVTZ AUX)
    Blend: AUG-CC-PVTZ-RI
    Molecular point group: c1

    Geometry (in Angstrom), charge = -1, multiplicity = 1:

       Center              X                  Y                   Z               Mass
    ------------   -----------------  -----------------  -----------------  -----------------
         O           -1.643503796195     0.399727053449     1.081287070728    15.994914619570
         O           -1.847229796195    -0.284194946551    -1.055823929272    15.994914619570
         O            0.968804203805     1.250876053449    -0.402478929272    15.994914619570
         O            2.452853203805    -0.403015946551     0.170897070728    15.994914619570
         C            0.125171203805    -0.926965946551     0.214764070728    12.000000000000
         C           -1.186975796195    -0.276915946551    -0.024057929272    12.000000000000
         C            1.322366203805     0.101002053449    -0.035466929272    12.000000000000
         H            0.189232303805    -1.257892346551     1.149037770728     1.007825032230
         H            0.238060203805    -1.768663946551    -0.472841929272     1.007825032230
         H           -2.433465796195     0.868624053449     0.746651070728     1.007825032230

  Basis Set: AUG-CC-PVTZ
    Blend: AUG-CC-PVTZ
  Basis Set: (AUG-CC-PVTZ AUX)
    Blend: AUG-CC-PVTZ-JKFIT
	 Reference Energy          =    -415.0227494978923914 [Eh]
	 Singles Energy            =      -0.0000000000000000 [Eh]
	 Same-Spin Energy          =      -0.4012790658935389 [Eh]
	 Opposite-Spin Energy      =      -1.1686921588329171 [Eh]
	 Correlation Energy        =      -1.5699712247264559 [Eh]
	 Total Energy              =    -416.5927207226188216 [Eh]

	 ================> DF-SCS-MP2 Energies <==================
	-----------------------------------------------------------
	 SCS Same-Spin Scale       =       0.3333333333333333 [-]
	 SCS Opposite-Spin Scale   =       1.2000000000000000 [-]
	 SCS Same-Spin Energy      =      -0.1337596886311796 [Eh]
	 SCS Opposite-Spin Energy  =      -1.4024305905995005 [Eh]
	 SCS Correlation Energy    =      -1.5361902792306801 [Eh]
	 SCS Total Energy          =    -416.5589397771230438 [Eh]
	-----------------------------------------------------------

  Dipole Moment: [D]
     X:    -5.7916      Y:    -1.6783      Z:     1.7583     Total:     6.2810

*** Psi4 exiting successfully. Buy a developer a beer!
