                               Psi4 1.3.2 release

  ==> Input File <==

--------------------------------------------------------------------------
#psi4
#
memory 32 gb

molecule  {
-1 1
  O       -1.6248440     0.4205080     1.0662040
  O       -1.8285700    -0.2634140    -1.0709070
  O        0.9874640     1.2716570    -0.4175620
  O        2.4715130    -0.3822350     0.1558140
  C        0.1438310    -0.9061850     0.1996810
  C       -1.1683160    -0.2561350    -0.0391410
  C        1.3410260     0.1217830    -0.0505500
  H        0.2014423    -1.2037928     1.0398895
  H        0.2567200    -1.7478830    -0.4879250
  H       -2.4148060     0.8894050     0.7315680
units angstrom
no_reorient  #important for SAPT in psi4, default
symmetry c1  #important for SAPT in psi4, default
}

set PROPERTIES_ORIGIN ["COM"]
properties('MP2/aug-cc-pvtz', properties = ['dipole'])
--------------------------------------------------------------------------

    Molecular point group: c1
  Charge       = -1
  Multiplicity = 1
  Basis Set: AUG-CC-PVTZ
    Blend: AUG-CC-PVTZ
  Basis Set: (AUG-CC-PVTZ AUX)
    Blend: AUG-CC-PVTZ-JKFIT

    Orbital Energies [Eh]
    ---------------------

    Doubly Occupied:

       1A    -20.473647     2A    -20.405729     3A    -20.316270
       4A    -20.315919     5A    -11.244565     6A    -11.169289
       7A    -11.061970     8A     -1.314303     9A     -1.207708
      10A     -1.187998    11A     -1.093633    12A     -0.895445
      13A     -0.677926    14A     -0.566694    15A     -0.555076
      16A     -0.542751    17A     -0.488396    18A     -0.456937
      19A     -0.444293    20A     -0.427809    21A     -0.406240
      22A     -0.356503    23A     -0.339544    24A     -0.315190
      25A     -0.235277    26A     -0.216044    27A     -0.214777

  @DF-RHF Final Energy:  -414.99485268524222

   => Energetics <=

    Nuclear Repulsion Energy =            289.6974700206929469
    One-Electron Energy =               -1155.5247743116321999
    Two-Electron Energy =                 450.8324516056970879
    Total Energy =                       -414.9948526852422219
  Basis Set: (AUG-CC-PVTZ AUX)
    Blend: AUG-CC-PVTZ-RI
    Molecular point group: c1

    Geometry (in Angstrom), charge = -1, multiplicity = 1:

       Center              X                  Y                   Z               Mass
    ------------   -----------------  -----------------  -----------------  -----------------
         O           -1.643440688698     0.399401050560     1.082207443341    15.994914619570
         O           -1.847166688698    -0.284520949440    -1.054903556659    15.994914619570
         O            0.968867311302     1.250550050560    -0.401558556659    15.994914619570
         O            2.452916311302    -0.403341949440     0.171817443341    15.994914619570
         C            0.125234311302    -0.927291949440     0.215684443341    12.000000000000
         C           -1.186912688698    -0.277241949440    -0.023137556659    12.000000000000
         C            1.322429311302     0.100676050560    -0.034546556659    12.000000000000
         H            0.182845611302    -1.224899749440     1.055892943341     1.007825032230
         H            0.238123311302    -1.768989949440    -0.471921556659     1.007825032230
         H           -2.433402688698     0.868298050560     0.747571443341     1.007825032230

  Basis Set: AUG-CC-PVTZ
    Blend: AUG-CC-PVTZ
  Basis Set: (AUG-CC-PVTZ AUX)
    Blend: AUG-CC-PVTZ-JKFIT
	 Reference Energy          =    -414.9948526852422219 [Eh]
	 Singles Energy            =      -0.0000000000000000 [Eh]
	 Same-Spin Energy          =      -0.4013293381962839 [Eh]
	 Opposite-Spin Energy      =      -1.1686446937818809 [Eh]
	 Correlation Energy        =      -1.5699740319781648 [Eh]
	 Total Energy              =    -416.5648267172203987 [Eh]

	 ================> DF-SCS-MP2 Energies <==================
	-----------------------------------------------------------
	 SCS Same-Spin Scale       =       0.3333333333333333 [-]
	 SCS Opposite-Spin Scale   =       1.2000000000000000 [-]
	 SCS Same-Spin Energy      =      -0.1337764460654280 [Eh]
	 SCS Opposite-Spin Energy  =      -1.4023736325382570 [Eh]
	 SCS Correlation Energy    =      -1.5361500786036850 [Eh]
	 SCS Total Energy          =    -416.5310027638458905 [Eh]
	-----------------------------------------------------------

  Dipole Moment: [D]
     X:    -5.7919      Y:    -1.6962      Z:     1.7708     Total:     6.2896

*** Psi4 exiting successfully. Buy a developer a beer!
