                               Psi4 1.3.2 release

  ==> Input File <==

--------------------------------------------------------------------------
#psi4
#
memory 32 gb

molecule  {
-1 1
  O       -1.6248440     0.4205080     1.0662040
  O       -1.8285700    -0.2634140    -1.0709070
  O        0.9874640     1.2716570    -0.4175620
  O        2.4715130    -0.3822350     0.1558140
  C        0.1438310    -0.9061850     0.1996810
  C       -1.1813025    -0.2663821     0.0099337
  C        1.3410260     0.1217830    -0.0505500
  H        0.2143420    -1.2704300     1.2280200
  H        0.2567200    -1.7478830    -0.4879250
  H       -2.4148060     0.8894050     0.7315680
units angstrom
no_reorient  #important for SAPT in psi4, default
symmetry c1  #important for SAPT in psi4, default
}

set PROPERTIES_ORIGIN ["COM"]
properties('MP2/aug-cc-pvtz', properties = ['dipole'])
--------------------------------------------------------------------------

    Molecular point group: c1
  Charge       = -1
  Multiplicity = 1
  Basis Set: AUG-CC-PVTZ
    Blend: AUG-CC-PVTZ
  Basis Set: (AUG-CC-PVTZ AUX)
    Blend: AUG-CC-PVTZ-JKFIT

    Orbital Energies [Eh]
    ---------------------

    Doubly Occupied:

       1A    -20.484690     2A    -20.399391     3A    -20.316595
       4A    -20.316291     5A    -11.247858     6A    -11.170748
       7A    -11.086601     8A     -1.326958     9A     -1.192961
      10A     -1.187342    11A     -1.093875    12A     -0.876543
      13A     -0.686967    14A     -0.566774    15A     -0.558000
      16A     -0.520099    17A     -0.492276    18A     -0.442514
      19A     -0.437181    20A     -0.430524    21A     -0.403779
      22A     -0.351905    23A     -0.329894    24A     -0.309226
      25A     -0.235121    26A     -0.216255    27A     -0.215927

  @DF-RHF Final Energy:  -415.02422143851277

   => Energetics <=

    Nuclear Repulsion Energy =            288.4169976695501418
    One-Electron Energy =               -1153.0898454532189135
    Two-Electron Energy =                 449.6486263451560035
    Total Energy =                       -415.0242214385127681
  Basis Set: (AUG-CC-PVTZ AUX)
    Blend: AUG-CC-PVTZ-RI
    Molecular point group: c1

    Geometry (in Angstrom), charge = -1, multiplicity = 1:

       Center              X                  Y                   Z               Mass
    ------------   -----------------  -----------------  -----------------  -----------------
         O           -1.642053960407     0.401246856912     1.074649430296    15.994914619570
         O           -1.845779960407    -0.282675143088    -1.062461569704    15.994914619570
         O            0.970254039593     1.252395856912    -0.409116569704    15.994914619570
         O            2.454303039593    -0.401496143088     0.164259430296    15.994914619570
         C            0.126621039593    -0.925446143088     0.208126430296    12.000000000000
         C           -1.198512460407    -0.285643243088     0.018379130296    12.000000000000
         C            1.323816039593     0.102521856912    -0.042104569704    12.000000000000
         H            0.197132039593    -1.289691143088     1.236465430296     1.007825032230
         H            0.239510039593    -1.767144143088    -0.479479569704     1.007825032230
         H           -2.432015960407     0.870143856912     0.740013430296     1.007825032230

  Basis Set: AUG-CC-PVTZ
    Blend: AUG-CC-PVTZ
  Basis Set: (AUG-CC-PVTZ AUX)
    Blend: AUG-CC-PVTZ-JKFIT
	 Reference Energy          =    -415.0242214385127681 [Eh]
	 Singles Energy            =      -0.0000000000000000 [Eh]
	 Same-Spin Energy          =      -0.4018186115816492 [Eh]
	 Opposite-Spin Energy      =      -1.1699160453525623 [Eh]
	 Correlation Energy        =      -1.5717346569342117 [Eh]
	 Total Energy              =    -416.5959560954469794 [Eh]

	 ================> DF-SCS-MP2 Energies <==================
	-----------------------------------------------------------
	 SCS Same-Spin Scale       =       0.3333333333333333 [-]
	 SCS Opposite-Spin Scale   =       1.2000000000000000 [-]
	 SCS Same-Spin Energy      =      -0.1339395371938831 [Eh]
	 SCS Opposite-Spin Energy  =      -1.4038992544230748 [Eh]
	 SCS Correlation Energy    =      -1.5378387916169580 [Eh]
	 SCS Total Energy          =    -416.5620602301297026 [Eh]
	-----------------------------------------------------------

  Dipole Moment: [D]
     X:    -5.8055      Y:    -1.5458      Z:     2.0884     Total:     6.3604

*** Psi4 exiting successfully. Buy a developer a beer!
