                               Psi4 1.3.2 release

  ==> Input File <==

--------------------------------------------------------------------------
#psi4
#
memory 32 gb

molecule  {
-1 1
  O       -1.6248440     0.4205080     1.0662040
  O       -1.8285700    -0.2634140    -1.0709070
  O        0.9874640     1.2716570    -0.4175620
  O        2.4715130    -0.3822350     0.1558140
  C        0.1438310    -0.9061850     0.1996810
  C       -1.1683160    -0.2561350    -0.0391410
  C        1.3029819     0.1347189    -0.1545758
  H        0.2143420    -1.2704300     1.2280200
  H        0.2567200    -1.7478830    -0.4879250
  H       -2.4148060     0.8894050     0.7315680
units angstrom
no_reorient  #important for SAPT in psi4, default
symmetry c1  #important for SAPT in psi4, default
}

set PROPERTIES_ORIGIN ["COM"]
properties('MP2/aug-cc-pvtz', properties = ['dipole'])
--------------------------------------------------------------------------

    Molecular point group: c1
  Charge       = -1
  Multiplicity = 1
  Basis Set: AUG-CC-PVTZ
    Blend: AUG-CC-PVTZ
  Basis Set: (AUG-CC-PVTZ AUX)
    Blend: AUG-CC-PVTZ-JKFIT

    Orbital Energies [Eh]
    ---------------------

    Doubly Occupied:

       1A    -20.475680     2A    -20.408960     3A    -20.331679
       4A    -20.302046     5A    -11.247081     6A    -11.170908
       7A    -11.087558     8A     -1.316774     9A     -1.210786
      10A     -1.203620    11A     -1.075189    12A     -0.877181
      13A     -0.673388    14A     -0.566123    15A     -0.555445
      16A     -0.525224    17A     -0.492706    18A     -0.448675
      19A     -0.440182    20A     -0.427052    21A     -0.404433
      22A     -0.356919    23A     -0.341338    24A     -0.316222
      25A     -0.235339    26A     -0.211161    27A     -0.209952

  @DF-RHF Final Energy:  -415.01823391883448

   => Energetics <=

    Nuclear Repulsion Energy =            288.7023955192451581
    One-Electron Energy =               -1153.6180164798843180
    Two-Electron Energy =                 449.8973870418047341
    Total Energy =                       -415.0182339188344827
  Basis Set: (AUG-CC-PVTZ AUX)
    Blend: AUG-CC-PVTZ-RI
    Molecular point group: c1

    Geometry (in Angstrom), charge = -1, multiplicity = 1:

       Center              X                  Y                   Z               Mass
    ------------   -----------------  -----------------  -----------------  -----------------
         O           -1.639134717180     0.398546007041     1.092485839114    15.994914619570
         O           -1.842860717180    -0.285375992959    -1.044625160886    15.994914619570
         O            0.973173282820     1.249695007041    -0.391280160886    15.994914619570
         O            2.457222282820    -0.404196992959     0.182095839114    15.994914619570
         C            0.129540282820    -0.928146992959     0.225962839114    12.000000000000
         C           -1.182606717180    -0.278096992959    -0.012859160886    12.000000000000
         C            1.288691182820     0.112756907041    -0.128293960886    12.000000000000
         H            0.200051282820    -1.292391992959     1.254301839114     1.007825032230
         H            0.242429282820    -1.769844992959    -0.461643160886     1.007825032230
         H           -2.429096717180     0.867443007041     0.757849839114     1.007825032230

  Basis Set: AUG-CC-PVTZ
    Blend: AUG-CC-PVTZ
  Basis Set: (AUG-CC-PVTZ AUX)
    Blend: AUG-CC-PVTZ-JKFIT
	 Reference Energy          =    -415.0182339188344827 [Eh]
	 Singles Energy            =      -0.0000000000000000 [Eh]
	 Same-Spin Energy          =      -0.4016533322894820 [Eh]
	 Opposite-Spin Energy      =      -1.1700250482774437 [Eh]
	 Correlation Energy        =      -1.5716783805669257 [Eh]
	 Total Energy              =    -416.5899122994014192 [Eh]

	 ================> DF-SCS-MP2 Energies <==================
	-----------------------------------------------------------
	 SCS Same-Spin Scale       =       0.3333333333333333 [-]
	 SCS Opposite-Spin Scale   =       1.2000000000000000 [-]
	 SCS Same-Spin Energy      =      -0.1338844440964940 [Eh]
	 SCS Opposite-Spin Energy  =      -1.4040300579329323 [Eh]
	 SCS Correlation Energy    =      -1.5379145020294263 [Eh]
	 SCS Total Energy          =    -416.5561484208639058 [Eh]
	-----------------------------------------------------------

  Dipole Moment: [D]
     X:    -6.2685      Y:    -1.2500      Z:     1.5174     Total:     6.5696

*** Psi4 exiting successfully. Buy a developer a beer!
