                               Psi4 1.3.2 release

  ==> Input File <==

--------------------------------------------------------------------------
#psi4
#
memory 32 gb

molecule  {
-1 1
  O       -1.6248440     0.4205080     1.0662040
  O       -1.8285700    -0.2634140    -1.0709070
  O        0.9874640     1.2716570    -0.4175620
  O        2.4715130    -0.3822350     0.1558140
  C        0.1438310    -0.9061850     0.1996810
  C       -1.1683160    -0.2561350    -0.0391410
  C        1.1911601    -0.0068989    -0.0192259
  H        0.2143420    -1.2704300     1.2280200
  H        0.2567200    -1.7478830    -0.4879250
  H       -2.4148060     0.8894050     0.7315680
units angstrom
no_reorient  #important for SAPT in psi4, default
symmetry c1  #important for SAPT in psi4, default
}

set PROPERTIES_ORIGIN ["COM"]
properties('MP2/aug-cc-pvtz', properties = ['dipole'])
--------------------------------------------------------------------------

    Molecular point group: c1
  Charge       = -1
  Multiplicity = 1
  Basis Set: AUG-CC-PVTZ
    Blend: AUG-CC-PVTZ
  Basis Set: (AUG-CC-PVTZ AUX)
    Blend: AUG-CC-PVTZ-JKFIT

    Orbital Energies [Eh]
    ---------------------

    Doubly Occupied:

       1A    -20.484141     2A    -20.420813     3A    -20.309560
       4A    -20.306308     5A    -11.262769     6A    -11.172162
       7A    -11.106448     8A     -1.326586     9A     -1.220827
      10A     -1.137223    11A     -1.028475    12A     -0.925056
      13A     -0.704123    14A     -0.589858    15A     -0.576994
      16A     -0.541843    17A     -0.488805    18A     -0.466561
      19A     -0.457971    20A     -0.421815    21A     -0.367292
      22A     -0.352451    23A     -0.321936    24A     -0.304207
      25A     -0.238086    26A     -0.202388    27A     -0.188268

  @DF-RHF Final Energy:  -414.97636657842810

   => Energetics <=

    Nuclear Repulsion Energy =            288.9653327031998629
    One-Electron Energy =               -1154.0374666846905711
    Two-Electron Energy =                 450.0957674030625526
    Total Energy =                       -414.9763665784280988
  Basis Set: (AUG-CC-PVTZ AUX)
    Blend: AUG-CC-PVTZ-RI
    Molecular point group: c1

    Geometry (in Angstrom), charge = -1, multiplicity = 1:

       Center              X                  Y                   Z               Mass
    ------------   -----------------  -----------------  -----------------  -----------------
         O           -1.626107330989     0.415044666267     1.076717398450    15.994914619570
         O           -1.829833330989    -0.268877333733    -1.060393601550    15.994914619570
         O            0.986200669011     1.266193666267    -0.407048601550    15.994914619570
         O            2.470249669011    -0.387698333733     0.166327398450    15.994914619570
         C            0.142567669011    -0.911648333733     0.210194398450    12.000000000000
         C           -1.169579330989    -0.261598333733    -0.028627601550    12.000000000000
         C            1.189896769011    -0.012362233733    -0.008712501550    12.000000000000
         H            0.213078669011    -1.275893333733     1.238533398450     1.007825032230
         H            0.255456669011    -1.753346333733    -0.477411601550     1.007825032230
         H           -2.416069330989     0.883941666267     0.742081398450     1.007825032230

  Basis Set: AUG-CC-PVTZ
    Blend: AUG-CC-PVTZ
  Basis Set: (AUG-CC-PVTZ AUX)
    Blend: AUG-CC-PVTZ-JKFIT
	 Reference Energy          =    -414.9763665784280988 [Eh]
	 Singles Energy            =      -0.0000000000000000 [Eh]
	 Same-Spin Energy          =      -0.4057956750810325 [Eh]
	 Opposite-Spin Energy      =      -1.1794838422777612 [Eh]
	 Correlation Energy        =      -1.5852795173587937 [Eh]
	 Total Energy              =    -416.5616460957868981 [Eh]

	 ================> DF-SCS-MP2 Energies <==================
	-----------------------------------------------------------
	 SCS Same-Spin Scale       =       0.3333333333333333 [-]
	 SCS Opposite-Spin Scale   =       1.2000000000000000 [-]
	 SCS Same-Spin Energy      =      -0.1352652250270108 [Eh]
	 SCS Opposite-Spin Energy  =      -1.4153806107333133 [Eh]
	 SCS Correlation Energy    =      -1.5506458357603241 [Eh]
	 SCS Total Energy          =    -416.5270124141884480 [Eh]
	-----------------------------------------------------------

  Dipole Moment: [D]
     X:    -7.0381      Y:    -2.3230      Z:     1.8738     Total:     7.6448

*** Psi4 exiting successfully. Buy a developer a beer!
