                               Psi4 1.3.2 release

  ==> Input File <==

--------------------------------------------------------------------------
#psi4
#
memory 32 gb

molecule  {
-1 1
  O       -1.6248440     0.4205080     1.0662040
  O       -1.8285700    -0.2634140    -1.0709070
  O        0.9874640     1.2716570    -0.4175620
  O        2.4715130    -0.3822350     0.1558140
  C        0.1438310    -0.9061850     0.1996810
  C       -1.1683160    -0.2561350    -0.0391410
  C        1.3410260     0.1217830    -0.0505500
  H        0.2290200    -1.3748805     1.1836498
  H        0.2567200    -1.7478830    -0.4879250
  H       -2.4148060     0.8894050     0.7315680
units angstrom
no_reorient  #important for SAPT in psi4, default
symmetry c1  #important for SAPT in psi4, default
}

set PROPERTIES_ORIGIN ["COM"]
properties('MP2/aug-cc-pvtz', properties = ['dipole'])
--------------------------------------------------------------------------

    Molecular point group: c1
  Charge       = -1
  Multiplicity = 1
  Basis Set: AUG-CC-PVTZ
    Blend: AUG-CC-PVTZ
  Basis Set: (AUG-CC-PVTZ AUX)
    Blend: AUG-CC-PVTZ-JKFIT

    Orbital Energies [Eh]
    ---------------------

    Doubly Occupied:

       1A    -20.473332     2A    -20.407893     3A    -20.317295
       4A    -20.315504     5A    -11.247353     6A    -11.170604
       7A    -11.086181     8A     -1.314636     9A     -1.208880
      10A     -1.188198    11A     -1.093994    12A     -0.874951
      13A     -0.673643    14A     -0.563414    15A     -0.556294
      16A     -0.524938    17A     -0.488768    18A     -0.447561
      19A     -0.430483    20A     -0.428575    21A     -0.407419
      22A     -0.350243    23A     -0.339525    24A     -0.315966
      25A     -0.235730    26A     -0.216412    27A     -0.216235

  @DF-RHF Final Energy:  -415.02719872717216

   => Energetics <=

    Nuclear Repulsion Energy =            288.4539738794366031
    One-Electron Energy =               -1153.1742942203702569
    Two-Electron Energy =                 449.6931216137614911
    Total Energy =                       -415.0271987271721628
  Basis Set: (AUG-CC-PVTZ AUX)
    Blend: AUG-CC-PVTZ-RI
    Molecular point group: c1

    Geometry (in Angstrom), charge = -1, multiplicity = 1:

       Center              X                  Y                   Z               Mass
    ------------   -----------------  -----------------  -----------------  -----------------
         O           -1.643710520260     0.401075042999     1.080800833426    15.994914619570
         O           -1.847436520260    -0.282846957001    -1.056310166574    15.994914619570
         O            0.968597479740     1.252224042999    -0.402965166574    15.994914619570
         O            2.452646479740    -0.401667957001     0.170410833426    15.994914619570
         C            0.124964479740    -0.925617957001     0.214277833426    12.000000000000
         C           -1.187182520260    -0.275567957001    -0.024544166574    12.000000000000
         C            1.322159479740     0.102350042999    -0.035953166574    12.000000000000
         H            0.210153479740    -1.394313457001     1.198246633426     1.007825032230
         H            0.237853479740    -1.767315957001    -0.473328166574     1.007825032230
         H           -2.433672520260     0.869972042999     0.746164833426     1.007825032230

  Basis Set: AUG-CC-PVTZ
    Blend: AUG-CC-PVTZ
  Basis Set: (AUG-CC-PVTZ AUX)
    Blend: AUG-CC-PVTZ-JKFIT
	 Reference Energy          =    -415.0271987271721628 [Eh]
	 Singles Energy            =      -0.0000000000000000 [Eh]
	 Same-Spin Energy          =      -0.4012898472291984 [Eh]
	 Opposite-Spin Energy      =      -1.1691745476156943 [Eh]
	 Correlation Energy        =      -1.5704643948448926 [Eh]
	 Total Energy              =    -416.5976631220170816 [Eh]

	 ================> DF-SCS-MP2 Energies <==================
	-----------------------------------------------------------
	 SCS Same-Spin Scale       =       0.3333333333333333 [-]
	 SCS Opposite-Spin Scale   =       1.2000000000000000 [-]
	 SCS Same-Spin Energy      =      -0.1337632824097328 [Eh]
	 SCS Opposite-Spin Energy  =      -1.4030094571388332 [Eh]
	 SCS Correlation Energy    =      -1.5367727395485660 [Eh]
	 SCS Total Energy          =    -416.5639714667207159 [Eh]
	-----------------------------------------------------------

  Dipole Moment: [D]
     X:    -5.8191      Y:    -1.6950      Z:     1.7195     Total:     6.3001

*** Psi4 exiting successfully. Buy a developer a beer!
