                               Psi4 1.4a3.dev225

  ==> Input File <==

--------------------------------------------------------------------------
#psi4
#
memory 32 gb

molecule  {
-1 1
  O       -1.6007150    -0.1046360     1.1589700
  O       -1.8247480     0.2557850    -1.0595740
  O        0.9980150     1.3323240     0.0674640
  O        2.4614550    -0.4137090     0.0564000
  C        0.1428070    -0.8965380    -0.2290110
  C       -1.1744150    -0.2029730    -0.1298180
  C        1.3035715     0.0994485    -0.0102754
  H        0.2115580    -1.6991150     0.5098460
  H        0.2355680    -1.3348830    -1.2264790
  H       -2.4411180     0.3988970     1.1281900
units angstrom
no_reorient  #important for SAPT in psi4, default
symmetry c1  #important for SAPT in psi4, default
}

set PROPERTIES_ORIGIN ["COM"]
properties('MP2/aug-cc-pvtz', properties = ['dipole'])
--------------------------------------------------------------------------

    Molecular point group: c1
  Charge       = -1
  Multiplicity = 1
  Basis Set: AUG-CC-PVTZ
    Blend: AUG-CC-PVTZ
  Basis Set: (AUG-CC-PVTZ AUX)
    Blend: AUG-CC-PVTZ-JKFIT

    Orbital Energies [Eh]
    ---------------------

    Doubly Occupied:

       1A    -20.480427     2A    -20.408582     3A    -20.310211
       4A    -20.309152     5A    -11.248976     6A    -11.164400
       7A    -11.090744     8A     -1.320902     9A     -1.213737
      10A     -1.177053    11A     -1.076603    12A     -0.883189
      13A     -0.686611    14A     -0.567236    15A     -0.563296
      16A     -0.525434    17A     -0.487537    18A     -0.448104
      19A     -0.441150    20A     -0.428246    21A     -0.396871
      22A     -0.347338    23A     -0.336033    24A     -0.315503
      25A     -0.225074    26A     -0.220980    27A     -0.206420

  @DF-RHF Final Energy:  -415.02621722399670

   => Energetics <=

    Nuclear Repulsion Energy =            289.2278893974679477
    One-Electron Energy =               -1154.7485958904462677
    Two-Electron Energy =                 450.4944892689816243
    Total Energy =                       -415.0262172239966958
  Basis Set: (AUG-CC-PVTZ AUX)
    Blend: AUG-CC-PVTZ-RI
    Molecular point group: c1

    Geometry (in Angstrom), charge = -1, multiplicity = 1:

       Center              X                  Y                   Z               Mass
    ------------   -----------------  -----------------  -----------------  -----------------
         O           -1.618169867123    -0.128463557548     1.163275215772    15.994914619570
         O           -1.842202867123     0.231957442452    -1.055268784228    15.994914619570
         O            0.980560132877     1.308496442452     0.071769215772    15.994914619570
         O            2.444000132877    -0.437536557548     0.060705215772    15.994914619570
         C            0.125352132877    -0.920365557548    -0.224705784228    12.000000000000
         C           -1.191869867123    -0.226800557548    -0.125512784228    12.000000000000
         C            1.286116632877     0.075620942452    -0.005970184228    12.000000000000
         H            0.194103132877    -1.722942557548     0.514151215772     1.007825032230
         H            0.218113132877    -1.358710557548    -1.222173784228     1.007825032230
         H           -2.458572867123     0.375069442452     1.132495215772     1.007825032230

  Basis Set: AUG-CC-PVTZ
    Blend: AUG-CC-PVTZ
  Basis Set: (AUG-CC-PVTZ AUX)
    Blend: AUG-CC-PVTZ-JKFIT
	 Reference Energy          =    -415.0262172239966958 [Eh]
	 Singles Energy            =      -0.0000000000000000 [Eh]
	 Same-Spin Energy          =      -0.4013923219675252 [Eh]
	 Opposite-Spin Energy      =      -1.1696639754683886 [Eh]
	 Correlation Energy        =      -1.5710562974359139 [Eh]
	 Total Energy              =    -416.5972735214326121 [Eh]

	 ================> DF-SCS-MP2 Energies <==================
	-----------------------------------------------------------
	 SCS Same-Spin Scale       =       0.3333333333333333 [-]
	 SCS Opposite-Spin Scale   =       1.2000000000000000 [-]
	 SCS Same-Spin Energy      =      -0.1337974406558417 [Eh]
	 SCS Opposite-Spin Energy  =      -1.4035967705620662 [Eh]
	 SCS Correlation Energy    =      -1.5373942112179080 [Eh]
	 SCS Total Energy          =    -416.5636114352146251 [Eh]
	-----------------------------------------------------------

  Dipole Moment: [D]
     X:    -6.3580      Y:    -2.5343      Z:     0.9422     Total:     6.9090

*** Psi4 exiting successfully. Buy a developer a beer!
