                               Psi4 1.4a3.dev225

  ==> Input File <==

--------------------------------------------------------------------------
#psi4
#
memory 32 gb

molecule  {
-1 1
  O       -1.6007150    -0.1046360     1.1589700
  O       -1.8247480     0.2557850    -1.0595740
  O        0.9980150     1.3323240     0.0674640
  O        2.4614550    -0.4137090     0.0564000
  C        0.1428070    -0.8965380    -0.2290110
  C       -1.1744150    -0.2029730    -0.1298180
  C        1.3185970     0.1123410    -0.0074440
  H        0.2084131    -1.6624024     0.4760482
  H        0.2355680    -1.3348830    -1.2264790
  H       -2.4411180     0.3988970     1.1281900
units angstrom
no_reorient  #important for SAPT in psi4, default
symmetry c1  #important for SAPT in psi4, default
}

set PROPERTIES_ORIGIN ["COM"]
properties('MP2/aug-cc-pvtz', properties = ['dipole'])
--------------------------------------------------------------------------

    Molecular point group: c1
  Charge       = -1
  Multiplicity = 1
  Basis Set: AUG-CC-PVTZ
    Blend: AUG-CC-PVTZ
  Basis Set: (AUG-CC-PVTZ AUX)
    Blend: AUG-CC-PVTZ-JKFIT

    Orbital Energies [Eh]
    ---------------------

    Doubly Occupied:

       1A    -20.479270     2A    -20.406626     3A    -20.310916
       4A    -20.310519     5A    -11.246636     6A    -11.164210
       7A    -11.082049     8A     -1.319489     9A     -1.212088
      10A     -1.182315    11A     -1.083529    12A     -0.882282
      13A     -0.684578    14A     -0.565806    15A     -0.559827
      16A     -0.528054    17A     -0.487883    18A     -0.449076
      19A     -0.440702    20A     -0.429340    21A     -0.401073
      22A     -0.349017    23A     -0.338383    24A     -0.314641
      25A     -0.227469    26A     -0.218615    27A     -0.209498

  @DF-RHF Final Energy:  -415.02753409206315

   => Energetics <=

    Nuclear Repulsion Energy =            289.4569792540067397
    One-Electron Energy =               -1155.2012465479340335
    Two-Electron Energy =                 450.7167332018642014
    Total Energy =                       -415.0275340920631493
  Basis Set: (AUG-CC-PVTZ AUX)
    Blend: AUG-CC-PVTZ-RI
    Molecular point group: c1

    Geometry (in Angstrom), charge = -1, multiplicity = 1:

       Center              X                  Y                   Z               Mass
    ------------   -----------------  -----------------  -----------------  -----------------
         O           -1.619889586562    -0.130324761868     1.163276045542    15.994914619570
         O           -1.843922586562     0.230096238132    -1.055267954458    15.994914619570
         O            0.978840413438     1.306635238132     0.071770045542    15.994914619570
         O            2.442280413438    -0.439397761868     0.060706045542    15.994914619570
         C            0.123632413438    -0.922226761868    -0.224704954458    12.000000000000
         C           -1.193589586562    -0.228661761868    -0.125511954458    12.000000000000
         C            1.299422413438     0.086652238132    -0.003137954458    12.000000000000
         H            0.189238513438    -1.688091161868     0.480354245542     1.007825032230
         H            0.216393413438    -1.360571761868    -1.222172954458     1.007825032230
         H           -2.460292586562     0.373208238132     1.132496045542     1.007825032230

  Basis Set: AUG-CC-PVTZ
    Blend: AUG-CC-PVTZ
  Basis Set: (AUG-CC-PVTZ AUX)
    Blend: AUG-CC-PVTZ-JKFIT
	 Reference Energy          =    -415.0275340920631493 [Eh]
	 Singles Energy            =      -0.0000000000000000 [Eh]
	 Same-Spin Energy          =      -0.4010736853909223 [Eh]
	 Opposite-Spin Energy      =      -1.1686013392111996 [Eh]
	 Correlation Energy        =      -1.5696750246021218 [Eh]
	 Total Energy              =    -416.5972091166652831 [Eh]

	 ================> DF-SCS-MP2 Energies <==================
	-----------------------------------------------------------
	 SCS Same-Spin Scale       =       0.3333333333333333 [-]
	 SCS Opposite-Spin Scale   =       1.2000000000000000 [-]
	 SCS Same-Spin Energy      =      -0.1336912284636407 [Eh]
	 SCS Opposite-Spin Energy  =      -1.4023216070534394 [Eh]
	 SCS Correlation Energy    =      -1.5360128355170801 [Eh]
	 SCS Total Energy          =    -416.5635469275802052 [Eh]
	-----------------------------------------------------------

  Dipole Moment: [D]
     X:    -6.2124      Y:    -2.4768      Z:     0.9694     Total:     6.7578

*** Psi4 exiting successfully. Buy a developer a beer!
