                               Psi4 1.3.2 release

  ==> Input File <==

--------------------------------------------------------------------------
#psi4
#
memory 32 gb

molecule  {
-1 1
  O       -1.6248440     0.4205080     1.0662040
  O       -1.8285700    -0.2634140    -1.0709070
  O        0.9874640     1.2716570    -0.4175620
  O        2.4715130    -0.3822350     0.1558140
  C        0.1438310    -0.9061850     0.1996810
  C       -1.1683160    -0.2561350    -0.0391410
  C        1.3410260     0.1217830    -0.0505500
  H        0.2242233    -1.3405788     1.1996642
  H        0.2567200    -1.7478830    -0.4879250
  H       -2.4148060     0.8894050     0.7315680
units angstrom
no_reorient  #important for SAPT in psi4, default
symmetry c1  #important for SAPT in psi4, default
}

set PROPERTIES_ORIGIN ["COM"]
properties('MP2/aug-cc-pvtz', properties = ['dipole'])
--------------------------------------------------------------------------

    Molecular point group: c1
  Charge       = -1
  Multiplicity = 1
  Basis Set: AUG-CC-PVTZ
    Blend: AUG-CC-PVTZ
  Basis Set: (AUG-CC-PVTZ AUX)
    Blend: AUG-CC-PVTZ-JKFIT

    Orbital Energies [Eh]
    ---------------------

    Doubly Occupied:

       1A    -20.473330     2A    -20.407635     3A    -20.317203
       4A    -20.315631     5A    -11.246948     6A    -11.170499
       7A    -11.086229     8A     -1.314580     9A     -1.208750
      10A     -1.188226    11A     -1.094007    12A     -0.875096
      13A     -0.673232    14A     -0.563547    15A     -0.556205
      16A     -0.523445    17A     -0.488748    18A     -0.447379
      19A     -0.432781    20A     -0.428428    21A     -0.406981
      22A     -0.351130    23A     -0.339707    24A     -0.315529
      25A     -0.235607    26A     -0.216339    27A     -0.216145

  @DF-RHF Final Energy:  -415.02792714345537

   => Energetics <=

    Nuclear Repulsion Energy =            288.4936192880126100
    One-Electron Energy =               -1153.2564133029304685
    Two-Electron Energy =                 449.7348668714624864
    Total Energy =                       -415.0279271434553721
  Basis Set: (AUG-CC-PVTZ AUX)
    Blend: AUG-CC-PVTZ-RI
    Molecular point group: c1

    Geometry (in Angstrom), charge = -1, multiplicity = 1:

       Center              X                  Y                   Z               Mass
    ------------   -----------------  -----------------  -----------------  -----------------
         O           -1.643663587374     0.400739421055     1.080644141948    15.994914619570
         O           -1.847389587374    -0.283182578945    -1.056466858052    15.994914619570
         O            0.968644412626     1.251888421055    -0.403121858052    15.994914619570
         O            2.452693412626    -0.402003578945     0.170254141948    15.994914619570
         C            0.125011412626    -0.925953578945     0.214121141948    12.000000000000
         C           -1.187135587374    -0.275903578945    -0.024700858052    12.000000000000
         C            1.322206412626     0.102014421055    -0.036109858052    12.000000000000
         H            0.205403712626    -1.360347378945     1.214104341948     1.007825032230
         H            0.237900412626    -1.767651578945    -0.473484858052     1.007825032230
         H           -2.433625587374     0.869636421055     0.746008141948     1.007825032230

  Basis Set: AUG-CC-PVTZ
    Blend: AUG-CC-PVTZ
  Basis Set: (AUG-CC-PVTZ AUX)
    Blend: AUG-CC-PVTZ-JKFIT
	 Reference Energy          =    -415.0279271434553721 [Eh]
	 Singles Energy            =      -0.0000000000000000 [Eh]
	 Same-Spin Energy          =      -0.4012778074936852 [Eh]
	 Opposite-Spin Energy      =      -1.1691478711194909 [Eh]
	 Correlation Energy        =      -1.5704256786131761 [Eh]
	 Total Energy              =    -416.5983528220685344 [Eh]

	 ================> DF-SCS-MP2 Energies <==================
	-----------------------------------------------------------
	 SCS Same-Spin Scale       =       0.3333333333333333 [-]
	 SCS Opposite-Spin Scale   =       1.2000000000000000 [-]
	 SCS Same-Spin Energy      =      -0.1337592691645617 [Eh]
	 SCS Opposite-Spin Energy  =      -1.4029774453433890 [Eh]
	 SCS Correlation Energy    =      -1.5367367145079507 [Eh]
	 SCS Total Energy          =    -416.5646638579632963 [Eh]
	-----------------------------------------------------------

  Dipole Moment: [D]
     X:    -5.8107      Y:    -1.6804      Z:     1.7243     Total:     6.2898

*** Psi4 exiting successfully. Buy a developer a beer!
