                               Psi4 1.3.2 release

  ==> Input File <==

--------------------------------------------------------------------------
#psi4
#
memory 32 gb

molecule  {
-1 1
  O       -1.6248440     0.4205080     1.0662040
  O       -1.8285700    -0.2634140    -1.0709070
  O        0.9874640     1.2716570    -0.4175620
  O        2.4715130    -0.3822350     0.1558140
  C        0.1438310    -0.9061850     0.1996810
  C       -1.2132730    -0.3462174    -0.0148780
  C        1.3410260     0.1217830    -0.0505500
  H        0.2143420    -1.2704300     1.2280200
  H        0.2567200    -1.7478830    -0.4879250
  H       -2.4148060     0.8894050     0.7315680
units angstrom
no_reorient  #important for SAPT in psi4, default
symmetry c1  #important for SAPT in psi4, default
}

set PROPERTIES_ORIGIN ["COM"]
properties('MP2/aug-cc-pvtz', properties = ['dipole'])
--------------------------------------------------------------------------

    Molecular point group: c1
  Charge       = -1
  Multiplicity = 1
  Basis Set: AUG-CC-PVTZ
    Blend: AUG-CC-PVTZ
  Basis Set: (AUG-CC-PVTZ AUX)
    Blend: AUG-CC-PVTZ-JKFIT

    Orbital Energies [Eh]
    ---------------------

    Doubly Occupied:

       1A    -20.470210     2A    -20.411360     3A    -20.317329
       4A    -20.315347     5A    -11.246937     6A    -11.171899
       7A    -11.087799     8A     -1.309949     9A     -1.207496
      10A     -1.187765    11A     -1.093356    12A     -0.876216
      13A     -0.669854    14A     -0.563154    15A     -0.557768
      16A     -0.516345    17A     -0.485935    18A     -0.447630
      19A     -0.438028    20A     -0.425832    21A     -0.403788
      22A     -0.351914    23A     -0.340655    24A     -0.314663
      25A     -0.234617    26A     -0.217159    27A     -0.215614

  @DF-RHF Final Energy:  -415.02186826924651

   => Energetics <=

    Nuclear Repulsion Energy =            287.8491765328074621
    One-Electron Energy =               -1151.9848515078817854
    Two-Electron Energy =                 449.1138067058278693
    Total Energy =                       -415.0218682692465109
  Basis Set: (AUG-CC-PVTZ AUX)
    Blend: AUG-CC-PVTZ-RI
    Molecular point group: c1

    Geometry (in Angstrom), charge = -1, multiplicity = 1:

       Center              X                  Y                   Z               Mass
    ------------   -----------------  -----------------  -----------------  -----------------
         O           -1.638329355274     0.410547773950     1.077540025851    15.994914619570
         O           -1.842055355274    -0.273374226050    -1.059570974149    15.994914619570
         O            0.973978644726     1.261696773950    -0.406225974149    15.994914619570
         O            2.458027644726    -0.392195226050     0.167150025851    15.994914619570
         C            0.130345644726    -0.916145226050     0.211017025851    12.000000000000
         C           -1.226758355274    -0.356177626050    -0.003541974149    12.000000000000
         C            1.327540644726     0.111822773950    -0.039213974149    12.000000000000
         H            0.200856644726    -1.280390226050     1.239356025851     1.007825032230
         H            0.243234644726    -1.757843226050    -0.476588974149     1.007825032230
         H           -2.428291355274     0.879444773950     0.742904025851     1.007825032230

  Basis Set: AUG-CC-PVTZ
    Blend: AUG-CC-PVTZ
  Basis Set: (AUG-CC-PVTZ AUX)
    Blend: AUG-CC-PVTZ-JKFIT
	 Reference Energy          =    -415.0218682692465109 [Eh]
	 Singles Energy            =      -0.0000000000000000 [Eh]
	 Same-Spin Energy          =      -0.4019551651743238 [Eh]
	 Opposite-Spin Energy      =      -1.1707943492915867 [Eh]
	 Correlation Energy        =      -1.5727495144659105 [Eh]
	 Total Energy              =    -416.5946177837124083 [Eh]

	 ================> DF-SCS-MP2 Energies <==================
	-----------------------------------------------------------
	 SCS Same-Spin Scale       =       0.3333333333333333 [-]
	 SCS Opposite-Spin Scale   =       1.2000000000000000 [-]
	 SCS Same-Spin Energy      =      -0.1339850550581079 [Eh]
	 SCS Opposite-Spin Energy  =      -1.4049532191499039 [Eh]
	 SCS Correlation Energy    =      -1.5389382742080118 [Eh]
	 SCS Total Energy          =    -416.5608065434545324 [Eh]
	-----------------------------------------------------------

  Dipole Moment: [D]
     X:    -5.7959      Y:    -1.7921      Z:     1.6789     Total:     6.2946

*** Psi4 exiting successfully. Buy a developer a beer!
