                               Psi4 1.3.2 release

  ==> Input File <==

--------------------------------------------------------------------------
#psi4
#
memory 32 gb

molecule  {
-1 1
  O       -1.6248440     0.4205080     1.0662040
  O       -1.8285700    -0.2634140    -1.0709070
  O        0.9874640     1.2716570    -0.4175620
  O        2.4715130    -0.3822350     0.1558140
  C        0.1438310    -0.9061850     0.1996810
  C       -1.1683160    -0.2561350    -0.0391410
  C        1.2818294     0.1392882    -0.2059728
  H        0.2143420    -1.2704300     1.2280200
  H        0.2567200    -1.7478830    -0.4879250
  H       -2.4148060     0.8894050     0.7315680
units angstrom
no_reorient  #important for SAPT in psi4, default
symmetry c1  #important for SAPT in psi4, default
}

set PROPERTIES_ORIGIN ["COM"]
properties('MP2/aug-cc-pvtz', properties = ['dipole'])
--------------------------------------------------------------------------

    Molecular point group: c1
  Charge       = -1
  Multiplicity = 1
  Basis Set: AUG-CC-PVTZ
    Blend: AUG-CC-PVTZ
  Basis Set: (AUG-CC-PVTZ AUX)
    Blend: AUG-CC-PVTZ-JKFIT

    Orbital Energies [Eh]
    ---------------------

    Doubly Occupied:

       1A    -20.476869     2A    -20.409907     3A    -20.339041
       4A    -20.295801     5A    -11.247678     6A    -11.171528
       7A    -11.088959     8A     -1.317964     9A     -1.217634
      10A     -1.211410    11A     -1.058023    12A     -0.878261
      13A     -0.674060    14A     -0.567472    15A     -0.556161
      16A     -0.527514    17A     -0.495812    18A     -0.449660
      19A     -0.442074    20A     -0.428592    21A     -0.402313
      22A     -0.360302    23A     -0.342520    24A     -0.317113
      25A     -0.233102    26A     -0.206027    27A     -0.204500

  @DF-RHF Final Energy:  -415.00561614081931

   => Energetics <=

    Nuclear Repulsion Energy =            288.7012876089396514
    One-Electron Energy =               -1153.5732124471460338
    Two-Electron Energy =                 449.8663086973870691
    Total Energy =                       -415.0056161408193134
  Basis Set: (AUG-CC-PVTZ AUX)
    Blend: AUG-CC-PVTZ-RI
    Molecular point group: c1

    Geometry (in Angstrom), charge = -1, multiplicity = 1:

       Center              X                  Y                   Z               Mass
    ------------   -----------------  -----------------  -----------------  -----------------
         O           -1.636670423219     0.398013677605     1.098473656947    15.994914619570
         O           -1.840396423219    -0.285908322395    -1.038637343053    15.994914619570
         O            0.975637576781     1.249162677605    -0.385292343053    15.994914619570
         O            2.459686576781    -0.404729322395     0.188083656947    15.994914619570
         C            0.132004576781    -0.928679322395     0.231950656947    12.000000000000
         C           -1.180142423219    -0.278629322395    -0.006871343053    12.000000000000
         C            1.270002976781     0.116793877605    -0.173703143053    12.000000000000
         H            0.202515576781    -1.292924322395     1.260289656947     1.007825032230
         H            0.244893576781    -1.770377322395    -0.455655343053     1.007825032230
         H           -2.426632423219     0.866910677605     0.763837656947     1.007825032230

  Basis Set: AUG-CC-PVTZ
    Blend: AUG-CC-PVTZ
  Basis Set: (AUG-CC-PVTZ AUX)
    Blend: AUG-CC-PVTZ-JKFIT
	 Reference Energy          =    -415.0056161408193134 [Eh]
	 Singles Energy            =      -0.0000000000000000 [Eh]
	 Same-Spin Energy          =      -0.4020887432122416 [Eh]
	 Opposite-Spin Energy      =      -1.1711717423073533 [Eh]
	 Correlation Energy        =      -1.5732604855195949 [Eh]
	 Total Energy              =    -416.5788766263389107 [Eh]

	 ================> DF-SCS-MP2 Energies <==================
	-----------------------------------------------------------
	 SCS Same-Spin Scale       =       0.3333333333333333 [-]
	 SCS Opposite-Spin Scale   =       1.2000000000000000 [-]
	 SCS Same-Spin Energy      =      -0.1340295810707472 [Eh]
	 SCS Opposite-Spin Energy  =      -1.4054060907688239 [Eh]
	 SCS Correlation Energy    =      -1.5394356718395712 [Eh]
	 SCS Total Energy          =    -416.5450518126588690 [Eh]
	-----------------------------------------------------------

  Dipole Moment: [D]
     X:    -6.5165      Y:    -1.0663      Z:     1.4206     Total:     6.7542

*** Psi4 exiting successfully. Buy a developer a beer!
