                               Psi4 1.3.2 release

  ==> Input File <==

--------------------------------------------------------------------------
#psi4
#
memory 32 gb

molecule  {
-1 1
  O       -1.6248440     0.4205080     1.0662040
  O       -1.8285700    -0.2634140    -1.0709070
  O        0.9874640     1.2716570    -0.4175620
  O        2.4715130    -0.3822350     0.1558140
  C        0.1438310    -0.9061850     0.1996810
  C       -1.1683160    -0.2561350    -0.0391410
  C        1.3410260     0.1217830    -0.0505500
  H        0.2143420    -1.2704300     1.2280200
  H        0.2567200    -1.7478830    -0.4879250
  H       -2.4148060     0.8894050     0.7315680
units angstrom
no_reorient  #important for SAPT in psi4, default
symmetry c1  #important for SAPT in psi4, default
}

set PROPERTIES_ORIGIN ["COM"]
properties('MP2/aug-cc-pvtz', properties = ['dipole'])
--------------------------------------------------------------------------

    Molecular point group: c1
  Charge       = -1
  Multiplicity = 1
  Basis Set: AUG-CC-PVTZ
    Blend: AUG-CC-PVTZ
  Basis Set: (AUG-CC-PVTZ AUX)
    Blend: AUG-CC-PVTZ-JKFIT

    Orbital Energies [Eh]
    ---------------------

    Doubly Occupied:

       1A    -20.473332     2A    -20.407087     3A    -20.317022
       4A    -20.315896     5A    -11.246135     6A    -11.170330
       7A    -11.086319     8A     -1.314474     9A     -1.208479
      10A     -1.188297    11A     -1.094042    12A     -0.875512
      13A     -0.672488    14A     -0.563864    15A     -0.556099
      16A     -0.520442    17A     -0.488717    18A     -0.447099
      19A     -0.437990    20A     -0.427500    21A     -0.406012
      22A     -0.352724    23A     -0.339915    24A     -0.314531
      25A     -0.235363    26A     -0.216392    27A     -0.215747

  @DF-RHF Final Energy:  -415.02858260503820

   => Energetics <=

    Nuclear Repulsion Energy =            288.5792259376224251
    One-Electron Energy =               -1153.4319994022152969
    Two-Electron Energy =                 449.8241908595547329
    Total Energy =                       -415.0285826050381957
  Basis Set: (AUG-CC-PVTZ AUX)
    Blend: AUG-CC-PVTZ-RI
    Molecular point group: c1

    Geometry (in Angstrom), charge = -1, multiplicity = 1:

       Center              X                  Y                   Z               Mass
    ------------   -----------------  -----------------  -----------------  -----------------
         O           -1.643566904669     0.400053056338     1.080366697136    15.994914619570
         O           -1.847292904669    -0.283868943662    -1.056744302864    15.994914619570
         O            0.968741095331     1.251202056338    -0.403399302864    15.994914619570
         O            2.452790095331    -0.402689943662     0.169976697136    15.994914619570
         C            0.125108095331    -0.926639943662     0.213843697136    12.000000000000
         C           -1.187038904669    -0.276589943662    -0.024978302864    12.000000000000
         C            1.322303095331     0.101328056338    -0.036387302864    12.000000000000
         H            0.195619095331    -1.290884943662     1.242182697136     1.007825032230
         H            0.237997095331    -1.768337943662    -0.473762302864     1.007825032230
         H           -2.433528904669     0.868950056338     0.745730697136     1.007825032230

  Basis Set: AUG-CC-PVTZ
    Blend: AUG-CC-PVTZ
  Basis Set: (AUG-CC-PVTZ AUX)
    Blend: AUG-CC-PVTZ-JKFIT
	 Reference Energy          =    -415.0285826050381957 [Eh]
	 Singles Energy            =      -0.0000000000000000 [Eh]
	 Same-Spin Energy          =      -0.4012988590981037 [Eh]
	 Opposite-Spin Energy      =      -1.1691559032109851 [Eh]
	 Correlation Energy        =      -1.5704547623090888 [Eh]
	 Total Energy              =    -416.5990373673473073 [Eh]

	 ================> DF-SCS-MP2 Energies <==================
	-----------------------------------------------------------
	 SCS Same-Spin Scale       =       0.3333333333333333 [-]
	 SCS Opposite-Spin Scale   =       1.2000000000000000 [-]
	 SCS Same-Spin Energy      =      -0.1337662863660345 [Eh]
	 SCS Opposite-Spin Energy  =      -1.4029870838531819 [Eh]
	 SCS Correlation Energy    =      -1.5367533702192164 [Eh]
	 SCS Total Energy          =    -416.5653359752574261 [Eh]
	-----------------------------------------------------------

  Dipole Moment: [D]
     X:    -5.7931      Y:    -1.6514      Z:     1.7311     Total:     6.2677

*** Psi4 exiting successfully. Buy a developer a beer!
