                               Psi4 1.3.2 release

  ==> Input File <==

--------------------------------------------------------------------------
#psi4
#
memory 32 gb

molecule  {
-1 1
  O       -1.6248440     0.4205080     1.0662040
  O       -1.8285700    -0.2634140    -1.0709070
  O        0.9874640     1.2716570    -0.4175620
  O        2.4715130    -0.3822350     0.1558140
  C        0.1438310    -0.9061850     0.1996810
  C       -1.2332846    -0.3923095    -0.0023469
  C        1.3410260     0.1217830    -0.0505500
  H        0.2143420    -1.2704300     1.2280200
  H        0.2567200    -1.7478830    -0.4879250
  H       -2.4148060     0.8894050     0.7315680
units angstrom
no_reorient  #important for SAPT in psi4, default
symmetry c1  #important for SAPT in psi4, default
}

set PROPERTIES_ORIGIN ["COM"]
properties('MP2/aug-cc-pvtz', properties = ['dipole'])
--------------------------------------------------------------------------

    Molecular point group: c1
  Charge       = -1
  Multiplicity = 1
  Basis Set: AUG-CC-PVTZ
    Blend: AUG-CC-PVTZ
  Basis Set: (AUG-CC-PVTZ AUX)
    Blend: AUG-CC-PVTZ-JKFIT

    Orbital Energies [Eh]
    ---------------------

    Doubly Occupied:

       1A    -20.468099     2A    -20.413930     3A    -20.318379
       4A    -20.315001     5A    -11.248607     6A    -11.173014
       7A    -11.089083     8A     -1.305666     9A     -1.204226
      10A     -1.187901    11A     -1.093397    12A     -0.876874
      13A     -0.668006    14A     -0.562512    15A     -0.557572
      16A     -0.513582    17A     -0.483742    18A     -0.447405
      19A     -0.438080    20A     -0.424816    21A     -0.402395
      22A     -0.351544    23A     -0.339692    24A     -0.314207
      25A     -0.234719    26A     -0.217875    27A     -0.215633

  @DF-RHF Final Energy:  -415.01393909482658

   => Energetics <=

    Nuclear Repulsion Energy =            287.3708018817512766
    One-Electron Energy =               -1151.0375684518858179
    Two-Electron Energy =                 448.6528274753079586
    Total Energy =                       -415.0139390948265827
  Basis Set: (AUG-CC-PVTZ AUX)
    Blend: AUG-CC-PVTZ-RI
    Molecular point group: c1

    Geometry (in Angstrom), charge = -1, multiplicity = 1:

       Center              X                  Y                   Z               Mass
    ------------   -----------------  -----------------  -----------------  -----------------
         O           -1.635997977658     0.415917563982     1.076080136284    15.994914619570
         O           -1.839723977658    -0.268004436018    -1.061030863716    15.994914619570
         O            0.976310022342     1.267066563982    -0.407685863716    15.994914619570
         O            2.460359022342    -0.386825436018     0.165690136284    15.994914619570
         C            0.132677022342    -0.910775436018     0.209557136284    12.000000000000
         C           -1.244438577658    -0.396899936018     0.007529236284    12.000000000000
         C            1.329872022342     0.117192563982    -0.040673863716    12.000000000000
         H            0.203188022342    -1.275020436018     1.237896136284     1.007825032230
         H            0.245566022342    -1.752473436018    -0.478048863716     1.007825032230
         H           -2.425959977658     0.884814563982     0.741444136284     1.007825032230

  Basis Set: AUG-CC-PVTZ
    Blend: AUG-CC-PVTZ
  Basis Set: (AUG-CC-PVTZ AUX)
    Blend: AUG-CC-PVTZ-JKFIT
	 Reference Energy          =    -415.0139390948265827 [Eh]
	 Singles Energy            =      -0.0000000000000000 [Eh]
	 Same-Spin Energy          =      -0.4026274549828342 [Eh]
	 Opposite-Spin Energy      =      -1.1724751434707854 [Eh]
	 Correlation Energy        =      -1.5751025984536196 [Eh]
	 Total Energy              =    -416.5890416932801941 [Eh]

	 ================> DF-SCS-MP2 Energies <==================
	-----------------------------------------------------------
	 SCS Same-Spin Scale       =       0.3333333333333333 [-]
	 SCS Opposite-Spin Scale   =       1.2000000000000000 [-]
	 SCS Same-Spin Energy      =      -0.1342091516609447 [Eh]
	 SCS Opposite-Spin Energy  =      -1.4069701721649424 [Eh]
	 SCS Correlation Energy    =      -1.5411793238258871 [Eh]
	 SCS Total Energy          =    -416.5551184186524551 [Eh]
	-----------------------------------------------------------

  Dipole Moment: [D]
     X:    -5.7581      Y:    -1.8615      Z:     1.6428     Total:     6.2706

*** Psi4 exiting successfully. Buy a developer a beer!
