                               Psi4 1.3.2 release

  ==> Input File <==

--------------------------------------------------------------------------
#psi4
#
memory 32 gb

molecule  {
-1 1
  O       -1.6248440     0.4205080     1.0662040
  O       -1.8285700    -0.2634140    -1.0709070
  O        0.9874640     1.2716570    -0.4175620
  O        2.4715130    -0.3822350     0.1558140
  C        0.1438310    -0.9061850     0.1996810
  C       -1.1683160    -0.2561350    -0.0391410
  C        1.3320550     0.1254894    -0.0766907
  H        0.2143420    -1.2704300     1.2280200
  H        0.2567200    -1.7478830    -0.4879250
  H       -2.4148060     0.8894050     0.7315680
units angstrom
no_reorient  #important for SAPT in psi4, default
symmetry c1  #important for SAPT in psi4, default
}

set PROPERTIES_ORIGIN ["COM"]
properties('MP2/aug-cc-pvtz', properties = ['dipole'])
--------------------------------------------------------------------------

    Molecular point group: c1
  Charge       = -1
  Multiplicity = 1
  Basis Set: AUG-CC-PVTZ
    Blend: AUG-CC-PVTZ
  Basis Set: (AUG-CC-PVTZ AUX)
    Blend: AUG-CC-PVTZ-JKFIT

    Orbital Energies [Eh]
    ---------------------

    Doubly Occupied:

       1A    -20.473906     2A    -20.407543     3A    -20.320646
       4A    -20.312304     5A    -11.246333     6A    -11.170390
       7A    -11.086426     8A     -1.315030     9A     -1.209007
      10A     -1.189440    11A     -1.092538    12A     -0.875859
      13A     -0.672649    14A     -0.564361    15A     -0.555694
      16A     -0.521598    17A     -0.489362    18A     -0.447429
      19A     -0.438272    20A     -0.426826    21A     -0.406199
      22A     -0.353297    23A     -0.340089    24A     -0.314950
      25A     -0.235706    26A     -0.215952    27A     -0.215134

  @DF-RHF Final Energy:  -415.02797029567387

   => Energetics <=

    Nuclear Repulsion Energy =            288.6252053258781984
    One-Electron Energy =               -1153.5124675650886275
    Two-Electron Energy =                 449.8592919435366184
    Total Energy =                       -415.0279702956738674
  Basis Set: (AUG-CC-PVTZ AUX)
    Blend: AUG-CC-PVTZ-RI
    Molecular point group: c1

    Geometry (in Angstrom), charge = -1, multiplicity = 1:

       Center              X                  Y                   Z               Mass
    ------------   -----------------  -----------------  -----------------  -----------------
         O           -1.642521771417     0.399621255882     1.083412122932    15.994914619570
         O           -1.846247771417    -0.284300744118    -1.053698877068    15.994914619570
         O            0.969786228583     1.250770255882    -0.400353877068    15.994914619570
         O            2.453835228583    -0.403121744118     0.173022122932    15.994914619570
         C            0.126153228583    -0.927071744118     0.216889122932    12.000000000000
         C           -1.185993771417    -0.277021744118    -0.021932877068    12.000000000000
         C            1.314377228583     0.104602655882    -0.059482577068    12.000000000000
         H            0.196664228583    -1.291316744118     1.245228122932     1.007825032230
         H            0.239042228583    -1.768769744118    -0.470716877068     1.007825032230
         H           -2.432483771417     0.868518255882     0.748776122932     1.007825032230

  Basis Set: AUG-CC-PVTZ
    Blend: AUG-CC-PVTZ
  Basis Set: (AUG-CC-PVTZ AUX)
    Blend: AUG-CC-PVTZ-JKFIT
	 Reference Energy          =    -415.0279702956738674 [Eh]
	 Singles Energy            =      -0.0000000000000000 [Eh]
	 Same-Spin Energy          =      -0.4013226468434255 [Eh]
	 Opposite-Spin Energy      =      -1.1691984692054347 [Eh]
	 Correlation Energy        =      -1.5705211160488601 [Eh]
	 Total Energy              =    -416.5984914117227049 [Eh]

	 ================> DF-SCS-MP2 Energies <==================
	-----------------------------------------------------------
	 SCS Same-Spin Scale       =       0.3333333333333333 [-]
	 SCS Opposite-Spin Scale   =       1.2000000000000000 [-]
	 SCS Same-Spin Energy      =      -0.1337742156144752 [Eh]
	 SCS Opposite-Spin Energy  =      -1.4030381630465216 [Eh]
	 SCS Correlation Energy    =      -1.5368123786609968 [Eh]
	 SCS Total Energy          =    -416.5647826743348787 [Eh]
	-----------------------------------------------------------

  Dipole Moment: [D]
     X:    -5.9085      Y:    -1.5473      Z:     1.6758     Total:     6.3335

*** Psi4 exiting successfully. Buy a developer a beer!
