                               Psi4 1.3.2 release

  ==> Input File <==

--------------------------------------------------------------------------
#psi4
#
memory 32 gb

molecule  {
-1 1
  O       -1.6248440     0.4205080     1.0662040
  O       -1.8285700    -0.2634140    -1.0709070
  O        0.9874640     1.2716570    -0.4175620
  O        2.4715130    -0.3822350     0.1558140
  C        0.1438310    -0.9061850     0.1996810
  C       -1.1683160    -0.2561350    -0.0391410
  C        1.3410260     0.1217830    -0.0505500
  H        0.2041172    -1.1985067     1.2513658
  H        0.2567200    -1.7478830    -0.4879250
  H       -2.4148060     0.8894050     0.7315680
units angstrom
no_reorient  #important for SAPT in psi4, default
symmetry c1  #important for SAPT in psi4, default
}

set PROPERTIES_ORIGIN ["COM"]
properties('MP2/aug-cc-pvtz', properties = ['dipole'])
--------------------------------------------------------------------------

    Molecular point group: c1
  Charge       = -1
  Multiplicity = 1
  Basis Set: AUG-CC-PVTZ
    Blend: AUG-CC-PVTZ
  Basis Set: (AUG-CC-PVTZ AUX)
    Blend: AUG-CC-PVTZ-JKFIT

    Orbital Energies [Eh]
    ---------------------

    Doubly Occupied:

       1A    -20.473351     2A    -20.406503     3A    -20.316850
       4A    -20.316177     5A    -11.245321     6A    -11.170221
       7A    -11.086399     8A     -1.314383     9A     -1.208199
      10A     -1.188389    11A     -1.094094    12A     -0.876093
      13A     -0.671844    14A     -0.564264    15A     -0.556074
      16A     -0.517433    17A     -0.488707    18A     -0.447150
      19A     -0.442923    20A     -0.426527    21A     -0.404922
      22A     -0.354049    23A     -0.339992    24A     -0.313383
      25A     -0.235131    26A     -0.216498    27A     -0.215272

  @DF-RHF Final Energy:  -415.02816361193851

   => Energetics <=

    Nuclear Repulsion Energy =            288.6733150763013782
    One-Electron Energy =               -1153.6226562152960469
    Two-Electron Energy =                 449.9211775270561589
    Total Energy =                       -415.0281636119385098
  Basis Set: (AUG-CC-PVTZ AUX)
    Blend: AUG-CC-PVTZ-RI
    Molecular point group: c1

    Geometry (in Angstrom), charge = -1, multiplicity = 1:

       Center              X                  Y                   Z               Mass
    ------------   -----------------  -----------------  -----------------  -----------------
         O           -1.643466861020     0.399349329183     1.080138272225    15.994914619570
         O           -1.847192861020    -0.284572670817    -1.056972727775    15.994914619570
         O            0.968841138980     1.250498329183    -0.403627727775    15.994914619570
         O            2.452890138980    -0.403393670817     0.169748272225    15.994914619570
         C            0.125208138980    -0.927343670817     0.213615272225    12.000000000000
         C           -1.186938861020    -0.277293670817    -0.025206727775    12.000000000000
         C            1.322403138980     0.100624329183    -0.036615727775    12.000000000000
         H            0.185494338980    -1.219665370817     1.265300072225     1.007825032230
         H            0.238097138980    -1.769041670817    -0.473990727775     1.007825032230
         H           -2.433428861020     0.868246329183     0.745502272225     1.007825032230

  Basis Set: AUG-CC-PVTZ
    Blend: AUG-CC-PVTZ
  Basis Set: (AUG-CC-PVTZ AUX)
    Blend: AUG-CC-PVTZ-JKFIT
	 Reference Energy          =    -415.0281636119385098 [Eh]
	 Singles Energy            =      -0.0000000000000000 [Eh]
	 Same-Spin Energy          =      -0.4013798774390844 [Eh]
	 Opposite-Spin Energy      =      -1.1692412668806502 [Eh]
	 Correlation Energy        =      -1.5706211443197347 [Eh]
	 Total Energy              =    -416.5987847562582260 [Eh]

	 ================> DF-SCS-MP2 Energies <==================
	-----------------------------------------------------------
	 SCS Same-Spin Scale       =       0.3333333333333333 [-]
	 SCS Opposite-Spin Scale   =       1.2000000000000000 [-]
	 SCS Same-Spin Energy      =      -0.1337932924796948 [Eh]
	 SCS Opposite-Spin Energy  =      -1.4030895202567801 [Eh]
	 SCS Correlation Energy    =      -1.5368828127364749 [Eh]
	 SCS Total Energy          =    -416.5650464246749607 [Eh]
	-----------------------------------------------------------

  Dipole Moment: [D]
     X:    -5.7744      Y:    -1.6225      Z:     1.7340     Total:     6.2436

*** Psi4 exiting successfully. Buy a developer a beer!
