                               Psi4 1.4a3.dev225

  ==> Input File <==

--------------------------------------------------------------------------
#psi4
#
memory 32 gb

molecule  {
-1 1
  O       -1.6007150    -0.1046360     1.1589700
  O       -1.8247480     0.2557850    -1.0595740
  O        0.9980150     1.3323240     0.0674640
  O        2.4614550    -0.4137090     0.0564000
  C        0.1428070    -0.8965380    -0.2290110
  C       -1.1744150    -0.2029730    -0.1298180
  C        1.3185970     0.1123410    -0.0074440
  H        0.2128160    -1.7138000     0.5233651
  H        0.2355680    -1.3348830    -1.2264790
  H       -2.4411180     0.3988970     1.1281900
units angstrom
no_reorient  #important for SAPT in psi4, default
symmetry c1  #important for SAPT in psi4, default
}

set PROPERTIES_ORIGIN ["COM"]
properties('MP2/aug-cc-pvtz', properties = ['dipole'])
--------------------------------------------------------------------------

    Molecular point group: c1
  Charge       = -1
  Multiplicity = 1
  Basis Set: AUG-CC-PVTZ
    Blend: AUG-CC-PVTZ
  Basis Set: (AUG-CC-PVTZ AUX)
    Blend: AUG-CC-PVTZ-JKFIT

    Orbital Energies [Eh]
    ---------------------

    Doubly Occupied:

       1A    -20.479183     2A    -20.407228     3A    -20.311500
       4A    -20.310459     5A    -11.247361     6A    -11.164740
       7A    -11.090498     8A     -1.319593     9A     -1.212468
      10A     -1.182550    11A     -1.083788    12A     -0.877267
      13A     -0.683411    14A     -0.565629    15A     -0.560240
      16A     -0.521675    17A     -0.487903    18A     -0.446050
      19A     -0.437709    20A     -0.428466    21A     -0.400857
      22A     -0.348097    23A     -0.338194    24A     -0.314253
      25A     -0.227604    26A     -0.219080    27A     -0.209697

  @DF-RHF Final Energy:  -415.02785279950893

   => Energetics <=

    Nuclear Repulsion Energy =            289.1028503357387081
    One-Electron Energy =               -1154.5104085275370380
    Two-Electron Energy =                 450.3797053922893951
    Total Energy =                       -415.0278527995089348
  Basis Set: (AUG-CC-PVTZ AUX)
    Blend: AUG-CC-PVTZ-RI
    Molecular point group: c1

    Geometry (in Angstrom), charge = -1, multiplicity = 1:

       Center              X                  Y                   Z               Mass
    ------------   -----------------  -----------------  -----------------  -----------------
         O           -1.619932666347    -0.129821866606     1.162813077527    15.994914619570
         O           -1.843965666347     0.230599133394    -1.055730922473    15.994914619570
         O            0.978797333653     1.307138133394     0.071307077527    15.994914619570
         O            2.442237333653    -0.438894866606     0.060243077527    15.994914619570
         C            0.123589333653    -0.921723866606    -0.225167922473    12.000000000000
         C           -1.193632666347    -0.228158866606    -0.125974922473    12.000000000000
         C            1.299379333653     0.087155133394    -0.003600922473    12.000000000000
         H            0.193598333653    -1.738985866606     0.527208177527     1.007825032230
         H            0.216350333653    -1.360068866606    -1.222635922473     1.007825032230
         H           -2.460335666347     0.373711133394     1.132033077527     1.007825032230

  Basis Set: AUG-CC-PVTZ
    Blend: AUG-CC-PVTZ
  Basis Set: (AUG-CC-PVTZ AUX)
    Blend: AUG-CC-PVTZ-JKFIT
	 Reference Energy          =    -415.0278527995089348 [Eh]
	 Singles Energy            =      -0.0000000000000000 [Eh]
	 Same-Spin Energy          =      -0.4011061447174286 [Eh]
	 Opposite-Spin Energy      =      -1.1690204046267914 [Eh]
	 Correlation Energy        =      -1.5701265493442200 [Eh]
	 Total Energy              =    -416.5979793488531300 [Eh]

	 ================> DF-SCS-MP2 Energies <==================
	-----------------------------------------------------------
	 SCS Same-Spin Scale       =       0.3333333333333333 [-]
	 SCS Opposite-Spin Scale   =       1.2000000000000000 [-]
	 SCS Same-Spin Energy      =      -0.1337020482391428 [Eh]
	 SCS Opposite-Spin Energy  =      -1.4028244855521497 [Eh]
	 SCS Correlation Energy    =      -1.5365265337912926 [Eh]
	 SCS Total Energy          =    -416.5643793333002236 [Eh]
	-----------------------------------------------------------

  Dipole Moment: [D]
     X:    -6.2115      Y:    -2.4452      Z:     0.9586     Total:     6.7440

*** Psi4 exiting successfully. Buy a developer a beer!
