                               Psi4 1.3.2 release

  ==> Input File <==

--------------------------------------------------------------------------
#psi4
#
memory 32 gb

molecule  {
-1 1
  O       -1.6248440     0.4205080     1.0662040
  O       -1.8285700    -0.2634140    -1.0709070
  O        0.9874640     1.2716570    -0.4175620
  O        2.4715130    -0.3822350     0.1558140
  C        0.1438310    -0.9061850     0.1996810
  C       -1.1801637    -0.2783756    -0.0331798
  C        1.3410260     0.1217830    -0.0505500
  H        0.2143420    -1.2704300     1.2280200
  H        0.2567200    -1.7478830    -0.4879250
  H       -2.4148060     0.8894050     0.7315680
units angstrom
no_reorient  #important for SAPT in psi4, default
symmetry c1  #important for SAPT in psi4, default
}

set PROPERTIES_ORIGIN ["COM"]
properties('MP2/aug-cc-pvtz', properties = ['dipole'])
--------------------------------------------------------------------------

    Molecular point group: c1
  Charge       = -1
  Multiplicity = 1
  Basis Set: AUG-CC-PVTZ
    Blend: AUG-CC-PVTZ
  Basis Set: (AUG-CC-PVTZ AUX)
    Blend: AUG-CC-PVTZ-JKFIT

    Orbital Energies [Eh]
    ---------------------

    Doubly Occupied:

       1A    -20.472697     2A    -20.408061     3A    -20.316468
       4A    -20.316164     5A    -11.246008     6A    -11.170631
       7A    -11.086548     8A     -1.313855     9A     -1.208971
      10A     -1.188054    11A     -1.093766    12A     -0.875613
      13A     -0.671988    14A     -0.563825    15A     -0.556719
      16A     -0.519584    17A     -0.488227    18A     -0.447379
      19A     -0.437955    20A     -0.427163    21A     -0.405502
      22A     -0.352538    23A     -0.340421    24A     -0.314710
      25A     -0.235053    26A     -0.216249    27A     -0.215926

  @DF-RHF Final Energy:  -415.02803898752870

   => Energetics <=

    Nuclear Repulsion Energy =            288.4256362162008713
    One-Electron Energy =               -1153.1271978701154239
    Two-Electron Energy =                 449.6735226663857929
    Total Energy =                       -415.0280389875287028
  Basis Set: (AUG-CC-PVTZ AUX)
    Blend: AUG-CC-PVTZ-RI
    Molecular point group: c1

    Geometry (in Angstrom), charge = -1, multiplicity = 1:

       Center              X                  Y                   Z               Mass
    ------------   -----------------  -----------------  -----------------  -----------------
         O           -1.642186632098     0.402644115374     1.079672209527    15.994914619570
         O           -1.845912632098    -0.281277884626    -1.057438790473    15.994914619570
         O            0.970121367902     1.253793115374    -0.404093790473    15.994914619570
         O            2.454170367902    -0.400098884626     0.169282209527    15.994914619570
         C            0.126488367902    -0.924048884626     0.213149209527    12.000000000000
         C           -1.197506332098    -0.296239484626    -0.019711590473    12.000000000000
         C            1.323683367902     0.103919115374    -0.037081790473    12.000000000000
         H            0.196999367902    -1.288293884626     1.241488209527     1.007825032230
         H            0.239377367902    -1.765746884626    -0.474456790473     1.007825032230
         H           -2.432148632098     0.871541115374     0.745036209527     1.007825032230

  Basis Set: AUG-CC-PVTZ
    Blend: AUG-CC-PVTZ
  Basis Set: (AUG-CC-PVTZ AUX)
    Blend: AUG-CC-PVTZ-JKFIT
	 Reference Energy          =    -415.0280389875287028 [Eh]
	 Singles Energy            =      -0.0000000000000000 [Eh]
	 Same-Spin Energy          =      -0.4013760394823269 [Eh]
	 Opposite-Spin Energy      =      -1.1693534213372856 [Eh]
	 Correlation Energy        =      -1.5707294608196125 [Eh]
	 Total Energy              =    -416.5987684483483235 [Eh]

	 ================> DF-SCS-MP2 Energies <==================
	-----------------------------------------------------------
	 SCS Same-Spin Scale       =       0.3333333333333333 [-]
	 SCS Opposite-Spin Scale   =       1.2000000000000000 [-]
	 SCS Same-Spin Energy      =      -0.1337920131607756 [Eh]
	 SCS Opposite-Spin Energy  =      -1.4032241056047428 [Eh]
	 SCS Correlation Energy    =      -1.5370161187655185 [Eh]
	 SCS Total Energy          =    -416.5650551062942100 [Eh]
	-----------------------------------------------------------

  Dipole Moment: [D]
     X:    -5.8040      Y:    -1.6866      Z:     1.7205     Total:     6.2841

*** Psi4 exiting successfully. Buy a developer a beer!
