                               Psi4 1.3.2 release

  ==> Input File <==

--------------------------------------------------------------------------
#psi4
#
memory 32 gb

molecule  {
-1 1
  O       -1.6248440     0.4205080     1.0662040
  O       -1.8285700    -0.2634140    -1.0709070
  O        0.9874640     1.2716570    -0.4175620
  O        2.4715130    -0.3822350     0.1558140
  C        0.1438310    -0.9061850     0.1996810
  C       -1.1683160    -0.2561350    -0.0391410
  C        1.2660931     0.0574421    -0.0348879
  H        0.2143420    -1.2704300     1.2280200
  H        0.2567200    -1.7478830    -0.4879250
  H       -2.4148060     0.8894050     0.7315680
units angstrom
no_reorient  #important for SAPT in psi4, default
symmetry c1  #important for SAPT in psi4, default
}

set PROPERTIES_ORIGIN ["COM"]
properties('MP2/aug-cc-pvtz', properties = ['dipole'])
--------------------------------------------------------------------------

    Molecular point group: c1
  Charge       = -1
  Multiplicity = 1
  Basis Set: AUG-CC-PVTZ
    Blend: AUG-CC-PVTZ
  Basis Set: (AUG-CC-PVTZ AUX)
    Blend: AUG-CC-PVTZ-JKFIT

    Orbital Energies [Eh]
    ---------------------

    Doubly Occupied:

       1A    -20.479260     2A    -20.414730     3A    -20.311647
       4A    -20.309600     5A    -11.255184     6A    -11.169559
       7A    -11.098894     8A     -1.321089     9A     -1.215278
      10A     -1.161735    11A     -1.059530    12A     -0.898939
      13A     -0.687671    14A     -0.572598    15A     -0.570679
      16A     -0.530910    17A     -0.487848    18A     -0.453658
      19A     -0.449693    20A     -0.424927    21A     -0.386488
      22A     -0.348970    23A     -0.327999    24A     -0.319025
      25A     -0.230705    26A     -0.217602    27A     -0.200814

  @DF-RHF Final Energy:  -415.01446835720401

   => Energetics <=

    Nuclear Repulsion Energy =            288.7399086055082762
    One-Electron Energy =               -1153.6986880821066279
    Two-Electron Energy =                 449.9443111193943423
    Total Energy =                       -415.0144683572040094
  Basis Set: (AUG-CC-PVTZ AUX)
    Blend: AUG-CC-PVTZ-RI
    Molecular point group: c1

    Geometry (in Angstrom), charge = -1, multiplicity = 1:

       Center              X                  Y                   Z               Mass
    ------------   -----------------  -----------------  -----------------  -----------------
         O           -1.634837123654     0.407548855477     1.078542041968    15.994914619570
         O           -1.838563123654    -0.276373144523    -1.058568958032    15.994914619570
         O            0.977470876346     1.258697855477    -0.405223958032    15.994914619570
         O            2.461519876346    -0.395194144523     0.168152041968    15.994914619570
         C            0.133837876346    -0.919144144523     0.212019041968    12.000000000000
         C           -1.178309123654    -0.269094144523    -0.026802958032    12.000000000000
         C            1.256099976346     0.044482955477    -0.022549858032    12.000000000000
         H            0.204348876346    -1.283389144523     1.240358041968     1.007825032230
         H            0.246726876346    -1.760842144523    -0.475586958032     1.007825032230
         H           -2.424799123654     0.876445855477     0.743906041968     1.007825032230

  Basis Set: AUG-CC-PVTZ
    Blend: AUG-CC-PVTZ
  Basis Set: (AUG-CC-PVTZ AUX)
    Blend: AUG-CC-PVTZ-JKFIT
	 Reference Energy          =    -415.0144683572040094 [Eh]
	 Singles Energy            =      -0.0000000000000000 [Eh]
	 Same-Spin Energy          =      -0.4028860807647120 [Eh]
	 Opposite-Spin Energy      =      -1.1732168588663074 [Eh]
	 Correlation Energy        =      -1.5761029396310193 [Eh]
	 Total Energy              =    -416.5905712968350372 [Eh]

	 ================> DF-SCS-MP2 Energies <==================
	-----------------------------------------------------------
	 SCS Same-Spin Scale       =       0.3333333333333333 [-]
	 SCS Opposite-Spin Scale   =       1.2000000000000000 [-]
	 SCS Same-Spin Energy      =      -0.1342953602549040 [Eh]
	 SCS Opposite-Spin Energy  =      -1.4078602306395689 [Eh]
	 SCS Correlation Energy    =      -1.5421555908944728 [Eh]
	 SCS Total Energy          =    -416.5566239480984905 [Eh]
	-----------------------------------------------------------

  Dipole Moment: [D]
     X:    -6.5040      Y:    -2.0414      Z:     1.8139     Total:     7.0540

*** Psi4 exiting successfully. Buy a developer a beer!
