                               Psi4 1.4a3.dev225

  ==> Input File <==

--------------------------------------------------------------------------
#psi4
#
memory 32 gb

molecule  {
-1 1
  O       -1.6007150    -0.1046360     1.1589700
  O       -1.8247480     0.2557850    -1.0595740
  O        0.9980150     1.3323240     0.0674640
  O        2.4614550    -0.4137090     0.0564000
  C        0.1428070    -0.8965380    -0.2290110
  C       -1.1567574    -0.2122704    -0.1311477
  C        1.3185970     0.1123410    -0.0074440
  H        0.2115580    -1.6991150     0.5098460
  H        0.2355680    -1.3348830    -1.2264790
  H       -2.4411180     0.3988970     1.1281900
units angstrom
no_reorient  #important for SAPT in psi4, default
symmetry c1  #important for SAPT in psi4, default
}

set PROPERTIES_ORIGIN ["COM"]
properties('MP2/aug-cc-pvtz', properties = ['dipole'])
--------------------------------------------------------------------------

    Molecular point group: c1
  Charge       = -1
  Multiplicity = 1
  Basis Set: AUG-CC-PVTZ
    Blend: AUG-CC-PVTZ
  Basis Set: (AUG-CC-PVTZ AUX)
    Blend: AUG-CC-PVTZ-JKFIT

    Orbital Energies [Eh]
    ---------------------

    Doubly Occupied:

       1A    -20.477290     2A    -20.405798     3A    -20.312555
       4A    -20.311806     5A    -11.248831     6A    -11.166414
       7A    -11.088879     8A     -1.314040     9A     -1.204543
      10A     -1.183797    11A     -1.085024    12A     -0.885513
      13A     -0.682708    14A     -0.564394    15A     -0.559788
      16A     -0.522830    17A     -0.485762    18A     -0.445402
      19A     -0.441037    20A     -0.428637    21A     -0.401714
      22A     -0.347924    23A     -0.336121    24A     -0.314233
      25A     -0.228909    26A     -0.220518    27A     -0.210732

  @DF-RHF Final Energy:  -415.02638911510201

   => Energetics <=

    Nuclear Repulsion Energy =            289.1968390685669874
    One-Electron Energy =               -1154.6960594415602372
    Two-Electron Energy =                 450.4728312578912437
    Total Energy =                       -415.0263891151020061
  Basis Set: (AUG-CC-PVTZ AUX)
    Blend: AUG-CC-PVTZ-RI
    Molecular point group: c1

    Geometry (in Angstrom), charge = -1, multiplicity = 1:

       Center              X                  Y                   Z               Mass
    ------------   -----------------  -----------------  -----------------  -----------------
         O           -1.621977491089    -0.128882391407     1.163100265755    15.994914619570
         O           -1.846010491089     0.231538608593    -1.055443734245    15.994914619570
         O            0.976752508911     1.308077608593     0.071594265755    15.994914619570
         O            2.440192508911    -0.437955391407     0.060530265755    15.994914619570
         C            0.121544508911    -0.920784391407    -0.224880734245    12.000000000000
         C           -1.178019891089    -0.236516791407    -0.127017434245    12.000000000000
         C            1.297334508911     0.088094608593    -0.003313734245    12.000000000000
         H            0.190295508911    -1.723361391407     0.513976265755     1.007825032230
         H            0.214305508911    -1.359129391407    -1.222348734245     1.007825032230
         H           -2.462380491089     0.374650608593     1.132320265755     1.007825032230

  Basis Set: AUG-CC-PVTZ
    Blend: AUG-CC-PVTZ
  Basis Set: (AUG-CC-PVTZ AUX)
    Blend: AUG-CC-PVTZ-JKFIT
	 Reference Energy          =    -415.0263891151020061 [Eh]
	 Singles Energy            =      -0.0000000000000000 [Eh]
	 Same-Spin Energy          =      -0.4015857351854767 [Eh]
	 Opposite-Spin Energy      =      -1.1697824095356260 [Eh]
	 Correlation Energy        =      -1.5713681447211028 [Eh]
	 Total Energy              =    -416.5977572598230836 [Eh]

	 ================> DF-SCS-MP2 Energies <==================
	-----------------------------------------------------------
	 SCS Same-Spin Scale       =       0.3333333333333333 [-]
	 SCS Opposite-Spin Scale   =       1.2000000000000000 [-]
	 SCS Same-Spin Energy      =      -0.1338619117284922 [Eh]
	 SCS Opposite-Spin Energy  =      -1.4037388914427511 [Eh]
	 SCS Correlation Energy    =      -1.5376008031712434 [Eh]
	 SCS Total Energy          =    -416.5639899182732506 [Eh]
	-----------------------------------------------------------

  Dipole Moment: [D]
     X:    -6.0720      Y:    -2.4959      Z:     0.9537     Total:     6.6339

*** Psi4 exiting successfully. Buy a developer a beer!
