                               Psi4 1.3.2 release

  ==> Input File <==

--------------------------------------------------------------------------
#psi4
#
memory 32 gb

molecule  {
-1 1
  O       -1.6248440     0.4205080     1.0662040
  O       -1.8285700    -0.2634140    -1.0709070
  O        0.9874640     1.2716570    -0.4175620
  O        2.4715130    -0.3822350     0.1558140
  C        0.1438310    -0.9061850     0.1996810
  C       -1.1683160    -0.2561350    -0.0391410
  C        1.3871059     0.0930152     0.1076144
  H        0.2143420    -1.2704300     1.2280200
  H        0.2567200    -1.7478830    -0.4879250
  H       -2.4148060     0.8894050     0.7315680
units angstrom
no_reorient  #important for SAPT in psi4, default
symmetry c1  #important for SAPT in psi4, default
}

set PROPERTIES_ORIGIN ["COM"]
properties('MP2/aug-cc-pvtz', properties = ['dipole'])
--------------------------------------------------------------------------

    Molecular point group: c1
  Charge       = -1
  Multiplicity = 1
  Basis Set: AUG-CC-PVTZ
    Blend: AUG-CC-PVTZ
  Basis Set: (AUG-CC-PVTZ AUX)
    Blend: AUG-CC-PVTZ-JKFIT

    Orbital Energies [Eh]
    ---------------------

    Doubly Occupied:

       1A    -20.470265     2A    -20.404689     3A    -20.338234
       4A    -20.296890     5A    -11.245580     6A    -11.171177
       7A    -11.088404     8A     -1.311573     9A     -1.218445
      10A     -1.205720    11A     -1.059254    12A     -0.874443
      13A     -0.672549    14A     -0.564046    15A     -0.559059
      16A     -0.515889    17A     -0.489616    18A     -0.449260
      19A     -0.439371    20A     -0.431341    21A     -0.401898
      22A     -0.357119    23A     -0.339878    24A     -0.312023
      25A     -0.230171    26A     -0.207203    27A     -0.206148

  @DF-RHF Final Energy:  -415.00479383435203

   => Energetics <=

    Nuclear Repulsion Energy =            288.0895728673793315
    One-Electron Energy =               -1152.4682437122517058
    Two-Electron Energy =                 449.3738770105204026
    Total Energy =                       -415.0047938343520286
  Basis Set: (AUG-CC-PVTZ AUX)
    Blend: AUG-CC-PVTZ-RI
    Molecular point group: c1

    Geometry (in Angstrom), charge = -1, multiplicity = 1:

       Center              X                  Y                   Z               Mass
    ------------   -----------------  -----------------  -----------------  -----------------
         O           -1.648935273386     0.403404542725     1.061940337334    15.994914619570
         O           -1.852661273386    -0.280517457275    -1.075170662666    15.994914619570
         O            0.963372726614     1.254553542725    -0.421825662666    15.994914619570
         O            2.447421726614    -0.399338457275     0.151550337334    15.994914619570
         C            0.119739726614    -0.923288457275     0.195417337334    12.000000000000
         C           -1.192407273386    -0.273238457275    -0.043404662666    12.000000000000
         C            1.363014626614     0.075911742725     0.103350737334    12.000000000000
         H            0.190250726614    -1.287533457275     1.223756337334     1.007825032230
         H            0.232628726614    -1.764986457275    -0.492188662666     1.007825032230
         H           -2.438897273386     0.872301542725     0.727304337334     1.007825032230

  Basis Set: AUG-CC-PVTZ
    Blend: AUG-CC-PVTZ
  Basis Set: (AUG-CC-PVTZ AUX)
    Blend: AUG-CC-PVTZ-JKFIT
	 Reference Energy          =    -415.0047938343520286 [Eh]
	 Singles Energy            =      -0.0000000000000000 [Eh]
	 Same-Spin Energy          =      -0.4020627796227609 [Eh]
	 Opposite-Spin Energy      =      -1.1713189182102861 [Eh]
	 Correlation Energy        =      -1.5733816978330470 [Eh]
	 Total Energy              =    -416.5781755321850710 [Eh]

	 ================> DF-SCS-MP2 Energies <==================
	-----------------------------------------------------------
	 SCS Same-Spin Scale       =       0.3333333333333333 [-]
	 SCS Opposite-Spin Scale   =       1.2000000000000000 [-]
	 SCS Same-Spin Energy      =      -0.1340209265409203 [Eh]
	 SCS Opposite-Spin Energy  =      -1.4055827018523432 [Eh]
	 SCS Correlation Energy    =      -1.5396036283932635 [Eh]
	 SCS Total Energy          =    -416.5443974627452803 [Eh]
	-----------------------------------------------------------

  Dipole Moment: [D]
     X:    -5.1704      Y:    -2.3101      Z:     2.0661     Total:     6.0281

*** Psi4 exiting successfully. Buy a developer a beer!
