                               Psi4 1.3.2 release

  ==> Input File <==

--------------------------------------------------------------------------
#psi4
#
memory 32 gb

molecule  {
-1 1
  O       -1.6248440     0.4205080     1.0662040
  O       -1.8285700    -0.2634140    -1.0709070
  O        0.9874640     1.2716570    -0.4175620
  O        2.4715130    -0.3822350     0.1558140
  C        0.1438310    -0.9061850     0.1996810
  C       -1.1926746    -0.2774086     0.0592397
  C        1.3410260     0.1217830    -0.0505500
  H        0.2143420    -1.2704300     1.2280200
  H        0.2567200    -1.7478830    -0.4879250
  H       -2.4148060     0.8894050     0.7315680
units angstrom
no_reorient  #important for SAPT in psi4, default
symmetry c1  #important for SAPT in psi4, default
}

set PROPERTIES_ORIGIN ["COM"]
properties('MP2/aug-cc-pvtz', properties = ['dipole'])
--------------------------------------------------------------------------

    Molecular point group: c1
  Charge       = -1
  Multiplicity = 1
  Basis Set: AUG-CC-PVTZ
    Blend: AUG-CC-PVTZ
  Basis Set: (AUG-CC-PVTZ AUX)
    Blend: AUG-CC-PVTZ-JKFIT

    Orbital Energies [Eh]
    ---------------------

    Doubly Occupied:

       1A    -20.495453     2A    -20.391583     3A    -20.316846
       4A    -20.316363     5A    -11.249663     6A    -11.171357
       7A    -11.087372     8A     -1.345033     9A     -1.188727
      10A     -1.170212    11A     -1.093868    12A     -0.878107
      13A     -0.702434    14A     -0.572684    15A     -0.559674
      16A     -0.521260    17A     -0.496539    18A     -0.445760
      19A     -0.434531    20A     -0.427197    21A     -0.399360
      22A     -0.351907    23A     -0.317613    24A     -0.302083
      25A     -0.235001    26A     -0.216416    27A     -0.216043

  @DF-RHF Final Energy:  -415.01417120785436

   => Energetics <=

    Nuclear Repulsion Energy =            288.2635286265569903
    One-Electron Energy =               -1152.7492269621666310
    Two-Electron Energy =                 449.4715271277552802
    Total Energy =                       -415.0141712078543605
  Basis Set: (AUG-CC-PVTZ AUX)
    Blend: AUG-CC-PVTZ-RI
    Molecular point group: c1

    Geometry (in Angstrom), charge = -1, multiplicity = 1:

       Center              X                  Y                   Z               Mass
    ------------   -----------------  -----------------  -----------------  -----------------
         O           -1.640729095859     0.402531458607     1.068905216703    15.994914619570
         O           -1.844455095859    -0.281390541393    -1.068205783297    15.994914619570
         O            0.971578904141     1.253680458607    -0.414860783297    15.994914619570
         O            2.455627904141    -0.400211541393     0.158515216703    15.994914619570
         C            0.127945904141    -0.924161541393     0.202382216703    12.000000000000
         C           -1.208559695859    -0.295385141393     0.061940916703    12.000000000000
         C            1.325140904141     0.103806458607    -0.047848783297    12.000000000000
         H            0.198456904141    -1.288406541393     1.230721216703     1.007825032230
         H            0.240834904141    -1.765859541393    -0.485223783297     1.007825032230
         H           -2.430691095859     0.871428458607     0.734269216703     1.007825032230

  Basis Set: AUG-CC-PVTZ
    Blend: AUG-CC-PVTZ
  Basis Set: (AUG-CC-PVTZ AUX)
    Blend: AUG-CC-PVTZ-JKFIT
	 Reference Energy          =    -415.0141712078543605 [Eh]
	 Singles Energy            =      -0.0000000000000000 [Eh]
	 Same-Spin Energy          =      -0.4024832642517645 [Eh]
	 Opposite-Spin Energy      =      -1.1709812691013295 [Eh]
	 Correlation Energy        =      -1.5734645333530941 [Eh]
	 Total Energy              =    -416.5876357412074640 [Eh]

	 ================> DF-SCS-MP2 Energies <==================
	-----------------------------------------------------------
	 SCS Same-Spin Scale       =       0.3333333333333333 [-]
	 SCS Opposite-Spin Scale   =       1.2000000000000000 [-]
	 SCS Same-Spin Energy      =      -0.1341610880839215 [Eh]
	 SCS Opposite-Spin Energy  =      -1.4051775229215953 [Eh]
	 SCS Correlation Energy    =      -1.5393386110055167 [Eh]
	 SCS Total Energy          =    -416.5535098188598795 [Eh]
	-----------------------------------------------------------

  Dipole Moment: [D]
     X:    -5.7930      Y:    -1.4432      Z:     2.4320     Total:     6.4464

*** Psi4 exiting successfully. Buy a developer a beer!
