                               Psi4 1.3.2 release

  ==> Input File <==

--------------------------------------------------------------------------
#psi4
#
memory 32 gb

molecule  {
-1 1
  O       -1.6248440     0.4205080     1.0662040
  O       -1.8285700    -0.2634140    -1.0709070
  O        0.9874640     1.2716570    -0.4175620
  O        2.4715130    -0.3822350     0.1558140
  C        0.1438310    -0.9061850     0.1996810
  C       -1.1683160    -0.2561350    -0.0391410
  C        1.4908919     0.2504649    -0.0818741
  H        0.2143420    -1.2704300     1.2280200
  H        0.2567200    -1.7478830    -0.4879250
  H       -2.4148060     0.8894050     0.7315680
units angstrom
no_reorient  #important for SAPT in psi4, default
symmetry c1  #important for SAPT in psi4, default
}

set PROPERTIES_ORIGIN ["COM"]
properties('MP2/aug-cc-pvtz', properties = ['dipole'])
--------------------------------------------------------------------------

    Molecular point group: c1
  Charge       = -1
  Multiplicity = 1
  Basis Set: AUG-CC-PVTZ
    Blend: AUG-CC-PVTZ
  Basis Set: (AUG-CC-PVTZ AUX)
    Blend: AUG-CC-PVTZ-JKFIT

    Orbital Energies [Eh]
    ---------------------

    Doubly Occupied:

       1A    -20.456151     2A    -20.384029     3A    -20.345571
       4A    -20.345536     5A    -11.220634     6A    -11.190935
       7A    -11.043627     8A     -1.295612     9A     -1.247025
      10A     -1.188412    11A     -1.172843    12A     -0.831124
      13A     -0.642732    14A     -0.544781    15A     -0.544069
      16A     -0.503422    17A     -0.488745    18A     -0.466739
      19A     -0.441170    20A     -0.439851    21A     -0.408132
      22A     -0.368441    23A     -0.327582    24A     -0.298704
      25A     -0.271502    26A     -0.259043    27A     -0.168787

  @DF-RHF Final Energy:  -415.00820890686828

   => Energetics <=

    Nuclear Repulsion Energy =            288.1658748231353115
    One-Electron Energy =               -1152.5577678764225311
    Two-Electron Energy =                 449.3836841464190002
    Total Energy =                       -415.0082089068682762
  Basis Set: (AUG-CC-PVTZ AUX)
    Blend: AUG-CC-PVTZ-RI
    Molecular point group: c1

    Geometry (in Angstrom), charge = -1, multiplicity = 1:

       Center              X                  Y                   Z               Mass
    ------------   -----------------  -----------------  -----------------  -----------------
         O           -1.661026478350     0.385061446409     1.084015995822    15.994914619570
         O           -1.864752478350    -0.298860553591    -1.053095004178    15.994914619570
         O            0.951281521650     1.236210446409    -0.399750004178    15.994914619570
         O            2.435330521650    -0.417681553591     0.173625995822    15.994914619570
         C            0.107648521650    -0.941631553591     0.217492995822    12.000000000000
         C           -1.204498478350    -0.291581553591    -0.021329004178    12.000000000000
         C            1.454709421650     0.215018346409    -0.064062104178    12.000000000000
         H            0.178159521650    -1.305876553591     1.245831995822     1.007825032230
         H            0.220537521650    -1.783329553591    -0.470113004178     1.007825032230
         H           -2.450988478350     0.853958446409     0.749379995822     1.007825032230

  Basis Set: AUG-CC-PVTZ
    Blend: AUG-CC-PVTZ
  Basis Set: (AUG-CC-PVTZ AUX)
    Blend: AUG-CC-PVTZ-JKFIT
	 Reference Energy          =    -415.0082089068682762 [Eh]
	 Singles Energy            =      -0.0000000000000000 [Eh]
	 Same-Spin Energy          =      -0.4017821282058680 [Eh]
	 Opposite-Spin Energy      =      -1.1669714646003988 [Eh]
	 Correlation Energy        =      -1.5687535928062668 [Eh]
	 Total Energy              =    -416.5769624996745506 [Eh]

	 ================> DF-SCS-MP2 Energies <==================
	-----------------------------------------------------------
	 SCS Same-Spin Scale       =       0.3333333333333333 [-]
	 SCS Opposite-Spin Scale   =       1.2000000000000000 [-]
	 SCS Same-Spin Energy      =      -0.1339273760686226 [Eh]
	 SCS Opposite-Spin Energy  =      -1.4003657575204784 [Eh]
	 SCS Correlation Energy    =      -1.5342931335891010 [Eh]
	 SCS Total Energy          =    -416.5425020404573502 [Eh]
	-----------------------------------------------------------

  Dipole Moment: [D]
     X:    -3.6106      Y:    -0.4610      Z:     1.4848     Total:     3.9311

*** Psi4 exiting successfully. Buy a developer a beer!
