                               Psi4 1.3.2 release

  ==> Input File <==

--------------------------------------------------------------------------
#psi4
#
memory 32 gb

molecule  {
-1 1
  O       -1.6248440     0.4205080     1.0662040
  O       -1.8285700    -0.2634140    -1.0709070
  O        0.9874640     1.2716570    -0.4175620
  O        2.4715130    -0.3822350     0.1558140
  C        0.1438310    -0.9061850     0.1996810
  C       -1.1683160    -0.2561350    -0.0391410
  C        1.3410260     0.1217830    -0.0505500
  H        0.2272417    -1.3370672     1.4161505
  H        0.2567200    -1.7478830    -0.4879250
  H       -2.4148060     0.8894050     0.7315680
units angstrom
no_reorient  #important for SAPT in psi4, default
symmetry c1  #important for SAPT in psi4, default
}

set PROPERTIES_ORIGIN ["COM"]
properties('MP2/aug-cc-pvtz', properties = ['dipole'])
--------------------------------------------------------------------------

    Molecular point group: c1
  Charge       = -1
  Multiplicity = 1
  Basis Set: AUG-CC-PVTZ
    Blend: AUG-CC-PVTZ
  Basis Set: (AUG-CC-PVTZ AUX)
    Blend: AUG-CC-PVTZ-JKFIT

    Orbital Energies [Eh]
    ---------------------

    Doubly Occupied:

       1A    -20.473417     2A    -20.409453     3A    -20.318995
       4A    -20.316162     5A    -11.248914     6A    -11.172347
       7A    -11.108916     8A     -1.315265     9A     -1.209969
      10A     -1.189385    11A     -1.095122    12A     -0.866826
      13A     -0.670747    14A     -0.564009    15A     -0.558136
      16A     -0.509196    17A     -0.489657    18A     -0.447749
      19A     -0.431149    20A     -0.417645    21A     -0.403444
      22A     -0.347375    23A     -0.339886    24A     -0.311989
      25A     -0.235928    26A     -0.217838    27A     -0.217103

  @DF-RHF Final Energy:  -415.00787203970202

   => Energetics <=

    Nuclear Repulsion Energy =            287.6794052696840822
    One-Electron Energy =               -1151.6013121955620591
    Two-Electron Energy =                 448.9140348861758980
    Total Energy =                       -415.0078720397020220
  Basis Set: (AUG-CC-PVTZ AUX)
    Blend: AUG-CC-PVTZ-RI
    Molecular point group: c1

    Geometry (in Angstrom), charge = -1, multiplicity = 1:

       Center              X                  Y                   Z               Mass
    ------------   -----------------  -----------------  -----------------  -----------------
         O           -1.643693120641     0.400705062116     1.078525950931    15.994914619570
         O           -1.847419120641    -0.283216937884    -1.058585049069    15.994914619570
         O            0.968614879359     1.251854062116    -0.405240049069    15.994914619570
         O            2.452663879359    -0.402037937884     0.168135950931    15.994914619570
         C            0.124981879359    -0.925987937884     0.212002950931    12.000000000000
         C           -1.187165120641    -0.275937937884    -0.026819049069    12.000000000000
         C            1.322176879359     0.101980062116    -0.038228049069    12.000000000000
         H            0.208392579359    -1.356870137884     1.428472450931     1.007825032230
         H            0.237870879359    -1.767685937884    -0.475603049069     1.007825032230
         H           -2.433655120641     0.869602062116     0.743889950931     1.007825032230

  Basis Set: AUG-CC-PVTZ
    Blend: AUG-CC-PVTZ
  Basis Set: (AUG-CC-PVTZ AUX)
    Blend: AUG-CC-PVTZ-JKFIT
	 Reference Energy          =    -415.0078720397020220 [Eh]
	 Singles Energy            =      -0.0000000000000000 [Eh]
	 Same-Spin Energy          =      -0.4014361285750923 [Eh]
	 Opposite-Spin Energy      =      -1.1709372523331312 [Eh]
	 Correlation Energy        =      -1.5723733809082234 [Eh]
	 Total Energy              =    -416.5802454206102539 [Eh]

	 ================> DF-SCS-MP2 Energies <==================
	-----------------------------------------------------------
	 SCS Same-Spin Scale       =       0.3333333333333333 [-]
	 SCS Opposite-Spin Scale   =       1.2000000000000000 [-]
	 SCS Same-Spin Energy      =      -0.1338120428583641 [Eh]
	 SCS Opposite-Spin Energy  =      -1.4051247027997573 [Eh]
	 SCS Correlation Energy    =      -1.5389367456581213 [Eh]
	 SCS Total Energy          =    -416.5468087853601560 [Eh]
	-----------------------------------------------------------

  Dipole Moment: [D]
     X:    -5.7986      Y:    -1.5653      Z:     1.6262     Total:     6.2224

*** Psi4 exiting successfully. Buy a developer a beer!
