                               Psi4 1.3.2 release

  ==> Input File <==

--------------------------------------------------------------------------
#psi4
#
memory 32 gb

molecule  {
-1 1
  O       -1.6248440     0.4205080     1.0662040
  O       -1.8285700    -0.2634140    -1.0709070
  O        0.9874640     1.2716570    -0.4175620
  O        2.4715130    -0.3822350     0.1558140
  C        0.1438310    -0.9061850     0.1996810
  C       -1.2024183    -0.2892012     0.1087167
  C        1.3410260     0.1217830    -0.0505500
  H        0.2143420    -1.2704300     1.2280200
  H        0.2567200    -1.7478830    -0.4879250
  H       -2.4148060     0.8894050     0.7315680
units angstrom
no_reorient  #important for SAPT in psi4, default
symmetry c1  #important for SAPT in psi4, default
}

set PROPERTIES_ORIGIN ["COM"]
properties('MP2/aug-cc-pvtz', properties = ['dipole'])
--------------------------------------------------------------------------

    Molecular point group: c1
  Charge       = -1
  Multiplicity = 1
  Basis Set: AUG-CC-PVTZ
    Blend: AUG-CC-PVTZ
  Basis Set: (AUG-CC-PVTZ AUX)
    Blend: AUG-CC-PVTZ-JKFIT

    Orbital Energies [Eh]
    ---------------------

    Doubly Occupied:

       1A    -20.505682     2A    -20.383663     3A    -20.317524
       4A    -20.316301     5A    -11.251387     6A    -11.172119
       7A    -11.088541     8A     -1.365666     9A     -1.188770
      10A     -1.147064    11A     -1.093987    12A     -0.880169
      13A     -0.718383    14A     -0.580726    15A     -0.561430
      16A     -0.525728    17A     -0.499212    18A     -0.449153
      19A     -0.436592    20A     -0.420687    21A     -0.390806
      22A     -0.351889    23A     -0.304896    24A     -0.293510
      25A     -0.234955    26A     -0.216766    27A     -0.216131

  @DF-RHF Final Energy:  -414.99855776110320

   => Energetics <=

    Nuclear Repulsion Energy =            288.1197992062652133
    One-Electron Energy =               -1152.4132360363482803
    Two-Electron Energy =                 449.2948790689798102
    Total Energy =                       -414.9985577611031999
  Basis Set: (AUG-CC-PVTZ AUX)
    Blend: AUG-CC-PVTZ-RI
    Molecular point group: c1

    Geometry (in Angstrom), charge = -1, multiplicity = 1:

       Center              X                  Y                   Z               Mass
    ------------   -----------------  -----------------  -----------------  -----------------
         O           -1.639593942044     0.403905311956     1.063141081386    15.994914619570
         O           -1.843319942044    -0.280016688044    -1.073969918614    15.994914619570
         O            0.972714057956     1.255054311956    -0.420624918614    15.994914619570
         O            2.456763057956    -0.398837688044     0.152751081386    15.994914619570
         C            0.129081057956    -0.922787688044     0.196618081386    12.000000000000
         C           -1.217168242044    -0.305803888044     0.105653781386    12.000000000000
         C            1.326276057956     0.105180311956    -0.053612918614    12.000000000000
         H            0.199592057956    -1.287032688044     1.224957081386     1.007825032230
         H            0.241970057956    -1.764485688044    -0.490987918614     1.007825032230
         H           -2.429555942044     0.872802311956     0.728505081386     1.007825032230

  Basis Set: AUG-CC-PVTZ
    Blend: AUG-CC-PVTZ
  Basis Set: (AUG-CC-PVTZ AUX)
    Blend: AUG-CC-PVTZ-JKFIT
	 Reference Energy          =    -414.9985577611031999 [Eh]
	 Singles Energy            =      -0.0000000000000000 [Eh]
	 Same-Spin Energy          =      -0.4032600706328286 [Eh]
	 Opposite-Spin Energy      =      -1.1723069262386328 [Eh]
	 Correlation Energy        =      -1.5755669968714614 [Eh]
	 Total Energy              =    -416.5741247579746869 [Eh]

	 ================> DF-SCS-MP2 Energies <==================
	-----------------------------------------------------------
	 SCS Same-Spin Scale       =       0.3333333333333333 [-]
	 SCS Opposite-Spin Scale   =       1.2000000000000000 [-]
	 SCS Same-Spin Energy      =      -0.1344200235442762 [Eh]
	 SCS Opposite-Spin Energy  =      -1.4067683114863592 [Eh]
	 SCS Correlation Energy    =      -1.5411883350306355 [Eh]
	 SCS Total Energy          =    -416.5397460961338538 [Eh]
	-----------------------------------------------------------

  Dipole Moment: [D]
     X:    -5.7555      Y:    -1.3430      Z:     2.7635     Total:     6.5243

*** Psi4 exiting successfully. Buy a developer a beer!
