                               Psi4 1.3.2 release

  ==> Input File <==

--------------------------------------------------------------------------
#psi4
#
memory 32 gb

molecule  {
-1 1
  O       -1.6248440     0.4205080     1.0662040
  O       -1.8285700    -0.2634140    -1.0709070
  O        0.9874640     1.2716570    -0.4175620
  O        2.4715130    -0.3822350     0.1558140
  C        0.1438310    -0.9061850     0.1996810
  C       -1.1683160    -0.2561350    -0.0391410
  C        1.3410260     0.1217830    -0.0505500
  H        0.2092695    -1.2346684     1.2403268
  H        0.2567200    -1.7478830    -0.4879250
  H       -2.4148060     0.8894050     0.7315680
units angstrom
no_reorient  #important for SAPT in psi4, default
symmetry c1  #important for SAPT in psi4, default
}

set PROPERTIES_ORIGIN ["COM"]
properties('MP2/aug-cc-pvtz', properties = ['dipole'])
--------------------------------------------------------------------------

    Molecular point group: c1
  Charge       = -1
  Multiplicity = 1
  Basis Set: AUG-CC-PVTZ
    Blend: AUG-CC-PVTZ
  Basis Set: (AUG-CC-PVTZ AUX)
    Blend: AUG-CC-PVTZ-JKFIT

    Orbital Energies [Eh]
    ---------------------

    Doubly Occupied:

       1A    -20.473339     2A    -20.406799     3A    -20.316934
       4A    -20.316034     5A    -11.245728     6A    -11.170268
       7A    -11.086361     8A     -1.314426     9A     -1.208340
      10A     -1.188340    11A     -1.094066    12A     -0.875782
      13A     -0.672153    14A     -0.564053    15A     -0.556077
      16A     -0.518937    17A     -0.488708    18A     -0.447043
      19A     -0.440545    20A     -0.427011    21A     -0.405482
      22A     -0.353421    23A     -0.339966    24A     -0.313975
      25A     -0.235246    26A     -0.216441    27A     -0.215517

  @DF-RHF Final Energy:  -415.02850788433119

   => Energetics <=

    Nuclear Repulsion Energy =            288.6252057218969753
    One-Electron Energy =               -1153.5254492792332712
    Two-Electron Energy =                 449.8717356730051620
    Total Energy =                       -415.0285078843311908
  Basis Set: (AUG-CC-PVTZ AUX)
    Blend: AUG-CC-PVTZ-RI
    Molecular point group: c1

    Geometry (in Angstrom), charge = -1, multiplicity = 1:

       Center              X                  Y                   Z               Mass
    ------------   -----------------  -----------------  -----------------  -----------------
         O           -1.643517273243     0.399703150132     1.080246282342    15.994914619570
         O           -1.847243273243    -0.284218849868    -1.056864717658    15.994914619570
         O            0.968790726757     1.250852150132    -0.403519717658    15.994914619570
         O            2.452839726757    -0.403039849868     0.169856282342    15.994914619570
         C            0.125157726757    -0.926989849868     0.213723282342    12.000000000000
         C           -1.186989273243    -0.276939849868    -0.025098717658    12.000000000000
         C            1.322352726757     0.100978150132    -0.036507717658    12.000000000000
         H            0.190596226757    -1.255473249868     1.254369082342     1.007825032230
         H            0.238046726757    -1.768687849868    -0.473882717658     1.007825032230
         H           -2.433479273243     0.868600150132     0.745610282342     1.007825032230

  Basis Set: AUG-CC-PVTZ
    Blend: AUG-CC-PVTZ
  Basis Set: (AUG-CC-PVTZ AUX)
    Blend: AUG-CC-PVTZ-JKFIT
	 Reference Energy          =    -415.0285078843311908 [Eh]
	 Singles Energy            =      -0.0000000000000000 [Eh]
	 Same-Spin Energy          =      -0.4013318666273950 [Eh]
	 Opposite-Spin Energy      =      -1.1691892036452238 [Eh]
	 Correlation Energy        =      -1.5705210702726187 [Eh]
	 Total Energy              =    -416.5990289546037957 [Eh]

	 ================> DF-SCS-MP2 Energies <==================
	-----------------------------------------------------------
	 SCS Same-Spin Scale       =       0.3333333333333333 [-]
	 SCS Opposite-Spin Scale   =       1.2000000000000000 [-]
	 SCS Same-Spin Energy      =      -0.1337772888757983 [Eh]
	 SCS Opposite-Spin Energy  =      -1.4030270443742685 [Eh]
	 SCS Correlation Energy    =      -1.5368043332500667 [Eh]
	 SCS Total Energy          =    -416.5653122175812655 [Eh]
	-----------------------------------------------------------

  Dipole Moment: [D]
     X:    -5.7839      Y:    -1.6370      Z:     1.7330     Total:     6.2559

*** Psi4 exiting successfully. Buy a developer a beer!
