                               Psi4 1.3.2 release

  ==> Input File <==

--------------------------------------------------------------------------
#psi4
#
memory 32 gb

molecule  {
-1 1
  O       -1.6248440     0.4205080     1.0662040
  O       -1.8285700    -0.2634140    -1.0709070
  O        0.9874640     1.2716570    -0.4175620
  O        2.4715130    -0.3822350     0.1558140
  C        0.1438310    -0.9061850     0.1996810
  C       -1.1683160    -0.2561350    -0.0391410
  C        1.3410260     0.1217830    -0.0505500
  H        0.2118161    -1.2526020     1.2343310
  H        0.2567200    -1.7478830    -0.4879250
  H       -2.4148060     0.8894050     0.7315680
units angstrom
no_reorient  #important for SAPT in psi4, default
symmetry c1  #important for SAPT in psi4, default
}

set PROPERTIES_ORIGIN ["COM"]
properties('MP2/aug-cc-pvtz', properties = ['dipole'])
--------------------------------------------------------------------------

    Molecular point group: c1
  Charge       = -1
  Multiplicity = 1
  Basis Set: AUG-CC-PVTZ
    Blend: AUG-CC-PVTZ
  Basis Set: (AUG-CC-PVTZ AUX)
    Blend: AUG-CC-PVTZ-JKFIT

    Orbital Energies [Eh]
    ---------------------

    Doubly Occupied:

       1A    -20.473335     2A    -20.406944     3A    -20.316978
       4A    -20.315964     5A    -11.245931     6A    -11.170297
       7A    -11.086340     8A     -1.314449     9A     -1.208410
      10A     -1.188317    11A     -1.094053    12A     -0.875642
      13A     -0.672317    14A     -0.563955    15A     -0.556085
      16A     -0.519689    17A     -0.488712    18A     -0.447059
      19A     -0.439280    20A     -0.427256    21A     -0.405751
      22A     -0.353081    23A     -0.339944    24A     -0.314258
      25A     -0.235304    26A     -0.216415    27A     -0.215634

  @DF-RHF Final Energy:  -415.02857887788059

   => Energetics <=

    Nuclear Repulsion Energy =            288.6019499794701915
    One-Electron Energy =               -1153.4782535821893816
    Two-Electron Energy =                 449.8477247248385993
    Total Energy =                       -415.0285788778805909
  Basis Set: (AUG-CC-PVTZ AUX)
    Blend: AUG-CC-PVTZ-RI
    Molecular point group: c1

    Geometry (in Angstrom), charge = -1, multiplicity = 1:

       Center              X                  Y                   Z               Mass
    ------------   -----------------  -----------------  -----------------  -----------------
         O           -1.643542190225     0.399878619852     1.080304947716    15.994914619570
         O           -1.847268190225    -0.284043380148    -1.056806052284    15.994914619570
         O            0.968765809775     1.251027619852    -0.403461052284    15.994914619570
         O            2.452814809775    -0.402864380148     0.169914947716    15.994914619570
         C            0.125132809775    -0.926814380148     0.213781947716    12.000000000000
         C           -1.187014190225    -0.276764380148    -0.025040052284    12.000000000000
         C            1.322327809775     0.101153619852    -0.036449052284    12.000000000000
         H            0.193117909775    -1.273231380148     1.248431947716     1.007825032230
         H            0.238021809775    -1.768512380148    -0.473824052284     1.007825032230
         H           -2.433504190225     0.868775619852     0.745668947716     1.007825032230

  Basis Set: AUG-CC-PVTZ
    Blend: AUG-CC-PVTZ
  Basis Set: (AUG-CC-PVTZ AUX)
    Blend: AUG-CC-PVTZ-JKFIT
	 Reference Energy          =    -415.0285788778805909 [Eh]
	 Singles Energy            =      -0.0000000000000000 [Eh]
	 Same-Spin Energy          =      -0.4013134899460401 [Eh]
	 Opposite-Spin Energy      =      -1.1691701781320027 [Eh]
	 Correlation Energy        =      -1.5704836680780430 [Eh]
	 Total Energy              =    -416.5990625459586454 [Eh]

	 ================> DF-SCS-MP2 Energies <==================
	-----------------------------------------------------------
	 SCS Same-Spin Scale       =       0.3333333333333333 [-]
	 SCS Opposite-Spin Scale   =       1.2000000000000000 [-]
	 SCS Same-Spin Energy      =      -0.1337711633153467 [Eh]
	 SCS Opposite-Spin Energy  =      -1.4030042137584033 [Eh]
	 SCS Correlation Energy    =      -1.5367753770737500 [Eh]
	 SCS Total Energy          =    -416.5653542549543431 [Eh]
	-----------------------------------------------------------

  Dipole Moment: [D]
     X:    -5.7885      Y:    -1.6442      Z:     1.7321     Total:     6.2618

*** Psi4 exiting successfully. Buy a developer a beer!
