                               Psi4 1.4a3.dev225

  ==> Input File <==

--------------------------------------------------------------------------
#psi4
#
memory 32 gb

molecule  {
-1 1
  O       -1.6007150    -0.1046360     1.1589700
  O       -1.8247480     0.2557850    -1.0595740
  O        0.9980150     1.3323240     0.0674640
  O        2.4614550    -0.4137090     0.0564000
  C        0.1428070    -0.8965380    -0.2290110
  C       -1.1744150    -0.2029730    -0.1298180
  C        1.3185970     0.1123410    -0.0074440
  H        0.2147029    -1.7358276     0.5436438
  H        0.2355680    -1.3348830    -1.2264790
  H       -2.4411180     0.3988970     1.1281900
units angstrom
no_reorient  #important for SAPT in psi4, default
symmetry c1  #important for SAPT in psi4, default
}

set PROPERTIES_ORIGIN ["COM"]
properties('MP2/aug-cc-pvtz', properties = ['dipole'])
--------------------------------------------------------------------------

    Molecular point group: c1
  Charge       = -1
  Multiplicity = 1
  Basis Set: AUG-CC-PVTZ
    Blend: AUG-CC-PVTZ
  Basis Set: (AUG-CC-PVTZ AUX)
    Blend: AUG-CC-PVTZ-JKFIT

    Orbital Energies [Eh]
    ---------------------

    Doubly Occupied:

       1A    -20.479160     2A    -20.407524     3A    -20.311786
       4A    -20.310459     5A    -11.247717     6A    -11.165006
       7A    -11.094031     8A     -1.319661     9A     -1.212659
      10A     -1.182682    11A     -1.083925    12A     -0.875529
      13A     -0.683036    14A     -0.565638    15A     -0.560455
      16A     -0.519450    17A     -0.487941    18A     -0.445589
      19A     -0.436104    20A     -0.427504    21A     -0.400712
      22A     -0.347702    23A     -0.338066    24A     -0.314016
      25A     -0.227683    26A     -0.219313    27A     -0.209803

  @DF-RHF Final Energy:  -415.02619340989378

   => Energetics <=

    Nuclear Repulsion Energy =            288.9589517349338621
    One-Electron Energy =               -1154.2239898664845441
    Two-Electron Energy =                 450.2388447216569034
    Total Energy =                       -415.0261934098937786
  Basis Set: (AUG-CC-PVTZ AUX)
    Blend: AUG-CC-PVTZ-RI
    Molecular point group: c1

    Geometry (in Angstrom), charge = -1, multiplicity = 1:

       Center              X                  Y                   Z               Mass
    ------------   -----------------  -----------------  -----------------  -----------------
         O           -1.619951128552    -0.129606339506     1.162614662384    15.994914619570
         O           -1.843984128552     0.230814660494    -1.055929337616    15.994914619570
         O            0.978778871448     1.307353660494     0.071108662384    15.994914619570
         O            2.442218871448    -0.438679339506     0.060044662384    15.994914619570
         C            0.123570871448    -0.921508339506    -0.225366337616    12.000000000000
         C           -1.193651128552    -0.227943339506    -0.126173337616    12.000000000000
         C            1.299360871448     0.087370660494    -0.003799337616    12.000000000000
         H            0.195466771448    -1.760797939506     0.547288462384     1.007825032230
         H            0.216331871448    -1.359853339506    -1.222834337616     1.007825032230
         H           -2.460354128552     0.373926660494     1.131834662384     1.007825032230

  Basis Set: AUG-CC-PVTZ
    Blend: AUG-CC-PVTZ
  Basis Set: (AUG-CC-PVTZ AUX)
    Blend: AUG-CC-PVTZ-JKFIT
	 Reference Energy          =    -415.0261934098937786 [Eh]
	 Singles Energy            =      -0.0000000000000000 [Eh]
	 Same-Spin Energy          =      -0.4011264859341044 [Eh]
	 Opposite-Spin Energy      =      -1.1692466964143273 [Eh]
	 Correlation Energy        =      -1.5703731823484317 [Eh]
	 Total Energy              =    -416.5965665922421977 [Eh]

	 ================> DF-SCS-MP2 Energies <==================
	-----------------------------------------------------------
	 SCS Same-Spin Scale       =       0.3333333333333333 [-]
	 SCS Opposite-Spin Scale   =       1.2000000000000000 [-]
	 SCS Same-Spin Energy      =      -0.1337088286447015 [Eh]
	 SCS Opposite-Spin Energy  =      -1.4030960356971927 [Eh]
	 SCS Correlation Energy    =      -1.5368048643418941 [Eh]
	 SCS Total Energy          =    -416.5629982742356674 [Eh]
	-----------------------------------------------------------

  Dipole Moment: [D]
     X:    -6.2112      Y:    -2.4290      Z:     0.9525     Total:     6.7369

*** Psi4 exiting successfully. Buy a developer a beer!
