                               Psi4 1.3.2 release

  ==> Input File <==

--------------------------------------------------------------------------
#psi4
#
memory 32 gb

molecule  {
-1 1
  O       -1.6248440     0.4205080     1.0662040
  O       -1.8285700    -0.2634140    -1.0709070
  O        0.9874640     1.2716570    -0.4175620
  O        2.4715130    -0.3822350     0.1558140
  C        0.1438310    -0.9061850     0.1996810
  C       -1.1683160    -0.2561350    -0.0391410
  C        1.3227221     0.1288815    -0.1027471
  H        0.2143420    -1.2704300     1.2280200
  H        0.2567200    -1.7478830    -0.4879250
  H       -2.4148060     0.8894050     0.7315680
units angstrom
no_reorient  #important for SAPT in psi4, default
symmetry c1  #important for SAPT in psi4, default
}

set PROPERTIES_ORIGIN ["COM"]
properties('MP2/aug-cc-pvtz', properties = ['dipole'])
--------------------------------------------------------------------------

    Molecular point group: c1
  Charge       = -1
  Multiplicity = 1
  Basis Set: AUG-CC-PVTZ
    Blend: AUG-CC-PVTZ
  Basis Set: (AUG-CC-PVTZ AUX)
    Blend: AUG-CC-PVTZ-JKFIT

    Orbital Energies [Eh]
    ---------------------

    Doubly Occupied:

       1A    -20.474491     2A    -20.408009     3A    -20.324306
       4A    -20.308788     5A    -11.246559     6A    -11.170507
       7A    -11.086669     8A     -1.315601     9A     -1.209557
      10A     -1.192743    11A     -1.088540    12A     -0.876255
      13A     -0.672854    14A     -0.564908    15A     -0.555441
      16A     -0.522799    17A     -0.490257    18A     -0.447816
      19A     -0.438740    20A     -0.426520    21A     -0.405973
      22A     -0.354219    23A     -0.340393    24A     -0.315369
      25A     -0.235878    26A     -0.214891    27A     -0.213902

  @DF-RHF Final Energy:  -415.02602111962278

   => Energetics <=

    Nuclear Repulsion Energy =            288.6611470221783975
    One-Electron Energy =               -1153.5703691807641462
    Two-Electron Energy =                 449.8832010389629659
    Total Energy =                       -415.0260211196227829
  Basis Set: (AUG-CC-PVTZ AUX)
    Blend: AUG-CC-PVTZ-RI
    Molecular point group: c1

    Geometry (in Angstrom), charge = -1, multiplicity = 1:

       Center              X                  Y                   Z               Mass
    ------------   -----------------  -----------------  -----------------  -----------------
         O           -1.641434476341     0.399226071789     1.086447727667    15.994914619570
         O           -1.845160476341    -0.284695928211    -1.050663272333    15.994914619570
         O            0.970873523659     1.250375071789    -0.397318272333    15.994914619570
         O            2.454922523659    -0.403516928211     0.176057727667    15.994914619570
         C            0.127240523659    -0.927466928211     0.219924727667    12.000000000000
         C           -1.184906476341    -0.277416928211    -0.018897272333    12.000000000000
         C            1.306131623659     0.107599571789    -0.082503372333    12.000000000000
         H            0.197751523659    -1.291711928211     1.248263727667     1.007825032230
         H            0.240129523659    -1.769164928211    -0.467681272333     1.007825032230
         H           -2.431396476341     0.868123071789     0.751811727667     1.007825032230

  Basis Set: AUG-CC-PVTZ
    Blend: AUG-CC-PVTZ
  Basis Set: (AUG-CC-PVTZ AUX)
    Blend: AUG-CC-PVTZ-JKFIT
	 Reference Energy          =    -415.0260211196227829 [Eh]
	 Singles Energy            =      -0.0000000000000000 [Eh]
	 Same-Spin Energy          =      -0.4013896925403252 [Eh]
	 Opposite-Spin Energy      =      -1.1693566768255037 [Eh]
	 Correlation Energy        =      -1.5707463693658288 [Eh]
	 Total Energy              =    -416.5967674889886325 [Eh]

	 ================> DF-SCS-MP2 Energies <==================
	-----------------------------------------------------------
	 SCS Same-Spin Scale       =       0.3333333333333333 [-]
	 SCS Opposite-Spin Scale   =       1.2000000000000000 [-]
	 SCS Same-Spin Energy      =      -0.1337965641801084 [Eh]
	 SCS Opposite-Spin Energy  =      -1.4032280121906044 [Eh]
	 SCS Correlation Energy    =      -1.5370245763707129 [Eh]
	 SCS Total Energy          =    -416.5630456959934804 [Eh]
	-----------------------------------------------------------

  Dipole Moment: [D]
     X:    -6.0264      Y:    -1.4456      Z:     1.6216     Total:     6.4060

*** Psi4 exiting successfully. Buy a developer a beer!
