                               Psi4 1.3.2 release

  ==> Input File <==

--------------------------------------------------------------------------
#psi4
#
memory 32 gb

molecule  {
-1 1
  O       -1.6248440     0.4205080     1.0662040
  O       -1.8285700    -0.2634140    -1.0709070
  O        0.9874640     1.2716570    -0.4175620
  O        2.4715130    -0.3822350     0.1558140
  C        0.1438310    -0.9061850     0.1996810
  C       -1.1560686    -0.2340924    -0.0450295
  C        1.3410260     0.1217830    -0.0505500
  H        0.2143420    -1.2704300     1.2280200
  H        0.2567200    -1.7478830    -0.4879250
  H       -2.4148060     0.8894050     0.7315680
units angstrom
no_reorient  #important for SAPT in psi4, default
symmetry c1  #important for SAPT in psi4, default
}

set PROPERTIES_ORIGIN ["COM"]
properties('MP2/aug-cc-pvtz', properties = ['dipole'])
--------------------------------------------------------------------------

    Molecular point group: c1
  Charge       = -1
  Multiplicity = 1
  Basis Set: AUG-CC-PVTZ
    Blend: AUG-CC-PVTZ
  Basis Set: (AUG-CC-PVTZ AUX)
    Blend: AUG-CC-PVTZ-JKFIT

    Orbital Energies [Eh]
    ---------------------

    Doubly Occupied:

       1A    -20.473864     2A    -20.406165     3A    -20.317678
       4A    -20.315692     5A    -11.246482     6A    -11.170097
       7A    -11.086184     8A     -1.314747     9A     -1.207482
      10A     -1.188617    11A     -1.094394    12A     -0.875460
      13A     -0.672866    14A     -0.563780    15A     -0.555371
      16A     -0.521197    17A     -0.489074    18A     -0.446709
      19A     -0.438071    20A     -0.427762    21A     -0.406503
      22A     -0.352908    23A     -0.339186    24A     -0.314246
      25A     -0.235759    26A     -0.216725    27A     -0.215472

  @DF-RHF Final Energy:  -415.02836914026028

   => Energetics <=

    Nuclear Repulsion Energy =            288.7135171256775834
    One-Electron Energy =               -1153.6987927198063062
    Two-Electron Energy =                 449.9569064538684984
    Total Energy =                       -415.0283691402602813
  Basis Set: (AUG-CC-PVTZ AUX)
    Blend: AUG-CC-PVTZ-RI
    Molecular point group: c1

    Geometry (in Angstrom), charge = -1, multiplicity = 1:

       Center              X                  Y                   Z               Mass
    ------------   -----------------  -----------------  -----------------  -----------------
         O           -1.644993742814     0.397485064561     1.081052715100    15.994914619570
         O           -1.848719742814    -0.286436935439    -1.056058284900    15.994914619570
         O            0.967314257186     1.248634064561    -0.402713284900    15.994914619570
         O            2.451363257186    -0.405257935439     0.170662715100    15.994914619570
         C            0.123681257186    -0.929207935439     0.214529715100    12.000000000000
         C           -1.176218342814    -0.257115335439    -0.030180784900    12.000000000000
         C            1.320876257186     0.098760064561    -0.035701284900    12.000000000000
         H            0.194192257186    -1.293452935439     1.242868715100     1.007825032230
         H            0.236570257186    -1.770905935439    -0.473076284900     1.007825032230
         H           -2.434955742814     0.866382064561     0.746416715100     1.007825032230

  Basis Set: AUG-CC-PVTZ
    Blend: AUG-CC-PVTZ
  Basis Set: (AUG-CC-PVTZ AUX)
    Blend: AUG-CC-PVTZ-JKFIT
	 Reference Energy          =    -415.0283691402602813 [Eh]
	 Singles Energy            =      -0.0000000000000000 [Eh]
	 Same-Spin Energy          =      -0.4012801557444233 [Eh]
	 Opposite-Spin Energy      =      -1.1690989885479435 [Eh]
	 Correlation Energy        =      -1.5703791442923669 [Eh]
	 Total Energy              =    -416.5987482845526415 [Eh]

	 ================> DF-SCS-MP2 Energies <==================
	-----------------------------------------------------------
	 SCS Same-Spin Scale       =       0.3333333333333333 [-]
	 SCS Opposite-Spin Scale   =       1.2000000000000000 [-]
	 SCS Same-Spin Energy      =      -0.1337600519148078 [Eh]
	 SCS Opposite-Spin Energy  =      -1.4029187862575321 [Eh]
	 SCS Correlation Energy    =      -1.5366788381723397 [Eh]
	 SCS Total Energy          =    -416.5650479784326308 [Eh]
	-----------------------------------------------------------

  Dipole Moment: [D]
     X:    -5.7752      Y:    -1.6164      Z:     1.7400     Total:     6.2444

*** Psi4 exiting successfully. Buy a developer a beer!
