                               Psi4 1.3.2 release

  ==> Input File <==

--------------------------------------------------------------------------
#psi4
#
memory 32 gb

molecule  {
-1 1
  O       -1.6248440     0.4205080     1.0662040
  O       -1.8285700    -0.2634140    -1.0709070
  O        0.9874640     1.2716570    -0.4175620
  O        2.4715130    -0.3822350     0.1558140
  C        0.1438310    -0.9061850     0.1996810
  C       -1.0889712    -0.1270825    -0.0733186
  C        1.3410260     0.1217830    -0.0505500
  H        0.2143420    -1.2704300     1.2280200
  H        0.2567200    -1.7478830    -0.4879250
  H       -2.4148060     0.8894050     0.7315680
units angstrom
no_reorient  #important for SAPT in psi4, default
symmetry c1  #important for SAPT in psi4, default
}

set PROPERTIES_ORIGIN ["COM"]
properties('MP2/aug-cc-pvtz', properties = ['dipole'])
--------------------------------------------------------------------------

    Molecular point group: c1
  Charge       = -1
  Multiplicity = 1
  Basis Set: AUG-CC-PVTZ
    Blend: AUG-CC-PVTZ
  Basis Set: (AUG-CC-PVTZ AUX)
    Blend: AUG-CC-PVTZ-JKFIT

    Orbital Energies [Eh]
    ---------------------

    Doubly Occupied:

       1A    -20.474859     2A    -20.402096     3A    -20.322795
       4A    -20.315731     5A    -11.251333     6A    -11.170056
       7A    -11.086791     8A     -1.310916     9A     -1.195553
      10A     -1.190982    11A     -1.097428    12A     -0.875872
      13A     -0.672746    14A     -0.561266    15A     -0.550743
      16A     -0.523446    17A     -0.489152    18A     -0.443295
      19A     -0.438782    20A     -0.427581    21A     -0.408736
      22A     -0.354383    23A     -0.331864    24A     -0.311074
      25A     -0.239049    26A     -0.219740    27A     -0.214417

  @DF-RHF Final Energy:  -415.01579637644716

   => Energetics <=

    Nuclear Repulsion Energy =            289.1063753440109281
    One-Electron Energy =               -1154.4829716514866504
    Two-Electron Energy =                 450.3607999310285095
    Total Energy =                       -415.0157963764471560
  Basis Set: (AUG-CC-PVTZ AUX)
    Blend: AUG-CC-PVTZ-RI
    Molecular point group: c1

    Geometry (in Angstrom), charge = -1, multiplicity = 1:

       Center              X                  Y                   Z               Mass
    ------------   -----------------  -----------------  -----------------  -----------------
         O           -1.652810677815     0.385018271024     1.084348432310    15.994914619570
         O           -1.856536677815    -0.298903728976    -1.052762567690    15.994914619570
         O            0.959497322185     1.236167271024    -0.399417567690    15.994914619570
         O            2.443546322185    -0.417724728976     0.173958432310    15.994914619570
         C            0.115864322185    -0.941674728976     0.217825432310    12.000000000000
         C           -1.116937877815    -0.162572228976    -0.055174167690    12.000000000000
         C            1.313059322185     0.086293271024    -0.032405567690    12.000000000000
         H            0.186375322185    -1.305919728976     1.246164432310     1.007825032230
         H            0.228753322185    -1.783372728976    -0.469780567690     1.007825032230
         H           -2.442772677815     0.853915271024     0.749712432310     1.007825032230

  Basis Set: AUG-CC-PVTZ
    Blend: AUG-CC-PVTZ
  Basis Set: (AUG-CC-PVTZ AUX)
    Blend: AUG-CC-PVTZ-JKFIT
	 Reference Energy          =    -415.0157963764471560 [Eh]
	 Singles Energy            =      -0.0000000000000000 [Eh]
	 Same-Spin Energy          =      -0.4020781893578805 [Eh]
	 Opposite-Spin Energy      =      -1.1709669981621875 [Eh]
	 Correlation Energy        =      -1.5730451875200679 [Eh]
	 Total Energy              =    -416.5888415639672075 [Eh]

	 ================> DF-SCS-MP2 Energies <==================
	-----------------------------------------------------------
	 SCS Same-Spin Scale       =       0.3333333333333333 [-]
	 SCS Opposite-Spin Scale   =       1.2000000000000000 [-]
	 SCS Same-Spin Energy      =      -0.1340260631192935 [Eh]
	 SCS Opposite-Spin Energy  =      -1.4051603977946250 [Eh]
	 SCS Correlation Energy    =      -1.5391864609139185 [Eh]
	 SCS Total Energy          =    -416.5549828373610808 [Eh]
	-----------------------------------------------------------

  Dipole Moment: [D]
     X:    -5.5712      Y:    -1.4417      Z:     1.7588     Total:     6.0175

*** Psi4 exiting successfully. Buy a developer a beer!
