                               Psi4 1.3.2 release

  ==> Input File <==

--------------------------------------------------------------------------
#psi4
#
memory 32 gb

molecule  {
-1 1
  O       -1.6248440     0.4205080     1.0662040
  O       -1.8285700    -0.2634140    -1.0709070
  O        0.9874640     1.2716570    -0.4175620
  O        2.4715130    -0.3822350     0.1558140
  C        0.1438310    -0.9061850     0.1996810
  C       -0.9914396    -0.3437612    -0.0069480
  C        1.3410260     0.1217830    -0.0505500
  H        0.2143420    -1.2704300     1.2280200
  H        0.2567200    -1.7478830    -0.4879250
  H       -2.4148060     0.8894050     0.7315680
units angstrom
no_reorient  #important for SAPT in psi4, default
symmetry c1  #important for SAPT in psi4, default
}

set PROPERTIES_ORIGIN ["COM"]
properties('MP2/aug-cc-pvtz', properties = ['dipole'])
--------------------------------------------------------------------------

    Molecular point group: c1
  Charge       = -1
  Multiplicity = 1
  Basis Set: AUG-CC-PVTZ
    Blend: AUG-CC-PVTZ
  Basis Set: (AUG-CC-PVTZ AUX)
    Blend: AUG-CC-PVTZ-JKFIT

    Orbital Energies [Eh]
    ---------------------

    Doubly Occupied:

       1A    -20.451612     2A    -20.389512     3A    -20.333773
       4A    -20.332352     5A    -11.259134     6A    -11.194425
       7A    -11.089281     8A     -1.256104     9A     -1.205378
      10A     -1.130226    11A     -1.110521    12A     -0.957310
      13A     -0.661419    14A     -0.578347    15A     -0.547747
      16A     -0.512573    17A     -0.484781    18A     -0.467424
      19A     -0.427542    20A     -0.409554    21A     -0.403015
      22A     -0.363001    23A     -0.303166    24A     -0.290713
      25A     -0.251111    26A     -0.233094    27A     -0.229971

  @DF-RHF Final Energy:  -414.94584297022317

   => Energetics <=

    Nuclear Repulsion Energy =            288.7553405441767040
    One-Electron Energy =               -1153.6561925976482144
    Two-Electron Energy =                 449.9550090832482852
    Total Energy =                       -414.9458429702231683
  Basis Set: (AUG-CC-PVTZ AUX)
    Blend: AUG-CC-PVTZ-RI
    Molecular point group: c1

    Geometry (in Angstrom), charge = -1, multiplicity = 1:

       Center              X                  Y                   Z               Mass
    ------------   -----------------  -----------------  -----------------  -----------------
         O           -1.664173236985     0.410261623432     1.076616170462    15.994914619570
         O           -1.867899236985    -0.273660376568    -1.060494829538    15.994914619570
         O            0.948134763015     1.261410623432    -0.407149829538    15.994914619570
         O            2.432183763015    -0.392481376568     0.166226170462    15.994914619570
         C            0.104501763015    -0.916431376568     0.210093170462    12.000000000000
         C           -1.030768836985    -0.354007576568     0.003464170462    12.000000000000
         C            1.301696763015     0.111536623432    -0.040137829538    12.000000000000
         H            0.175012763015    -1.280676376568     1.238432170462     1.007825032230
         H            0.217390763015    -1.758129376568    -0.477512829538     1.007825032230
         H           -2.454135236985     0.879158623432     0.741980170462     1.007825032230

  Basis Set: AUG-CC-PVTZ
    Blend: AUG-CC-PVTZ
  Basis Set: (AUG-CC-PVTZ AUX)
    Blend: AUG-CC-PVTZ-JKFIT
	 Reference Energy          =    -414.9458429702231683 [Eh]
	 Singles Energy            =      -0.0000000000000000 [Eh]
	 Same-Spin Energy          =      -0.4087569831479389 [Eh]
	 Opposite-Spin Energy      =      -1.1825006542640979 [Eh]
	 Correlation Energy        =      -1.5912576374120369 [Eh]
	 Total Energy              =    -416.5371006076351819 [Eh]

	 ================> DF-SCS-MP2 Energies <==================
	-----------------------------------------------------------
	 SCS Same-Spin Scale       =       0.3333333333333333 [-]
	 SCS Opposite-Spin Scale   =       1.2000000000000000 [-]
	 SCS Same-Spin Energy      =      -0.1362523277159796 [Eh]
	 SCS Opposite-Spin Energy  =      -1.4190007851169175 [Eh]
	 SCS Correlation Energy    =      -1.5552531128328972 [Eh]
	 SCS Total Energy          =    -416.5010960830560407 [Eh]
	-----------------------------------------------------------

  Dipole Moment: [D]
     X:    -4.0793      Y:    -2.0564      Z:     1.8489     Total:     4.9282

*** Psi4 exiting successfully. Buy a developer a beer!
