                               Psi4 1.3.2 release

  ==> Input File <==

--------------------------------------------------------------------------
#psi4
#
memory 32 gb

molecule  {
-1 1
  O       -1.6248440     0.4205080     1.0662040
  O       -1.8285700    -0.2634140    -1.0709070
  O        0.9874640     1.2716570    -0.4175620
  O        2.4715130    -0.3822350     0.1558140
  C        0.1438310    -0.9061850     0.1996810
  C       -1.1683160    -0.2561350    -0.0391410
  C        1.3732375     0.1038389     0.0546949
  H        0.2143420    -1.2704300     1.2280200
  H        0.2567200    -1.7478830    -0.4879250
  H       -2.4148060     0.8894050     0.7315680
units angstrom
no_reorient  #important for SAPT in psi4, default
symmetry c1  #important for SAPT in psi4, default
}

set PROPERTIES_ORIGIN ["COM"]
properties('MP2/aug-cc-pvtz', properties = ['dipole'])
--------------------------------------------------------------------------

    Molecular point group: c1
  Charge       = -1
  Multiplicity = 1
  Basis Set: AUG-CC-PVTZ
    Blend: AUG-CC-PVTZ
  Basis Set: (AUG-CC-PVTZ AUX)
    Blend: AUG-CC-PVTZ-JKFIT

    Orbital Energies [Eh]
    ---------------------

    Doubly Occupied:

       1A    -20.471201     2A    -20.405413     3A    -20.330728
       4A    -20.303184     5A    -11.245642     6A    -11.170665
       7A    -11.087223     8A     -1.312445     9A     -1.206717
      10A     -1.204219    11A     -1.076142    12A     -0.874616
      13A     -0.672328    14A     -0.562933    15A     -0.558498
      16A     -0.516782    17A     -0.488595    18A     -0.447484
      19A     -0.438440    20A     -0.430943    21A     -0.403111
      22A     -0.354361    23A     -0.339953    24A     -0.312837
      25A     -0.232884    26A     -0.211947    27A     -0.211573

  @DF-RHF Final Energy:  -415.01771835982061

   => Energetics <=

    Nuclear Repulsion Energy =            288.2945885308672587
    One-Electron Energy =               -1152.8828820876224199
    Two-Electron Energy =                 449.5705751969345556
    Total Energy =                       -415.0177183598206057
  Basis Set: (AUG-CC-PVTZ AUX)
    Blend: AUG-CC-PVTZ-RI
    Molecular point group: c1

    Geometry (in Angstrom), charge = -1, multiplicity = 1:

       Center              X                  Y                   Z               Mass
    ------------   -----------------  -----------------  -----------------  -----------------
         O           -1.647319586618     0.402143567495     1.068105528411    15.994914619570
         O           -1.851045586618    -0.281778432505    -1.069005471589    15.994914619570
         O            0.964988413382     1.253292567495    -0.415660471589    15.994914619570
         O            2.449037413382    -0.400599432505     0.157715528411    15.994914619570
         C            0.121355413382    -0.924549432505     0.201582528411    12.000000000000
         C           -1.190791586618    -0.274499432505    -0.037239471589    12.000000000000
         C            1.350761913382     0.085474467495     0.056596428411    12.000000000000
         H            0.191866413382    -1.288794432505     1.229921528411     1.007825032230
         H            0.234244413382    -1.766247432505    -0.486023471589     1.007825032230
         H           -2.437281586618     0.871040567495     0.733469528411     1.007825032230

  Basis Set: AUG-CC-PVTZ
    Blend: AUG-CC-PVTZ
  Basis Set: (AUG-CC-PVTZ AUX)
    Blend: AUG-CC-PVTZ-JKFIT
	 Reference Energy          =    -415.0177183598206057 [Eh]
	 Singles Energy            =      -0.0000000000000000 [Eh]
	 Same-Spin Energy          =      -0.4016362934771133 [Eh]
	 Opposite-Spin Energy      =      -1.1701339202228267 [Eh]
	 Correlation Energy        =      -1.5717702136999399 [Eh]
	 Total Energy              =    -416.5894885735205548 [Eh]

	 ================> DF-SCS-MP2 Energies <==================
	-----------------------------------------------------------
	 SCS Same-Spin Scale       =       0.3333333333333333 [-]
	 SCS Opposite-Spin Scale   =       1.2000000000000000 [-]
	 SCS Same-Spin Energy      =      -0.1338787644923711 [Eh]
	 SCS Opposite-Spin Energy  =      -1.4041607042673920 [Eh]
	 SCS Correlation Energy    =      -1.5380394687597632 [Eh]
	 SCS Total Energy          =    -416.5557578285803970 [Eh]
	-----------------------------------------------------------

  Dipole Moment: [D]
     X:    -5.3632      Y:    -2.0859      Z:     1.9557     Total:     6.0778

*** Psi4 exiting successfully. Buy a developer a beer!
