                               Psi4 1.4a3.dev225

  ==> Input File <==

--------------------------------------------------------------------------
#psi4
#
memory 32 gb

molecule  {
-1 1
  O       -1.6007150    -0.1046360     1.1589700
  O       -1.8247480     0.2557850    -1.0595740
  O        0.9980150     1.3323240     0.0674640
  O        2.4614550    -0.4137090     0.0564000
  C        0.1428070    -0.8965380    -0.2290110
  C       -1.1744150    -0.2029730    -0.1298180
  C        1.3185970     0.1123410    -0.0074440
  H        0.2103000    -1.6844300     0.4963269
  H        0.2355680    -1.3348830    -1.2264790
  H       -2.4411180     0.3988970     1.1281900
units angstrom
no_reorient  #important for SAPT in psi4, default
symmetry c1  #important for SAPT in psi4, default
}

set PROPERTIES_ORIGIN ["COM"]
properties('MP2/aug-cc-pvtz', properties = ['dipole'])
--------------------------------------------------------------------------

    Molecular point group: c1
  Charge       = -1
  Multiplicity = 1
  Basis Set: AUG-CC-PVTZ
    Blend: AUG-CC-PVTZ
  Basis Set: (AUG-CC-PVTZ AUX)
    Blend: AUG-CC-PVTZ-JKFIT

    Orbital Energies [Eh]
    ---------------------

    Doubly Occupied:

       1A    -20.479227     2A    -20.406869     3A    -20.311153
       4A    -20.310484     5A    -11.246928     6A    -11.164422
       7A    -11.085701     8A     -1.319524     9A     -1.212240
      10A     -1.182403    11A     -1.083629    12A     -0.879959
      13A     -0.684026    14A     -0.565691    15A     -0.559988
      16A     -0.525117    17A     -0.487880    18A     -0.447404
      19A     -0.439709    20A     -0.429110    21A     -0.400996
      22A     -0.348626    23A     -0.338316    24A     -0.314497
      25A     -0.227519    26A     -0.218801    27A     -0.209576

  @DF-RHF Final Energy:  -415.02848712122778

   => Energetics <=

    Nuclear Repulsion Energy =            289.3018816822336134
    One-Electron Energy =               -1154.9011460041651844
    Two-Electron Energy =                 450.5707772007037306
    Total Energy =                       -415.0284871212277835
  Basis Set: (AUG-CC-PVTZ AUX)
    Blend: AUG-CC-PVTZ-RI
    Molecular point group: c1

    Geometry (in Angstrom), charge = -1, multiplicity = 1:

       Center              X                  Y                   Z               Mass
    ------------   -----------------  -----------------  -----------------  -----------------
         O           -1.619908048768    -0.130109234768     1.163077630399    15.994914619570
         O           -1.843941048768     0.230311765232    -1.055466369601    15.994914619570
         O            0.978821951232     1.306850765232     0.071571630399    15.994914619570
         O            2.442261951232    -0.439182234768     0.060507630399    15.994914619570
         C            0.123613951232    -0.922011234768    -0.224903369601    12.000000000000
         C           -1.193608048768    -0.228446234768    -0.125710369601    12.000000000000
         C            1.299403951232     0.086867765232    -0.003336369601    12.000000000000
         H            0.191106951232    -1.709903234768     0.500434530399     1.007825032230
         H            0.216374951232    -1.360356234768    -1.222371369601     1.007825032230
         H           -2.460311048768     0.373423765232     1.132297630399     1.007825032230

  Basis Set: AUG-CC-PVTZ
    Blend: AUG-CC-PVTZ
  Basis Set: (AUG-CC-PVTZ AUX)
    Blend: AUG-CC-PVTZ-JKFIT
	 Reference Energy          =    -415.0284871212277835 [Eh]
	 Singles Energy            =      -0.0000000000000000 [Eh]
	 Same-Spin Energy          =      -0.4010845609937306 [Eh]
	 Opposite-Spin Energy      =      -1.1687606386300038 [Eh]
	 Correlation Energy        =      -1.5698451996237344 [Eh]
	 Total Energy              =    -416.5983323208515117 [Eh]

	 ================> DF-SCS-MP2 Energies <==================
	-----------------------------------------------------------
	 SCS Same-Spin Scale       =       0.3333333333333333 [-]
	 SCS Opposite-Spin Scale   =       1.2000000000000000 [-]
	 SCS Same-Spin Energy      =      -0.1336948536645768 [Eh]
	 SCS Opposite-Spin Energy  =      -1.4025127663560044 [Eh]
	 SCS Correlation Energy    =      -1.5362076200205812 [Eh]
	 SCS Total Energy          =    -416.5646947412483883 [Eh]
	-----------------------------------------------------------

  Dipole Moment: [D]
     X:    -6.2120      Y:    -2.4643      Z:     0.9654     Total:     6.7523

*** Psi4 exiting successfully. Buy a developer a beer!
