                               Psi4 1.3.2 release

  ==> Input File <==

--------------------------------------------------------------------------
#psi4
#
memory 32 gb

molecule  {
-1 1
  O       -1.6248440     0.4205080     1.0662040
  O       -1.8285700    -0.2634140    -1.0709070
  O        0.9874640     1.2716570    -0.4175620
  O        2.4715130    -0.3822350     0.1558140
  C        0.1438310    -0.9061850     0.1996810
  C       -1.0798778    -0.2999481    -0.0230445
  C        1.3410260     0.1217830    -0.0505500
  H        0.2143420    -1.2704300     1.2280200
  H        0.2567200    -1.7478830    -0.4879250
  H       -2.4148060     0.8894050     0.7315680
units angstrom
no_reorient  #important for SAPT in psi4, default
symmetry c1  #important for SAPT in psi4, default
}

set PROPERTIES_ORIGIN ["COM"]
properties('MP2/aug-cc-pvtz', properties = ['dipole'])
--------------------------------------------------------------------------

    Molecular point group: c1
  Charge       = -1
  Multiplicity = 1
  Basis Set: AUG-CC-PVTZ
    Blend: AUG-CC-PVTZ
  Basis Set: (AUG-CC-PVTZ AUX)
    Blend: AUG-CC-PVTZ-JKFIT

    Orbital Energies [Eh]
    ---------------------

    Doubly Occupied:

       1A    -20.463440     2A    -20.399737     3A    -20.323931
       4A    -20.323713     5A    -11.254229     6A    -11.180946
       7A    -11.088663     8A     -1.285471     9A     -1.196195
      10A     -1.168929    11A     -1.101492    12A     -0.913893
      13A     -0.667284    14A     -0.566380    15A     -0.548792
      16A     -0.519097    17A     -0.482438    18A     -0.455088
      19A     -0.431278    20A     -0.423972    21A     -0.409728
      22A     -0.358089    23A     -0.321713    24A     -0.307080
      25A     -0.242745    26A     -0.224274    27A     -0.222499

  @DF-RHF Final Energy:  -415.00403263567887

   => Energetics <=

    Nuclear Repulsion Energy =            288.5835257766336213
    One-Electron Energy =               -1153.4129259544945398
    Two-Electron Energy =                 449.8253675421819935
    Total Energy =                       -415.0040326356788682
  Basis Set: (AUG-CC-PVTZ AUX)
    Blend: AUG-CC-PVTZ-RI
    Molecular point group: c1

    Geometry (in Angstrom), charge = -1, multiplicity = 1:

       Center              X                  Y                   Z               Mass
    ------------   -----------------  -----------------  -----------------  -----------------
         O           -1.653870070827     0.405157339885     1.078491433799    15.994914619570
         O           -1.857596070827    -0.278764660115    -1.058619566201    15.994914619570
         O            0.958437929173     1.256306339885    -0.405274566201    15.994914619570
         O            2.442486929173    -0.397585660115     0.168101433799    15.994914619570
         C            0.114804929173    -0.921535660115     0.211968433799    12.000000000000
         C           -1.108903870827    -0.315298760115    -0.010757066201    12.000000000000
         C            1.311999929173     0.106432339885    -0.038262566201    12.000000000000
         H            0.185315929173    -1.285780660115     1.240307433799     1.007825032230
         H            0.227693929173    -1.763233660115    -0.475637566201     1.007825032230
         H           -2.443832070827     0.874054339885     0.743855433799     1.007825032230

  Basis Set: AUG-CC-PVTZ
    Blend: AUG-CC-PVTZ
  Basis Set: (AUG-CC-PVTZ AUX)
    Blend: AUG-CC-PVTZ-JKFIT
	 Reference Energy          =    -415.0040326356788682 [Eh]
	 Singles Energy            =      -0.0000000000000000 [Eh]
	 Same-Spin Energy          =      -0.4044481019526522 [Eh]
	 Opposite-Spin Energy      =      -1.1748347755714865 [Eh]
	 Correlation Energy        =      -1.5792828775241388 [Eh]
	 Total Energy              =    -416.5833155132029901 [Eh]

	 ================> DF-SCS-MP2 Energies <==================
	-----------------------------------------------------------
	 SCS Same-Spin Scale       =       0.3333333333333333 [-]
	 SCS Opposite-Spin Scale   =       1.2000000000000000 [-]
	 SCS Same-Spin Energy      =      -0.1348160339842174 [Eh]
	 SCS Opposite-Spin Energy  =      -1.4098017306857837 [Eh]
	 SCS Correlation Energy    =      -1.5446177646700012 [Eh]
	 SCS Total Energy          =    -416.5486504003488903 [Eh]
	-----------------------------------------------------------

  Dipole Moment: [D]
     X:    -5.0094      Y:    -1.8479      Z:     1.7941     Total:     5.6327

*** Psi4 exiting successfully. Buy a developer a beer!
