                               Psi4 1.3.2 release

  ==> Input File <==

--------------------------------------------------------------------------
#psi4
#
memory 32 gb

molecule  {
-1 1
  O       -1.6248440     0.4205080     1.0662040
  O       -1.8285700    -0.2634140    -1.0709070
  O        0.9874640     1.2716570    -0.4175620
  O        2.4715130    -0.3822350     0.1558140
  C        0.1438310    -0.9061850     0.1996810
  C       -1.1750101    -0.2611603    -0.0146363
  C        1.3410260     0.1217830    -0.0505500
  H        0.2143420    -1.2704300     1.2280200
  H        0.2567200    -1.7478830    -0.4879250
  H       -2.4148060     0.8894050     0.7315680
units angstrom
no_reorient  #important for SAPT in psi4, default
symmetry c1  #important for SAPT in psi4, default
}

set PROPERTIES_ORIGIN ["COM"]
properties('MP2/aug-cc-pvtz', properties = ['dipole'])
--------------------------------------------------------------------------

    Molecular point group: c1
  Charge       = -1
  Multiplicity = 1
  Basis Set: AUG-CC-PVTZ
    Blend: AUG-CC-PVTZ
  Basis Set: (AUG-CC-PVTZ AUX)
    Blend: AUG-CC-PVTZ-JKFIT

    Orbital Energies [Eh]
    ---------------------

    Doubly Occupied:

       1A    -20.479090     2A    -20.403250     3A    -20.316782
       4A    -20.316072     5A    -11.246975     6A    -11.170513
       7A    -11.086393     8A     -1.319741     9A     -1.201363
      10A     -1.188076    11A     -1.093936    12A     -0.875958
      13A     -0.679569    14A     -0.564937    15A     -0.557063
      16A     -0.520165    17A     -0.490293    18A     -0.443210
      19A     -0.439209    20A     -0.429117    21A     -0.405059
      22A     -0.352121    23A     -0.335357    24A     -0.312140
      25A     -0.235224    26A     -0.216295    27A     -0.215833

  @DF-RHF Final Energy:  -415.02711429934430

   => Energetics <=

    Nuclear Repulsion Energy =            288.4971686928424788
    One-Electron Energy =               -1153.2610836106262013
    Two-Electron Energy =                 449.7368006184394176
    Total Energy =                       -415.0271142993443050
  Basis Set: (AUG-CC-PVTZ AUX)
    Blend: AUG-CC-PVTZ-RI
    Molecular point group: c1

    Geometry (in Angstrom), charge = -1, multiplicity = 1:

       Center              X                  Y                   Z               Mass
    ------------   -----------------  -----------------  -----------------  -----------------
         O           -1.642787033250     0.400638510371     1.077511867484    15.994914619570
         O           -1.846513033250    -0.283283489629    -1.059599132516    15.994914619570
         O            0.969520966750     1.251787510371    -0.406254132516    15.994914619570
         O            2.453569966750    -0.402104489629     0.167121867484    15.994914619570
         C            0.125887966750    -0.926054489629     0.210988867484    12.000000000000
         C           -1.192953133250    -0.281029789629    -0.003328432516    12.000000000000
         C            1.323082966750     0.101913510371    -0.039242132516    12.000000000000
         H            0.196398966750    -1.290299489629     1.239327867484     1.007825032230
         H            0.238776966750    -1.767752489629    -0.476617132516     1.007825032230
         H           -2.432749033250     0.869535510371     0.742875867484     1.007825032230

  Basis Set: AUG-CC-PVTZ
    Blend: AUG-CC-PVTZ
  Basis Set: (AUG-CC-PVTZ AUX)
    Blend: AUG-CC-PVTZ-JKFIT
	 Reference Energy          =    -415.0271142993443050 [Eh]
	 Singles Energy            =      -0.0000000000000000 [Eh]
	 Same-Spin Energy          =      -0.4015389148460541 [Eh]
	 Opposite-Spin Energy      =      -1.1694954167849834 [Eh]
	 Correlation Energy        =      -1.5710343316310373 [Eh]
	 Total Energy              =    -416.5981486309753450 [Eh]

	 ================> DF-SCS-MP2 Energies <==================
	-----------------------------------------------------------
	 SCS Same-Spin Scale       =       0.3333333333333333 [-]
	 SCS Opposite-Spin Scale   =       1.2000000000000000 [-]
	 SCS Same-Spin Energy      =      -0.1338463049486847 [Eh]
	 SCS Opposite-Spin Energy  =      -1.4033945001419801 [Eh]
	 SCS Correlation Energy    =      -1.5372408050906647 [Eh]
	 SCS Total Energy          =    -416.5643551044349806 [Eh]
	-----------------------------------------------------------

  Dipole Moment: [D]
     X:    -5.8024      Y:    -1.5981      Z:     1.9115     Total:     6.3147

*** Psi4 exiting successfully. Buy a developer a beer!
