                               Psi4 1.3.2 release

  ==> Input File <==

--------------------------------------------------------------------------
#psi4
#
memory 32 gb

molecule  {
-1 1
  O       -1.6248440     0.4205080     1.0662040
  O       -1.8285700    -0.2634140    -1.0709070
  O        0.9874640     1.2716570    -0.4175620
  O        2.4715130    -0.3822350     0.1558140
  C        0.1438310    -0.9061850     0.1996810
  C       -1.1683160    -0.2561350    -0.0391410
  C        1.3410260     0.1217830    -0.0505500
  H        0.2193286    -1.3057478     1.2144603
  H        0.2567200    -1.7478830    -0.4879250
  H       -2.4148060     0.8894050     0.7315680
units angstrom
no_reorient  #important for SAPT in psi4, default
symmetry c1  #important for SAPT in psi4, default
}

set PROPERTIES_ORIGIN ["COM"]
properties('MP2/aug-cc-pvtz', properties = ['dipole'])
--------------------------------------------------------------------------

    Molecular point group: c1
  Charge       = -1
  Multiplicity = 1
  Basis Set: AUG-CC-PVTZ
    Blend: AUG-CC-PVTZ
  Basis Set: (AUG-CC-PVTZ AUX)
    Blend: AUG-CC-PVTZ-JKFIT

    Orbital Energies [Eh]
    ---------------------

    Doubly Occupied:

       1A    -20.473329     2A    -20.407365     3A    -20.317112
       4A    -20.315762     5A    -11.246542     6A    -11.170408
       7A    -11.086275     8A     -1.314525     9A     -1.208617
      10A     -1.188259    11A     -1.094023    12A     -0.875283
      13A     -0.672847    14A     -0.563696    15A     -0.556141
      16A     -0.521945    17A     -0.488730    18A     -0.447222
      19A     -0.435377    20A     -0.427984    21A     -0.406512
      22A     -0.351960    23A     -0.339832    24A     -0.315050
      25A     -0.235484    26A     -0.216355    27A     -0.215960

  @DF-RHF Final Energy:  -415.02838872535688

   => Energetics <=

    Nuclear Repulsion Energy =            288.5353669398364787
    One-Electron Energy =               -1153.3423177999447944
    Two-Electron Energy =                 449.7785621347514962
    Total Energy =                       -415.0283887253568764
  Basis Set: (AUG-CC-PVTZ AUX)
    Blend: AUG-CC-PVTZ-RI
    Molecular point group: c1

    Geometry (in Angstrom), charge = -1, multiplicity = 1:

       Center              X                  Y                   Z               Mass
    ------------   -----------------  -----------------  -----------------  -----------------
         O           -1.643615695615     0.400398620222     1.080499370819    15.994914619570
         O           -1.847341695615    -0.283523379778    -1.056611629181    15.994914619570
         O            0.968692304385     1.251547620222    -0.403266629181    15.994914619570
         O            2.452741304385    -0.402344379778     0.170109370819    15.994914619570
         C            0.125059304385    -0.926294379778     0.213976370819    12.000000000000
         C           -1.187087695615    -0.276244379778    -0.024845629181    12.000000000000
         C            1.322254304385     0.101673620222    -0.036254629181    12.000000000000
         H            0.200556904385    -1.325857179778     1.228755670819     1.007825032230
         H            0.237948304385    -1.767992379778    -0.473629629181     1.007825032230
         H           -2.433577695615     0.869295620222     0.745863370819     1.007825032230

  Basis Set: AUG-CC-PVTZ
    Blend: AUG-CC-PVTZ
  Basis Set: (AUG-CC-PVTZ AUX)
    Blend: AUG-CC-PVTZ-JKFIT
	 Reference Energy          =    -415.0283887253568764 [Eh]
	 Singles Energy            =      -0.0000000000000000 [Eh]
	 Same-Spin Energy          =      -0.4012808321042587 [Eh]
	 Opposite-Spin Energy      =      -1.1691419035942641 [Eh]
	 Correlation Energy        =      -1.5704227356985228 [Eh]
	 Total Energy              =    -416.5988114610553907 [Eh]

	 ================> DF-SCS-MP2 Energies <==================
	-----------------------------------------------------------
	 SCS Same-Spin Scale       =       0.3333333333333333 [-]
	 SCS Opposite-Spin Scale   =       1.2000000000000000 [-]
	 SCS Same-Spin Energy      =      -0.1337602773680862 [Eh]
	 SCS Opposite-Spin Energy  =      -1.4029702843131169 [Eh]
	 SCS Correlation Energy    =      -1.5367305616812030 [Eh]
	 SCS Total Energy          =    -416.5651192870381010 [Eh]
	-----------------------------------------------------------

  Dipole Moment: [D]
     X:    -5.8021      Y:    -1.6659      Z:     1.7282     Total:     6.2790

*** Psi4 exiting successfully. Buy a developer a beer!
