                               Psi4 1.3.2 release

  ==> Input File <==

--------------------------------------------------------------------------
#psi4
#
memory 32 gb

molecule  {
-1 1
  O       -1.6248440     0.4205080     1.0662040
  O       -1.8285700    -0.2634140    -1.0709070
  O        0.9874640     1.2716570    -0.4175620
  O        2.4715130    -0.3822350     0.1558140
  C        0.1438310    -0.9061850     0.1996810
  C       -1.1169663    -0.1692196    -0.0622405
  C        1.3410260     0.1217830    -0.0505500
  H        0.2143420    -1.2704300     1.2280200
  H        0.2567200    -1.7478830    -0.4879250
  H       -2.4148060     0.8894050     0.7315680
units angstrom
no_reorient  #important for SAPT in psi4, default
symmetry c1  #important for SAPT in psi4, default
}

set PROPERTIES_ORIGIN ["COM"]
properties('MP2/aug-cc-pvtz', properties = ['dipole'])
--------------------------------------------------------------------------

    Molecular point group: c1
  Charge       = -1
  Multiplicity = 1
  Basis Set: AUG-CC-PVTZ
    Blend: AUG-CC-PVTZ
  Basis Set: (AUG-CC-PVTZ AUX)
    Blend: AUG-CC-PVTZ-JKFIT

    Orbital Energies [Eh]
    ---------------------

    Doubly Occupied:

       1A    -20.474810     2A    -20.403648     3A    -20.320340
       4A    -20.315491     5A    -11.248801     6A    -11.169832
       7A    -11.086310     8A     -1.313490     9A     -1.201497
      10A     -1.190045    11A     -1.095940    12A     -0.875580
      13A     -0.673215    14A     -0.562709    15A     -0.552702
      16A     -0.522870    17A     -0.489421    18A     -0.444860
      19A     -0.438565    20A     -0.427975    21A     -0.407897
      22A     -0.353613    23A     -0.335550    24A     -0.312708
      25A     -0.237466    26A     -0.218258    27A     -0.214749

  @DF-RHF Final Energy:  -415.02314788571772

   => Energetics <=

    Nuclear Repulsion Energy =            289.0030890961069758
    One-Electron Energy =               -1154.2757866028932767
    Two-Electron Energy =                 450.2495496210685246
    Total Energy =                       -415.0231478857177194
  Basis Set: (AUG-CC-PVTZ AUX)
    Blend: AUG-CC-PVTZ-RI
    Molecular point group: c1

    Geometry (in Angstrom), charge = -1, multiplicity = 1:

       Center              X                  Y                   Z               Mass
    ------------   -----------------  -----------------  -----------------  -----------------
         O           -1.649549211990     0.389927298375     1.083057819147    15.994914619570
         O           -1.853275211990    -0.293994701625    -1.054053180853    15.994914619570
         O            0.962758788010     1.241076298375    -0.400708180853    15.994914619570
         O            2.446807788010    -0.412815701625     0.172667819147    15.994914619570
         C            0.119125788010    -0.936765701625     0.216534819147    12.000000000000
         C           -1.141671511990    -0.199800301625    -0.045386680853    12.000000000000
         C            1.316320788010     0.091202298375    -0.033696180853    12.000000000000
         H            0.189636788010    -1.301010701625     1.244873819147     1.007825032230
         H            0.232014788010    -1.778463701625    -0.471071180853     1.007825032230
         H           -2.439511211990     0.858824298375     0.748421819147     1.007825032230

  Basis Set: AUG-CC-PVTZ
    Blend: AUG-CC-PVTZ
  Basis Set: (AUG-CC-PVTZ AUX)
    Blend: AUG-CC-PVTZ-JKFIT
	 Reference Energy          =    -415.0231478857177194 [Eh]
	 Singles Energy            =      -0.0000000000000000 [Eh]
	 Same-Spin Energy          =      -0.4015788298036816 [Eh]
	 Opposite-Spin Energy      =      -1.1697822514006520 [Eh]
	 Correlation Energy        =      -1.5713610812043335 [Eh]
	 Total Energy              =    -416.5945089669220351 [Eh]

	 ================> DF-SCS-MP2 Energies <==================
	-----------------------------------------------------------
	 SCS Same-Spin Scale       =       0.3333333333333333 [-]
	 SCS Opposite-Spin Scale   =       1.2000000000000000 [-]
	 SCS Same-Spin Energy      =      -0.1338596099345605 [Eh]
	 SCS Opposite-Spin Energy  =      -1.4037387016807823 [Eh]
	 SCS Correlation Energy    =      -1.5375983116153429 [Eh]
	 SCS Total Energy          =    -416.5607461973330601 [Eh]
	-----------------------------------------------------------

  Dipole Moment: [D]
     X:    -5.6769      Y:    -1.5116      Z:     1.7565     Total:     6.1317

*** Psi4 exiting successfully. Buy a developer a beer!
