                               Psi4 1.4a3.dev225

  ==> Input File <==

--------------------------------------------------------------------------
#psi4
#
memory 32 gb

molecule  {
-1 1
  O       -1.6007150    -0.1046360     1.1589700
  O       -1.8247480     0.2557850    -1.0595740
  O        0.9980150     1.3323240     0.0674640
  O        2.4614550    -0.4137090     0.0564000
  C        0.1428070    -0.8965380    -0.2290110
  C       -1.1744150    -0.2029730    -0.1298180
  C        1.3561608     0.1445723    -0.0003655
  H        0.2115580    -1.6991150     0.5098460
  H        0.2355680    -1.3348830    -1.2264790
  H       -2.4411180     0.3988970     1.1281900
units angstrom
no_reorient  #important for SAPT in psi4, default
symmetry c1  #important for SAPT in psi4, default
}

set PROPERTIES_ORIGIN ["COM"]
properties('MP2/aug-cc-pvtz', properties = ['dipole'])
--------------------------------------------------------------------------

    Molecular point group: c1
  Charge       = -1
  Multiplicity = 1
  Basis Set: AUG-CC-PVTZ
    Blend: AUG-CC-PVTZ
  Basis Set: (AUG-CC-PVTZ AUX)
    Blend: AUG-CC-PVTZ-JKFIT

    Orbital Energies [Eh]
    ---------------------

    Doubly Occupied:

       1A    -20.475874     2A    -20.402818     3A    -20.314975
       4A    -20.314602     5A    -11.242178     6A    -11.166006
       7A    -11.080487     8A     -1.315908     9A     -1.208615
      10A     -1.196264    11A     -1.102100    12A     -0.867271
      13A     -0.676510    14A     -0.561680    15A     -0.552588
      16A     -0.518158    17A     -0.489066    18A     -0.443445
      19A     -0.433705    20A     -0.430761    21A     -0.410106
      22A     -0.355292    23A     -0.338709    24A     -0.311036
      25A     -0.236382    26A     -0.218304    27A     -0.210297

  @DF-RHF Final Energy:  -415.03042300815451

   => Energetics <=

    Nuclear Repulsion Energy =            289.1362278199546836
    One-Electron Energy =               -1154.5870315205095267
    Two-Electron Energy =                 450.4203806924003288
    Total Energy =                       -415.0304230081545143
  Basis Set: (AUG-CC-PVTZ AUX)
    Blend: AUG-CC-PVTZ-RI
    Molecular point group: c1

    Geometry (in Angstrom), charge = -1, multiplicity = 1:

       Center              X                  Y                   Z               Mass
    ------------   -----------------  -----------------  -----------------  -----------------
         O           -1.624296589467    -0.133720539362     1.162120699440    15.994914619570
         O           -1.848329589467     0.226700460638    -1.056423300560    15.994914619570
         O            0.974433410533     1.303239460638     0.070614699440    15.994914619570
         O            2.437873410533    -0.442793539362     0.059550699440    15.994914619570
         C            0.119225410533    -0.925622539362    -0.225860300560    12.000000000000
         C           -1.197996589467    -0.232057539362    -0.126667300560    12.000000000000
         C            1.332579210533     0.115487760638     0.002785199440    12.000000000000
         H            0.187976410533    -1.728199539362     0.512996699440     1.007825032230
         H            0.211986410533    -1.363967539362    -1.223328300560     1.007825032230
         H           -2.464699589467     0.369812460638     1.131340699440     1.007825032230

  Basis Set: AUG-CC-PVTZ
    Blend: AUG-CC-PVTZ
  Basis Set: (AUG-CC-PVTZ AUX)
    Blend: AUG-CC-PVTZ-JKFIT
	 Reference Energy          =    -415.0304230081545143 [Eh]
	 Singles Energy            =      -0.0000000000000000 [Eh]
	 Same-Spin Energy          =      -0.4005885846162149 [Eh]
	 Opposite-Spin Energy      =      -1.1673219070774687 [Eh]
	 Correlation Energy        =      -1.5679104916936837 [Eh]
	 Total Energy              =    -416.5983334998481951 [Eh]

	 ================> DF-SCS-MP2 Energies <==================
	-----------------------------------------------------------
	 SCS Same-Spin Scale       =       0.3333333333333333 [-]
	 SCS Opposite-Spin Scale   =       1.2000000000000000 [-]
	 SCS Same-Spin Energy      =      -0.1335295282054050 [Eh]
	 SCS Opposite-Spin Energy  =      -1.4007862884929625 [Eh]
	 SCS Correlation Energy    =      -1.5343158166983675 [Eh]
	 SCS Total Energy          =    -416.5647388248528955 [Eh]
	-----------------------------------------------------------

  Dipole Moment: [D]
     X:    -5.8049      Y:    -2.2340      Z:     1.0176     Total:     6.3026

*** Psi4 exiting successfully. Buy a developer a beer!
