                               Psi4 1.4a3.dev225

  ==> Input File <==

--------------------------------------------------------------------------
#psi4
#
memory 32 gb

molecule  {
-1 1
  O       -1.6007150    -0.1046360     1.1589700
  O       -1.8247480     0.2557850    -1.0595740
  O        0.9980150     1.3323240     0.0674640
  O        2.4614550    -0.4137090     0.0564000
  C        0.1428070    -0.8965380    -0.2290110
  C       -1.1920726    -0.1936756    -0.1284883
  C        1.3185970     0.1123410    -0.0074440
  H        0.2115580    -1.6991150     0.5098460
  H        0.2355680    -1.3348830    -1.2264790
  H       -2.4411180     0.3988970     1.1281900
units angstrom
no_reorient  #important for SAPT in psi4, default
symmetry c1  #important for SAPT in psi4, default
}

set PROPERTIES_ORIGIN ["COM"]
properties('MP2/aug-cc-pvtz', properties = ['dipole'])
--------------------------------------------------------------------------

    Molecular point group: c1
  Charge       = -1
  Multiplicity = 1
  Basis Set: AUG-CC-PVTZ
    Blend: AUG-CC-PVTZ
  Basis Set: (AUG-CC-PVTZ AUX)
    Blend: AUG-CC-PVTZ-JKFIT

    Orbital Energies [Eh]
    ---------------------

    Doubly Occupied:

       1A    -20.481104     2A    -20.408291     3A    -20.310113
       4A    -20.309170     5A    -11.245510     6A    -11.162799
       7A    -11.087227     8A     -1.325050     9A     -1.220216
      10A     -1.181151    11A     -1.082416    12A     -0.871863
      13A     -0.684627    14A     -0.568420    15A     -0.559291
      16A     -0.524037    17A     -0.490223    18A     -0.448100
      19A     -0.436033    20A     -0.428838    21A     -0.400269
      22A     -0.350232    23A     -0.338971    24A     -0.313952
      25A     -0.226213    26A     -0.217349    27A     -0.208559

  @DF-RHF Final Energy:  -415.02923254841045

   => Energetics <=

    Nuclear Repulsion Energy =            289.2093726712188868
    One-Electron Energy =               -1154.7171610144832812
    Two-Electron Energy =                 450.4785557948538894
    Total Energy =                       -415.0292325484104481
  Basis Set: (AUG-CC-PVTZ AUX)
    Blend: AUG-CC-PVTZ-RI
    Molecular point group: c1

    Geometry (in Angstrom), charge = -1, multiplicity = 1:

       Center              X                  Y                   Z               Mass
    ------------   -----------------  -----------------  -----------------  -----------------
         O           -1.617863224025    -0.131048709967     1.162790442171    15.994914619570
         O           -1.841896224025     0.229372290033    -1.055753557829    15.994914619570
         O            0.980866775975     1.305911290033     0.071284442171    15.994914619570
         O            2.444306775975    -0.440121709967     0.060220442171    15.994914619570
         C            0.125658775975    -0.922950709967    -0.225190557829    12.000000000000
         C           -1.209220824025    -0.220088309967    -0.124667857829    12.000000000000
         C            1.301448775975     0.085928290033    -0.003623557829    12.000000000000
         H            0.194409775975    -1.725527709967     0.513666442171     1.007825032230
         H            0.218419775975    -1.361295709967    -1.222658557829     1.007825032230
         H           -2.458266224025     0.372484290033     1.132010442171     1.007825032230

  Basis Set: AUG-CC-PVTZ
    Blend: AUG-CC-PVTZ
  Basis Set: (AUG-CC-PVTZ AUX)
    Blend: AUG-CC-PVTZ-JKFIT
	 Reference Energy          =    -415.0292325484104481 [Eh]
	 Singles Energy            =      -0.0000000000000000 [Eh]
	 Same-Spin Energy          =      -0.4006567951174640 [Eh]
	 Opposite-Spin Energy      =      -1.1680822667316637 [Eh]
	 Correlation Energy        =      -1.5687390618491277 [Eh]
	 Total Energy              =    -416.5979716102595489 [Eh]

	 ================> DF-SCS-MP2 Energies <==================
	-----------------------------------------------------------
	 SCS Same-Spin Scale       =       0.3333333333333333 [-]
	 SCS Opposite-Spin Scale   =       1.2000000000000000 [-]
	 SCS Same-Spin Energy      =      -0.1335522650391547 [Eh]
	 SCS Opposite-Spin Energy  =      -1.4016987200779965 [Eh]
	 SCS Correlation Energy    =      -1.5352509851171512 [Eh]
	 SCS Total Energy          =    -416.5644835335276071 [Eh]
	-----------------------------------------------------------

  Dipole Moment: [D]
     X:    -6.3489      Y:    -2.4139      Z:     0.9695     Total:     6.8611

*** Psi4 exiting successfully. Buy a developer a beer!
