                               Psi4 1.3.2 release

  ==> Input File <==

--------------------------------------------------------------------------
#psi4
#
memory 32 gb

molecule  {
-1 1
  O       -1.6248440     0.4205080     1.0662040
  O       -1.8285700    -0.2634140    -1.0709070
  O        0.9874640     1.2716570    -0.4175620
  O        2.4715130    -0.3822350     0.1558140
  C        0.1438310    -0.9061850     0.1996810
  C       -1.1375648    -0.2380284    -0.1363581
  C        1.3410260     0.1217830    -0.0505500
  H        0.2143420    -1.2704300     1.2280200
  H        0.2567200    -1.7478830    -0.4879250
  H       -2.4148060     0.8894050     0.7315680
units angstrom
no_reorient  #important for SAPT in psi4, default
symmetry c1  #important for SAPT in psi4, default
}

set PROPERTIES_ORIGIN ["COM"]
properties('MP2/aug-cc-pvtz', properties = ['dipole'])
--------------------------------------------------------------------------

    Molecular point group: c1
  Charge       = -1
  Multiplicity = 1
  Basis Set: AUG-CC-PVTZ
    Blend: AUG-CC-PVTZ
  Basis Set: (AUG-CC-PVTZ AUX)
    Blend: AUG-CC-PVTZ-JKFIT

    Orbital Energies [Eh]
    ---------------------

    Doubly Occupied:

       1A    -20.448475     2A    -20.422437     3A    -20.318574
       4A    -20.315711     5A    -11.243663     6A    -11.170209
       7A    -11.087610     8A     -1.322078     9A     -1.209109
      10A     -1.189166    11A     -1.094982    12A     -0.875191
      13A     -0.649056    14A     -0.563895    15A     -0.554492
      16A     -0.523585    17A     -0.487793    18A     -0.460198
      19A     -0.431941    20A     -0.423090    21A     -0.409001
      22A     -0.357934    23A     -0.346048    24A     -0.317400
      25A     -0.236375    26A     -0.217285    27A     -0.215725

  @DF-RHF Final Energy:  -415.02066511142851

   => Energetics <=

    Nuclear Repulsion Energy =            288.9146055042852481
    One-Electron Energy =               -1154.0884974672219414
    Two-Electron Energy =                 450.1532268515082365
    Total Energy =                       -415.0206651114285137
  Basis Set: (AUG-CC-PVTZ AUX)
    Blend: AUG-CC-PVTZ-RI
    Molecular point group: c1

    Geometry (in Angstrom), charge = -1, multiplicity = 1:

       Center              X                  Y                   Z               Mass
    ------------   -----------------  -----------------  -----------------  -----------------
         O           -1.647149459755     0.397943613717     1.091692616645    15.994914619570
         O           -1.850875459755    -0.285978386283    -1.045418383355    15.994914619570
         O            0.965158540245     1.249092613717    -0.392073383355    15.994914619570
         O            2.449207540245    -0.404799386283     0.181302616645    15.994914619570
         C            0.121525540245    -0.928749386283     0.225169616645    12.000000000000
         C           -1.159870259755    -0.260592786283    -0.110869483355    12.000000000000
         C            1.318720540245     0.099218613717    -0.025061383355    12.000000000000
         H            0.192036540245    -1.292994386283     1.253508616645     1.007825032230
         H            0.234414540245    -1.770447386283    -0.462436383355     1.007825032230
         H           -2.437111459755     0.866840613717     0.757056616645     1.007825032230

  Basis Set: AUG-CC-PVTZ
    Blend: AUG-CC-PVTZ
  Basis Set: (AUG-CC-PVTZ AUX)
    Blend: AUG-CC-PVTZ-JKFIT
	 Reference Energy          =    -415.0206651114285137 [Eh]
	 Singles Energy            =      -0.0000000000000000 [Eh]
	 Same-Spin Energy          =      -0.4007725106338000 [Eh]
	 Opposite-Spin Energy      =      -1.1686646991737981 [Eh]
	 Correlation Energy        =      -1.5694372098075982 [Eh]
	 Total Energy              =    -416.5901023212360883 [Eh]

	 ================> DF-SCS-MP2 Energies <==================
	-----------------------------------------------------------
	 SCS Same-Spin Scale       =       0.3333333333333333 [-]
	 SCS Opposite-Spin Scale   =       1.2000000000000000 [-]
	 SCS Same-Spin Energy      =      -0.1335908368779333 [Eh]
	 SCS Opposite-Spin Energy  =      -1.4023976390085577 [Eh]
	 SCS Correlation Energy    =      -1.5359884758864910 [Eh]
	 SCS Total Energy          =    -416.5566535873149974 [Eh]
	-----------------------------------------------------------

  Dipole Moment: [D]
     X:    -5.6906      Y:    -1.8760      Z:     0.9742     Total:     6.0706

*** Psi4 exiting successfully. Buy a developer a beer!
