                               Psi4 1.3.2 release

  ==> Input File <==

--------------------------------------------------------------------------
#psi4
#
memory 32 gb

molecule  {
-1 1
  O       -1.6248440     0.4205080     1.0662040
  O       -1.8285700    -0.2634140    -1.0709070
  O        0.9874640     1.2716570    -0.4175620
  O        2.4715130    -0.3822350     0.1558140
  C        0.1438310    -0.9061850     0.1996810
  C       -1.2567542    -0.2123219    -0.0552375
  C        1.3410260     0.1217830    -0.0505500
  H        0.2143420    -1.2704300     1.2280200
  H        0.2567200    -1.7478830    -0.4879250
  H       -2.4148060     0.8894050     0.7315680
units angstrom
no_reorient  #important for SAPT in psi4, default
symmetry c1  #important for SAPT in psi4, default
}

set PROPERTIES_ORIGIN ["COM"]
properties('MP2/aug-cc-pvtz', properties = ['dipole'])
--------------------------------------------------------------------------

    Molecular point group: c1
  Charge       = -1
  Multiplicity = 1
  Basis Set: AUG-CC-PVTZ
    Blend: AUG-CC-PVTZ
  Basis Set: (AUG-CC-PVTZ AUX)
    Blend: AUG-CC-PVTZ-JKFIT

    Orbital Energies [Eh]
    ---------------------

    Doubly Occupied:

       1A    -20.482736     2A    -20.413993     3A    -20.310925
       4A    -20.309326     5A    -11.238913     6A    -11.161468
       7A    -11.081148     8A     -1.343363     9A     -1.248032
      10A     -1.181599    11A     -1.087539    12A     -0.843490
      13A     -0.676133    14A     -0.580652    15A     -0.554986
      16A     -0.524743    17A     -0.501378    18A     -0.452666
      19A     -0.427473    20A     -0.425507    21A     -0.403214
      22A     -0.363821    23A     -0.341559    24A     -0.307809
      25A     -0.227997    26A     -0.210886    27A     -0.207417

  @DF-RHF Final Energy:  -415.02235339383896

   => Energetics <=

    Nuclear Repulsion Energy =            288.6780384238617785
    One-Electron Energy =               -1153.5832415876491268
    Two-Electron Energy =                 449.8828497699483364
    Total Energy =                       -415.0223533938389551
  Basis Set: (AUG-CC-PVTZ AUX)
    Blend: AUG-CC-PVTZ-RI
    Molecular point group: c1

    Geometry (in Angstrom), charge = -1, multiplicity = 1:

       Center              X                  Y                   Z               Mass
    ------------   -----------------  -----------------  -----------------  -----------------
         O           -1.633263738512     0.394948772791     1.082241960473    15.994914619570
         O           -1.836989738512    -0.288973227209    -1.054869039527    15.994914619570
         O            0.979044261488     1.246097772791    -0.401524039527    15.994914619570
         O            2.463093261488    -0.407794227209     0.171851960473    15.994914619570
         C            0.135411261488    -0.931744227209     0.215718960473    12.000000000000
         C           -1.265173938512    -0.237881127209    -0.039199539527    12.000000000000
         C            1.332606261488     0.096223772791    -0.034512039527    12.000000000000
         H            0.205922261488    -1.295989227209     1.244057960473     1.007825032230
         H            0.248300261488    -1.773442227209    -0.471887039527     1.007825032230
         H           -2.423225738512     0.863845772791     0.747605960473     1.007825032230

  Basis Set: AUG-CC-PVTZ
    Blend: AUG-CC-PVTZ
  Basis Set: (AUG-CC-PVTZ AUX)
    Blend: AUG-CC-PVTZ-JKFIT
	 Reference Energy          =    -415.0223533938389551 [Eh]
	 Singles Energy            =      -0.0000000000000000 [Eh]
	 Same-Spin Energy          =      -0.3994785289077297 [Eh]
	 Opposite-Spin Energy      =      -1.1658380476182606 [Eh]
	 Correlation Energy        =      -1.5653165765259902 [Eh]
	 Total Energy              =    -416.5876699703649706 [Eh]

	 ================> DF-SCS-MP2 Energies <==================
	-----------------------------------------------------------
	 SCS Same-Spin Scale       =       0.3333333333333333 [-]
	 SCS Opposite-Spin Scale   =       1.2000000000000000 [-]
	 SCS Same-Spin Energy      =      -0.1331595096359099 [Eh]
	 SCS Opposite-Spin Energy  =      -1.3990056571419127 [Eh]
	 SCS Correlation Energy    =      -1.5321651667778227 [Eh]
	 SCS Total Energy          =    -416.5545185606167706 [Eh]
	-----------------------------------------------------------

  Dipole Moment: [D]
     X:    -6.4943      Y:    -1.4574      Z:     1.6411     Total:     6.8552

*** Psi4 exiting successfully. Buy a developer a beer!
