                               Psi4 1.3.2 release

  ==> Input File <==

--------------------------------------------------------------------------
#psi4
#
memory 32 gb

molecule  {
-1 1
  O       -1.6248440     0.4205080     1.0662040
  O       -1.8285700    -0.2634140    -1.0709070
  O        0.9874640     1.2716570    -0.4175620
  O        2.4715130    -0.3822350     0.1558140
  C        0.1438310    -0.9061850     0.1996810
  C       -1.1683160    -0.2561350    -0.0391410
  C        1.3410260     0.1217830    -0.0505500
  H        0.2168464    -1.2881471     1.2213958
  H        0.2567200    -1.7478830    -0.4879250
  H       -2.4148060     0.8894050     0.7315680
units angstrom
no_reorient  #important for SAPT in psi4, default
symmetry c1  #important for SAPT in psi4, default
}

set PROPERTIES_ORIGIN ["COM"]
properties('MP2/aug-cc-pvtz', properties = ['dipole'])
--------------------------------------------------------------------------

    Molecular point group: c1
  Charge       = -1
  Multiplicity = 1
  Basis Set: AUG-CC-PVTZ
    Blend: AUG-CC-PVTZ
  Basis Set: (AUG-CC-PVTZ AUX)
    Blend: AUG-CC-PVTZ-JKFIT

    Orbital Energies [Eh]
    ---------------------

    Doubly Occupied:

       1A    -20.473330     2A    -20.407227     3A    -20.317067
       4A    -20.315829     5A    -11.246339     6A    -11.170367
       7A    -11.086298     8A     -1.314499     9A     -1.208548
      10A     -1.188277    11A     -1.094032    12A     -0.875392
      13A     -0.672664    14A     -0.563777    15A     -0.556117
      16A     -0.521194    17A     -0.488723    18A     -0.447155
      19A     -0.436686    20A     -0.427744    21A     -0.406266
      22A     -0.352350    23A     -0.339878    24A     -0.314795
      25A     -0.235423    26A     -0.216372    27A     -0.215856

  @DF-RHF Final Energy:  -415.02851918253606

   => Energetics <=

    Nuclear Repulsion Energy =            288.5570317337647452
    One-Electron Energy =               -1153.3866866024168303
    Two-Electron Energy =                 449.8011356861160834
    Total Energy =                       -415.0285191825360585
  Basis Set: (AUG-CC-PVTZ AUX)
    Blend: AUG-CC-PVTZ-RI
    Molecular point group: c1

    Geometry (in Angstrom), charge = -1, multiplicity = 1:

       Center              X                  Y                   Z               Mass
    ------------   -----------------  -----------------  -----------------  -----------------
         O           -1.643591408749     0.400226407733     1.080431511034    15.994914619570
         O           -1.847317408749    -0.283695592267    -1.056679488966    15.994914619570
         O            0.968716591251     1.251375407733    -0.403334488966    15.994914619570
         O            2.452765591251    -0.402516592267     0.170041511034    15.994914619570
         C            0.125083591251    -0.926466592267     0.213908511034    12.000000000000
         C           -1.187063408749    -0.276416592267    -0.024913488966    12.000000000000
         C            1.322278591251     0.101501407733    -0.036322488966    12.000000000000
         H            0.198098991251    -1.308428692267     1.235623311034     1.007825032230
         H            0.237972591251    -1.768164592267    -0.473697488966     1.007825032230
         H           -2.433553408749     0.869123407733     0.745795511034     1.007825032230

  Basis Set: AUG-CC-PVTZ
    Blend: AUG-CC-PVTZ
  Basis Set: (AUG-CC-PVTZ AUX)
    Blend: AUG-CC-PVTZ-JKFIT
	 Reference Energy          =    -415.0285191825360585 [Eh]
	 Singles Energy            =      -0.0000000000000000 [Eh]
	 Same-Spin Energy          =      -0.4012879726356671 [Eh]
	 Opposite-Spin Energy      =      -1.1691464517953476 [Eh]
	 Correlation Energy        =      -1.5704344244310147 [Eh]
	 Total Energy              =    -416.5989536069670862 [Eh]

	 ================> DF-SCS-MP2 Energies <==================
	-----------------------------------------------------------
	 SCS Same-Spin Scale       =       0.3333333333333333 [-]
	 SCS Opposite-Spin Scale   =       1.2000000000000000 [-]
	 SCS Same-Spin Energy      =      -0.1337626575452223 [Eh]
	 SCS Opposite-Spin Energy  =      -1.4029757421544171 [Eh]
	 SCS Correlation Energy    =      -1.5367383996996395 [Eh]
	 SCS Total Energy          =    -416.5652575822356880 [Eh]
	-----------------------------------------------------------

  Dipole Moment: [D]
     X:    -5.7976      Y:    -1.6586      Z:     1.7297     Total:     6.2734

*** Psi4 exiting successfully. Buy a developer a beer!
