                               Psi4 1.3.2 release

  ==> Input File <==

--------------------------------------------------------------------------
#psi4
#
memory 32 gb

molecule  {
-1 1
  O       -1.6248440     0.4205080     1.0662040
  O       -1.8285700    -0.2634140    -1.0709070
  O        0.9874640     1.2716570    -0.4175620
  O        2.4715130    -0.3822350     0.1558140
  C        0.1438310    -0.9061850     0.1996810
  C       -1.1683160    -0.2561350    -0.0391410
  C        1.3410260     0.1217830    -0.0505500
  H        0.2207919    -1.3037486     1.3220853
  H        0.2567200    -1.7478830    -0.4879250
  H       -2.4148060     0.8894050     0.7315680
units angstrom
no_reorient  #important for SAPT in psi4, default
symmetry c1  #important for SAPT in psi4, default
}

set PROPERTIES_ORIGIN ["COM"]
properties('MP2/aug-cc-pvtz', properties = ['dipole'])
--------------------------------------------------------------------------

    Molecular point group: c1
  Charge       = -1
  Multiplicity = 1
  Basis Set: AUG-CC-PVTZ
    Blend: AUG-CC-PVTZ
  Basis Set: (AUG-CC-PVTZ AUX)
    Blend: AUG-CC-PVTZ-JKFIT

    Orbital Energies [Eh]
    ---------------------

    Doubly Occupied:

       1A    -20.473312     2A    -20.408142     3A    -20.317886
       4A    -20.315928     5A    -11.247379     6A    -11.171207
       7A    -11.097986     8A     -1.314782     9A     -1.209130
      10A     -1.188728    11A     -1.094482    12A     -0.870070
      13A     -0.671245    14A     -0.563746    15A     -0.556988
      16A     -0.513401    17A     -0.489097    18A     -0.447045
      19A     -0.431842    20A     -0.424343    21A     -0.405469
      22A     -0.350123    23A     -0.340095    24A     -0.313722
      25A     -0.235582    26A     -0.216850    27A     -0.216493

  @DF-RHF Final Energy:  -415.02176342845877

   => Energetics <=

    Nuclear Repulsion Energy =            288.1080482769601190
    One-Electron Energy =               -1152.4894719045803413
    Two-Electron Energy =                 449.3596601991615103
    Total Energy =                       -415.0217634284587689
  Basis Set: (AUG-CC-PVTZ AUX)
    Blend: AUG-CC-PVTZ-RI
    Molecular point group: c1

    Geometry (in Angstrom), charge = -1, multiplicity = 1:

       Center              X                  Y                   Z               Mass
    ------------   -----------------  -----------------  -----------------  -----------------
         O           -1.643630013144     0.400379059227     1.079446323544    15.994914619570
         O           -1.847356013144    -0.283542940773    -1.057664676456    15.994914619570
         O            0.968677986856     1.251528059227    -0.404319676456    15.994914619570
         O            2.452726986856    -0.402363940773     0.169056323544    15.994914619570
         C            0.125044986856    -0.926313940773     0.212923323544    12.000000000000
         C           -1.187102013144    -0.276263940773    -0.025898676456    12.000000000000
         C            1.322239986856     0.101654059227    -0.037307676456    12.000000000000
         H            0.202005886856    -1.323877540773     1.335327623544     1.007825032230
         H            0.237933986856    -1.768011940773    -0.474682676456     1.007825032230
         H           -2.433592013144     0.869276059227     0.744810323544     1.007825032230

  Basis Set: AUG-CC-PVTZ
    Blend: AUG-CC-PVTZ
  Basis Set: (AUG-CC-PVTZ AUX)
    Blend: AUG-CC-PVTZ-JKFIT
	 Reference Energy          =    -415.0217634284587689 [Eh]
	 Singles Energy            =      -0.0000000000000000 [Eh]
	 Same-Spin Energy          =      -0.4013598111640981 [Eh]
	 Opposite-Spin Energy      =      -1.1699340629959418 [Eh]
	 Correlation Energy        =      -1.5712938741600400 [Eh]
	 Total Energy              =    -416.5930573026188313 [Eh]

	 ================> DF-SCS-MP2 Energies <==================
	-----------------------------------------------------------
	 SCS Same-Spin Scale       =       0.3333333333333333 [-]
	 SCS Opposite-Spin Scale   =       1.2000000000000000 [-]
	 SCS Same-Spin Energy      =      -0.1337866037213660 [Eh]
	 SCS Opposite-Spin Energy  =      -1.4039208755951302 [Eh]
	 SCS Correlation Energy    =      -1.5377074793164962 [Eh]
	 SCS Total Energy          =    -416.5594709077752782 [Eh]
	-----------------------------------------------------------

  Dipole Moment: [D]
     X:    -5.7956      Y:    -1.6140      Z:     1.6874     Total:     6.2483

*** Psi4 exiting successfully. Buy a developer a beer!
