                               Psi4 1.4a2.dev612

  ==> Input File <==

--------------------------------------------------------------------------
#psi4
#
memory 32 gb

molecule  {
0 1
  O        3.1477550    -1.4485350    -0.2143050
  N        0.9062980    -1.2504610    -0.5893500
  N        1.5545360     1.4658350     0.3351760
  C       -0.6961080     0.5074870     0.0337420
  C       -0.3911060    -0.8453020    -0.2363150
  C        0.3345050     1.5654110    -0.0838510
  C        1.9201190     0.2388570     1.0398190
  C       -2.0282860     0.8425430     0.3372020
  C       -1.4126000    -1.8085370    -0.2310830
  C        2.0871850    -0.8915250     0.0446260
  C       -0.0025643     2.7725261    -0.9454676
  C       -3.0319510    -0.1194250     0.3623450
  C       -2.7230760    -1.4503270     0.0616580
  H        0.9974690    -2.0891180    -1.1576180
  H        1.1650960    -0.0456930     1.7889680
  H        2.8821530     0.3846540     1.5322680
  H       -2.2754030     1.8777800     0.5574090
  H       -1.1609050    -2.8458310    -0.4446670
  H       -0.7945500     3.4046450    -0.1790500
  H       -0.5037450     2.6486950    -1.7485080
  H        0.8332190     3.4662990    -0.8854880
  H       -4.0517820     0.1644530     0.6082680
  H       -3.5008180    -2.2099170     0.0672390
units angstrom
no_reorient  #important for SAPT in psi4, default
symmetry c1  #important for SAPT in psi4, default
}

set PROPERTIES_ORIGIN ["COM"]
properties('MP2/aug-cc-pvtz', properties = ['dipole'])
--------------------------------------------------------------------------

    Molecular point group: c1
  Charge       = 0
  Multiplicity = 1
  Basis Set: AUG-CC-PVTZ
    Blend: AUG-CC-PVTZ
  Basis Set: (AUG-CC-PVTZ AUX)
    Blend: AUG-CC-PVTZ-JKFIT

    Orbital Energies [Eh]
    ---------------------

    Doubly Occupied:

       1A    -20.532836     2A    -15.607345     3A    -15.566984
       4A    -11.363207     5A    -11.314658     6A    -11.306006
       7A    -11.267525     8A    -11.267013     9A    -11.265424
      10A    -11.265228    11A    -11.258325    12A    -11.253424
      13A    -11.241376    14A     -1.387966    15A     -1.276381
      16A     -1.233136    17A     -1.164484    18A     -1.065554
      19A     -1.035257    20A     -1.011814    21A     -0.954853
      22A     -0.886461    23A     -0.858423    24A     -0.795695
      25A     -0.770046    26A     -0.729002    27A     -0.697713
      28A     -0.678207    29A     -0.658253    30A     -0.649337
      31A     -0.633330    32A     -0.624956    33A     -0.605089
      34A     -0.596034    35A     -0.567017    36A     -0.555216
      37A     -0.538860    38A     -0.531589    39A     -0.521170
      40A     -0.513708    41A     -0.453983    42A     -0.444528
      43A     -0.412428    44A     -0.404021    45A     -0.355478
      46A     -0.332435

  @DF-RHF Final Energy:  -568.42718316446610

   => Energetics <=

    Nuclear Repulsion Energy =            760.6877661576959326
    One-Electron Energy =               -2281.3263511023187675
    Two-Electron Energy =                 952.2114017801567343
    Total Energy =                       -568.4271831644661006
  Basis Set: (AUG-CC-PVTZ AUX)
    Blend: AUG-CC-PVTZ-RI
    Molecular point group: c1

    Geometry (in Angstrom), charge = 0, multiplicity = 1:

       Center              X                  Y                   Z               Mass
    ------------   -----------------  -----------------  -----------------  -----------------
         O            3.107421047327    -1.416253072311    -0.201351160784    15.994914619570
         N            0.865964047327    -1.218179072311    -0.576396160784    14.003074004430
         N            1.514202047327     1.498116927689     0.348129839216    14.003074004430
         C           -0.736441952673     0.539768927689     0.046695839216    12.000000000000
         C           -0.431439952673    -0.813020072311    -0.223361160784    12.000000000000
         C            0.294171047327     1.597692927689    -0.070897160784    12.000000000000
         C            1.879785047327     0.271138927689     1.052772839216    12.000000000000
         C           -2.068619952673     0.874824927689     0.350155839216    12.000000000000
         C           -1.452933952673    -1.776255072311    -0.218129160784    12.000000000000
         C            2.046851047327    -0.859243072311     0.057579839216    12.000000000000
         C           -0.042898252673     2.804808027689    -0.932513760784    12.000000000000
         C           -3.072284952673    -0.087143072311     0.375298839216    12.000000000000
         C           -2.763409952673    -1.418045072311     0.074611839216    12.000000000000
         H            0.957135047327    -2.056836072311    -1.144664160784     1.007825032230
         H            1.124762047327    -0.013411072311     1.801921839216     1.007825032230
         H            2.841819047327     0.416935927689     1.545221839216     1.007825032230
         H           -2.315736952673     1.910061927689     0.570362839216     1.007825032230
         H           -1.201238952673    -2.813549072311    -0.431713160784     1.007825032230
         H           -0.834883952673     3.436926927689    -0.166096160784     1.007825032230
         H           -0.544078952673     2.680976927689    -1.735554160784     1.007825032230
         H            0.792885047327     3.498580927689    -0.872534160784     1.007825032230
         H           -4.092115952673     0.196734927689     0.621221839216     1.007825032230
         H           -3.541151952673    -2.177635072311     0.080192839216     1.007825032230

  Basis Set: AUG-CC-PVTZ
    Blend: AUG-CC-PVTZ
  Basis Set: (AUG-CC-PVTZ AUX)
    Blend: AUG-CC-PVTZ-JKFIT
	 Reference Energy          =    -568.4271831644661006 [Eh]
	 Singles Energy            =      -0.0000000000000000 [Eh]
	 Same-Spin Energy          =      -0.6149857258719933 [Eh]
	 Opposite-Spin Energy      =      -1.8889322440045808 [Eh]
	 Correlation Energy        =      -2.5039179698765741 [Eh]
	 Total Energy              =    -570.9311011343427253 [Eh]

	 ================> DF-SCS-MP2 Energies <==================
	-----------------------------------------------------------
	 SCS Same-Spin Scale       =       0.3333333333333333 [-]
	 SCS Opposite-Spin Scale   =       1.2000000000000000 [-]
	 SCS Same-Spin Energy      =      -0.2049952419573311 [Eh]
	 SCS Opposite-Spin Energy  =      -2.2667186928054970 [Eh]
	 SCS Correlation Energy    =      -2.4717139347628283 [Eh]
	 SCS Total Energy          =    -570.8988970992289751 [Eh]
	-----------------------------------------------------------

  Dipole Moment: [D]
     X:    -5.0745      Y:    -0.2737      Z:     0.1596     Total:     5.0844

*** Psi4 exiting successfully. Buy a developer a beer!
