                               Psi4 1.4a2.dev612

  ==> Input File <==

--------------------------------------------------------------------------
#psi4
#
memory 32 gb

molecule  {
0 1
  O        3.1477550    -1.4485350    -0.2143050
  N        0.9062980    -1.2504610    -0.5893500
  N        1.5545360     1.4658350     0.3351760
  C       -0.6961080     0.5074870     0.0337420
  C       -0.3911060    -0.8453020    -0.2363150
  C        0.3345050     1.5654110    -0.0838510
  C        1.9201190     0.2388570     1.0398190
  C       -2.0282860     0.8425430     0.3372020
  C       -1.4126000    -1.8085370    -0.2310830
  C        2.0871850    -0.8915250     0.0446260
  C       -0.0444786     2.8293318    -0.8131184
  C       -3.0319510    -0.1194250     0.3623450
  C       -2.7230760    -1.4503270     0.0616580
  H        0.9974690    -2.0891180    -1.1576180
  H        1.1650960    -0.0456930     1.7889680
  H        2.8821530     0.3846540     1.5322680
  H       -2.2754030     1.8777800     0.5574090
  H       -1.1609050    -2.8458310    -0.4446670
  H       -0.7945500     3.4046450    -0.1790500
  H       -0.5037450     2.6486950    -1.7485080
  H        0.8332190     3.4662990    -0.8854880
  H       -4.0517820     0.1644530     0.6082680
  H       -3.5008180    -2.2099170     0.0672390
units angstrom
no_reorient  #important for SAPT in psi4, default
symmetry c1  #important for SAPT in psi4, default
}

set PROPERTIES_ORIGIN ["COM"]
properties('MP2/aug-cc-pvtz', properties = ['dipole'])
--------------------------------------------------------------------------

    Molecular point group: c1
  Charge       = 0
  Multiplicity = 1
  Basis Set: AUG-CC-PVTZ
    Blend: AUG-CC-PVTZ
  Basis Set: (AUG-CC-PVTZ AUX)
    Blend: AUG-CC-PVTZ-JKFIT

    Orbital Energies [Eh]
    ---------------------

    Doubly Occupied:

       1A    -20.532349     2A    -15.607082     3A    -15.566962
       4A    -11.362696     5A    -11.314442     6A    -11.302633
       7A    -11.267013     8A    -11.266780     9A    -11.265636
      10A    -11.265382    11A    -11.258266    12A    -11.253674
      13A    -11.234865    14A     -1.387561    15A     -1.276064
      16A     -1.232869    17A     -1.164514    18A     -1.065505
      19A     -1.035219    20A     -1.011224    21A     -0.951866
      22A     -0.885682    23A     -0.858128    24A     -0.795449
      25A     -0.768245    26A     -0.728736    27A     -0.691988
      28A     -0.677810    29A     -0.657541    30A     -0.648362
      31A     -0.625745    32A     -0.618842    33A     -0.604775
      34A     -0.588657    35A     -0.566904    36A     -0.555763
      37A     -0.544385    38A     -0.538260    39A     -0.529263
      40A     -0.515374    41A     -0.457134    42A     -0.444544
      43A     -0.415507    44A     -0.406486    45A     -0.355123
      46A     -0.332260

  @DF-RHF Final Energy:  -568.46305728850666

   => Energetics <=

    Nuclear Repulsion Energy =            760.7614987254125936
    One-Electron Energy =               -2281.5819781528143722
    Two-Electron Energy =                 952.3574221388951173
    Total Energy =                       -568.4630572885066613
  Basis Set: (AUG-CC-PVTZ AUX)
    Blend: AUG-CC-PVTZ-RI
    Molecular point group: c1

    Geometry (in Angstrom), charge = 0, multiplicity = 1:

       Center              X                  Y                   Z               Mass
    ------------   -----------------  -----------------  -----------------  -----------------
         O            3.110310371690    -1.420168921865    -0.210474533189    15.994914619570
         N            0.868853371690    -1.222094921865    -0.585519533189    14.003074004430
         N            1.517091371690     1.494201078135     0.339006466811    14.003074004430
         C           -0.733552628310     0.535853078135     0.037572466811    12.000000000000
         C           -0.428550628310    -0.816935921865    -0.232484533189    12.000000000000
         C            0.297060371690     1.593777078135    -0.080020533189    12.000000000000
         C            1.882674371690     0.267223078135     1.043649466811    12.000000000000
         C           -2.065730628310     0.870909078135     0.341032466811    12.000000000000
         C           -1.450044628310    -1.780170921865    -0.227252533189    12.000000000000
         C            2.049740371690    -0.863158921865     0.048456466811    12.000000000000
         C           -0.081923228310     2.857697878135    -0.809287933189    12.000000000000
         C           -3.069395628310    -0.091058921865     0.366175466811    12.000000000000
         C           -2.760520628310    -1.421960921865     0.065488466811    12.000000000000
         H            0.960024371690    -2.060751921865    -1.153787533189     1.007825032230
         H            1.127651371690    -0.017326921865     1.792798466811     1.007825032230
         H            2.844708371690     0.413020078135     1.536098466811     1.007825032230
         H           -2.312847628310     1.906146078135     0.561239466811     1.007825032230
         H           -1.198349628310    -2.817464921865    -0.440836533189     1.007825032230
         H           -0.831994628310     3.433011078135    -0.175219533189     1.007825032230
         H           -0.541189628310     2.677061078135    -1.744677533189     1.007825032230
         H            0.795774371690     3.494665078135    -0.881657533189     1.007825032230
         H           -4.089226628310     0.192819078135     0.612098466811     1.007825032230
         H           -3.538262628310    -2.181550921865     0.071069466811     1.007825032230

  Basis Set: AUG-CC-PVTZ
    Blend: AUG-CC-PVTZ
  Basis Set: (AUG-CC-PVTZ AUX)
    Blend: AUG-CC-PVTZ-JKFIT
	 Reference Energy          =    -568.4630572885066613 [Eh]
	 Singles Energy            =      -0.0000000000000000 [Eh]
	 Same-Spin Energy          =      -0.6144975092418765 [Eh]
	 Opposite-Spin Energy      =      -1.8872858040045801 [Eh]
	 Correlation Energy        =      -2.5017833132464569 [Eh]
	 Total Energy              =    -570.9648406017531670 [Eh]

	 ================> DF-SCS-MP2 Energies <==================
	-----------------------------------------------------------
	 SCS Same-Spin Scale       =       0.3333333333333333 [-]
	 SCS Opposite-Spin Scale   =       1.2000000000000000 [-]
	 SCS Same-Spin Energy      =      -0.2048325030806255 [Eh]
	 SCS Opposite-Spin Energy  =      -2.2647429648054960 [Eh]
	 SCS Correlation Energy    =      -2.4695754678861217 [Eh]
	 SCS Total Energy          =    -570.9326327563927634 [Eh]
	-----------------------------------------------------------

  Dipole Moment: [D]
     X:    -5.1111      Y:    -0.2445      Z:     0.2065     Total:     5.1211

*** Psi4 exiting successfully. Buy a developer a beer!
