                               Psi4 1.4a2.dev612

  ==> Input File <==

--------------------------------------------------------------------------
#psi4
#
memory 32 gb

molecule  {
0 1
  O        3.1477550    -1.4485350    -0.2143050
  N        0.9062980    -1.2504610    -0.5893500
  N        1.5545360     1.4658350     0.3351760
  C       -0.6961080     0.5074870     0.0337420
  C       -0.3911060    -0.8453020    -0.2363150
  C        0.3345050     1.5654110    -0.0838510
  C        1.9201190     0.2388570     1.0398190
  C       -1.9755485     0.8113405     0.5795760
  C       -1.4126000    -1.8085370    -0.2310830
  C        2.0871850    -0.8915250     0.0446260
  C       -0.0584500     2.8482670    -0.7690020
  C       -3.0319510    -0.1194250     0.3623450
  C       -2.7230760    -1.4503270     0.0616580
  H        0.9974690    -2.0891180    -1.1576180
  H        1.1650960    -0.0456930     1.7889680
  H        2.8821530     0.3846540     1.5322680
  H       -2.2754030     1.8777800     0.5574090
  H       -1.1609050    -2.8458310    -0.4446670
  H       -0.7945500     3.4046450    -0.1790500
  H       -0.5037450     2.6486950    -1.7485080
  H        0.8332190     3.4662990    -0.8854880
  H       -4.0517820     0.1644530     0.6082680
  H       -3.5008180    -2.2099170     0.0672390
units angstrom
no_reorient  #important for SAPT in psi4, default
symmetry c1  #important for SAPT in psi4, default
}

set PROPERTIES_ORIGIN ["COM"]
properties('MP2/aug-cc-pvtz', properties = ['dipole'])
--------------------------------------------------------------------------

    Molecular point group: c1
  Charge       = 0
  Multiplicity = 1
  Basis Set: AUG-CC-PVTZ
    Blend: AUG-CC-PVTZ
  Basis Set: (AUG-CC-PVTZ AUX)
    Blend: AUG-CC-PVTZ-JKFIT

    Orbital Energies [Eh]
    ---------------------

    Doubly Occupied:

       1A    -20.532669     2A    -15.606740     3A    -15.568997
       4A    -11.362953     5A    -11.312610     6A    -11.303087
       7A    -11.271726     8A    -11.270559     9A    -11.267477
      10A    -11.263837    11A    -11.261018    12A    -11.260347
      13A    -11.234886    14A     -1.387772    15A     -1.276116
      16A     -1.233715    17A     -1.160974    18A     -1.064924
      19A     -1.031698    20A     -1.011448    21A     -0.951867
      22A     -0.883709    23A     -0.857411    24A     -0.794482
      25A     -0.766602    26A     -0.727396    27A     -0.691878
      28A     -0.677256    29A     -0.655026    30A     -0.647253
      31A     -0.621880    32A     -0.618812    33A     -0.603695
      34A     -0.586635    35A     -0.566479    36A     -0.556184
      37A     -0.542462    38A     -0.537284    39A     -0.530174
      40A     -0.508921    41A     -0.456739    42A     -0.444201
      43A     -0.419399    44A     -0.403763    45A     -0.356597
      46A     -0.329633

  @DF-RHF Final Energy:  -568.44506330082322

   => Energetics <=

    Nuclear Repulsion Energy =            759.9697444580456249
    One-Electron Energy =               -2279.9910277804783618
    Two-Electron Energy =                 951.5762200216095152
    Total Energy =                       -568.4450633008232217
  Basis Set: (AUG-CC-PVTZ AUX)
    Blend: AUG-CC-PVTZ-RI
    Molecular point group: c1

    Geometry (in Angstrom), charge = 0, multiplicity = 1:

       Center              X                  Y                   Z               Mass
    ------------   -----------------  -----------------  -----------------  -----------------
         O            3.107638065647    -1.419323286635    -0.230223489809    15.994914619570
         N            0.866181065647    -1.221249286635    -0.605268489809    14.003074004430
         N            1.514419065647     1.495046713365     0.319257510191    14.003074004430
         C           -0.736224934353     0.536698713365     0.017823510191    12.000000000000
         C           -0.431222934353    -0.816090286635    -0.252233489809    12.000000000000
         C            0.294388065647     1.594622713365    -0.099769489809    12.000000000000
         C            1.880002065647     0.268068713365     1.023900510191    12.000000000000
         C           -2.015665434353     0.840552213365     0.563657510191    12.000000000000
         C           -1.452716934353    -1.779325286635    -0.247001489809    12.000000000000
         C            2.047068065647    -0.862313286635     0.028707510191    12.000000000000
         C           -0.098566934353     2.877478713365    -0.784920489809    12.000000000000
         C           -3.072067934353    -0.090213286635     0.346426510191    12.000000000000
         C           -2.763192934353    -1.421115286635     0.045739510191    12.000000000000
         H            0.957352065647    -2.059906286635    -1.173536489809     1.007825032230
         H            1.124979065647    -0.016481286635     1.773049510191     1.007825032230
         H            2.842036065647     0.413865713365     1.516349510191     1.007825032230
         H           -2.315519934353     1.906991713365     0.541490510191     1.007825032230
         H           -1.201021934353    -2.816619286635    -0.460585489809     1.007825032230
         H           -0.834666934353     3.433856713365    -0.194968489809     1.007825032230
         H           -0.543861934353     2.677906713365    -1.764426489809     1.007825032230
         H            0.793102065647     3.495510713365    -0.901406489809     1.007825032230
         H           -4.091898934353     0.193664713365     0.592349510191     1.007825032230
         H           -3.540934934353    -2.180705286635     0.051320510191     1.007825032230

  Basis Set: AUG-CC-PVTZ
    Blend: AUG-CC-PVTZ
  Basis Set: (AUG-CC-PVTZ AUX)
    Blend: AUG-CC-PVTZ-JKFIT
	 Reference Energy          =    -568.4450633008232217 [Eh]
	 Singles Energy            =      -0.0000000000000000 [Eh]
	 Same-Spin Energy          =      -0.6154764942016075 [Eh]
	 Opposite-Spin Energy      =      -1.8903330292160729 [Eh]
	 Correlation Energy        =      -2.5058095234176805 [Eh]
	 Total Energy              =    -570.9508728242409461 [Eh]

	 ================> DF-SCS-MP2 Energies <==================
	-----------------------------------------------------------
	 SCS Same-Spin Scale       =       0.3333333333333333 [-]
	 SCS Opposite-Spin Scale   =       1.2000000000000000 [-]
	 SCS Same-Spin Energy      =      -0.2051588314005358 [Eh]
	 SCS Opposite-Spin Energy  =      -2.2683996350592874 [Eh]
	 SCS Correlation Energy    =      -2.4735584664598234 [Eh]
	 SCS Total Energy          =    -570.9186217672830708 [Eh]
	-----------------------------------------------------------

  Dipole Moment: [D]
     X:    -5.0349      Y:    -0.2793      Z:     0.0541     Total:     5.0430

*** Psi4 exiting successfully. Buy a developer a beer!
