                               Psi4 1.4a2.dev612

  ==> Input File <==

--------------------------------------------------------------------------
#psi4
#
memory 32 gb

molecule  {
0 1
  O        3.1477550    -1.4485350    -0.2143050
  N        0.9062980    -1.2504610    -0.5893500
  N        1.5545360     1.4658350     0.3351760
  C       -0.6961080     0.5074870     0.0337420
  C       -0.3911060    -0.8453020    -0.2363150
  C        0.3345050     1.5654110    -0.0838510
  C        1.9201190     0.2388570     1.0398190
  C       -2.0282860     0.8425430     0.3372020
  C       -1.3935826    -1.8254777    -0.1343806
  C        2.0871850    -0.8915250     0.0446260
  C       -0.0584500     2.8482670    -0.7690020
  C       -3.0319510    -0.1194250     0.3623450
  C       -2.7230760    -1.4503270     0.0616580
  H        0.9974690    -2.0891180    -1.1576180
  H        1.1650960    -0.0456930     1.7889680
  H        2.8821530     0.3846540     1.5322680
  H       -2.2754030     1.8777800     0.5574090
  H       -1.1609050    -2.8458310    -0.4446670
  H       -0.7945500     3.4046450    -0.1790500
  H       -0.5037450     2.6486950    -1.7485080
  H        0.8332190     3.4662990    -0.8854880
  H       -4.0517820     0.1644530     0.6082680
  H       -3.5008180    -2.2099170     0.0672390
units angstrom
no_reorient  #important for SAPT in psi4, default
symmetry c1  #important for SAPT in psi4, default
}

set PROPERTIES_ORIGIN ["COM"]
properties('MP2/aug-cc-pvtz', properties = ['dipole'])
--------------------------------------------------------------------------

    Molecular point group: c1
  Charge       = 0
  Multiplicity = 1
  Basis Set: AUG-CC-PVTZ
    Blend: AUG-CC-PVTZ
  Basis Set: (AUG-CC-PVTZ AUX)
    Blend: AUG-CC-PVTZ-JKFIT

    Orbital Energies [Eh]
    ---------------------

    Doubly Occupied:

       1A    -20.532175     2A    -15.606281     3A    -15.567406
       4A    -11.362489     5A    -11.314234     6A    -11.302390
       7A    -11.267212     8A    -11.266967     9A    -11.266192
      10A    -11.265943    11A    -11.259039    12A    -11.254207
      13A    -11.234151    14A     -1.387336    15A     -1.275725
      16A     -1.232833    17A     -1.164228    18A     -1.065311
      19A     -1.034824    20A     -1.011144    21A     -0.951635
      22A     -0.885142    23A     -0.857815    24A     -0.795564
      25A     -0.768058    26A     -0.728251    27A     -0.691393
      28A     -0.677353    29A     -0.658086    30A     -0.648489
      31A     -0.625190    32A     -0.618089    33A     -0.604018
      34A     -0.586585    35A     -0.566007    36A     -0.559068
      37A     -0.543871    38A     -0.538489    39A     -0.528643
      40A     -0.513463    41A     -0.457905    42A     -0.442417
      43A     -0.417586    44A     -0.405348    45A     -0.354630
      46A     -0.333973

  @DF-RHF Final Energy:  -568.46278244781752

   => Energetics <=

    Nuclear Repulsion Energy =            760.7098673820847807
    One-Electron Energy =               -2281.4909902383551525
    Two-Electron Energy =                 952.3183404084529684
    Total Energy =                       -568.4627824478175171
  Basis Set: (AUG-CC-PVTZ AUX)
    Blend: AUG-CC-PVTZ-RI
    Molecular point group: c1

    Geometry (in Angstrom), charge = 0, multiplicity = 1:

       Center              X                  Y                   Z               Mass
    ------------   -----------------  -----------------  -----------------  -----------------
         O            3.109962530244    -1.420306410919    -0.220181749810    15.994914619570
         N            0.868505530244    -1.222232410919    -0.595226749810    14.003074004430
         N            1.516743530244     1.494063589081     0.329299250190    14.003074004430
         C           -0.733900469756     0.535715589081     0.027865250190    12.000000000000
         C           -0.428898469756    -0.817073410919    -0.242191749810    12.000000000000
         C            0.296712530244     1.593639589081    -0.089727749810    12.000000000000
         C            1.882326530244     0.267085589081     1.033942250190    12.000000000000
         C           -2.066078469756     0.870771589081     0.331325250190    12.000000000000
         C           -1.431375069756    -1.797249110919    -0.140257349810    12.000000000000
         C            2.049392530244    -0.863296410919     0.038749250190    12.000000000000
         C           -0.096242469756     2.876495589081    -0.774878749810    12.000000000000
         C           -3.069743469756    -0.091196410919     0.356468250190    12.000000000000
         C           -2.760868469756    -1.422098410919     0.055781250190    12.000000000000
         H            0.959676530244    -2.060889410919    -1.163494749810     1.007825032230
         H            1.127303530244    -0.017464410919     1.783091250190     1.007825032230
         H            2.844360530244     0.412882589081     1.526391250190     1.007825032230
         H           -2.313195469756     1.906008589081     0.551532250190     1.007825032230
         H           -1.198697469756    -2.817602410919    -0.450543749810     1.007825032230
         H           -0.832342469756     3.432873589081    -0.184926749810     1.007825032230
         H           -0.541537469756     2.676923589081    -1.754384749810     1.007825032230
         H            0.795426530244     3.494527589081    -0.891364749810     1.007825032230
         H           -4.089574469756     0.192681589081     0.602391250190     1.007825032230
         H           -3.538610469756    -2.181688410919     0.061362250190     1.007825032230

  Basis Set: AUG-CC-PVTZ
    Blend: AUG-CC-PVTZ
  Basis Set: (AUG-CC-PVTZ AUX)
    Blend: AUG-CC-PVTZ-JKFIT
	 Reference Energy          =    -568.4627824478175171 [Eh]
	 Singles Energy            =      -0.0000000000000000 [Eh]
	 Same-Spin Energy          =      -0.6145703421238646 [Eh]
	 Opposite-Spin Energy      =      -1.8875896860009123 [Eh]
	 Correlation Energy        =      -2.5021600281247771 [Eh]
	 Total Energy              =    -570.9649424759422800 [Eh]

	 ================> DF-SCS-MP2 Energies <==================
	-----------------------------------------------------------
	 SCS Same-Spin Scale       =       0.3333333333333333 [-]
	 SCS Opposite-Spin Scale   =       1.2000000000000000 [-]
	 SCS Same-Spin Energy      =      -0.2048567807079549 [Eh]
	 SCS Opposite-Spin Energy  =      -2.2651076232010947 [Eh]
	 SCS Correlation Energy    =      -2.4699644039090494 [Eh]
	 SCS Total Energy          =    -570.9327468517266198 [Eh]
	-----------------------------------------------------------

  Dipole Moment: [D]
     X:    -5.1329      Y:    -0.2074      Z:     0.1858     Total:     5.1404

*** Psi4 exiting successfully. Buy a developer a beer!
