                               Psi4 1.4a2.dev612

  ==> Input File <==

--------------------------------------------------------------------------
#psi4
#
memory 32 gb

molecule  {
0 1
  O        3.1477550    -1.4485350    -0.2143050
  N        0.9062980    -1.2504610    -0.5893500
  N        1.5545360     1.4658350     0.3351760
  C       -0.6961080     0.5074870     0.0337420
  C       -0.3911060    -0.8453020    -0.2363150
  C        0.3345050     1.5654110    -0.0838510
  C        1.9201190     0.2388570     1.0398190
  C       -2.0071910     0.8300620     0.4341516
  C       -1.4126000    -1.8085370    -0.2310830
  C        2.0871850    -0.8915250     0.0446260
  C       -0.0584500     2.8482670    -0.7690020
  C       -3.0319510    -0.1194250     0.3623450
  C       -2.7230760    -1.4503270     0.0616580
  H        0.9974690    -2.0891180    -1.1576180
  H        1.1650960    -0.0456930     1.7889680
  H        2.8821530     0.3846540     1.5322680
  H       -2.2754030     1.8777800     0.5574090
  H       -1.1609050    -2.8458310    -0.4446670
  H       -0.7945500     3.4046450    -0.1790500
  H       -0.5037450     2.6486950    -1.7485080
  H        0.8332190     3.4662990    -0.8854880
  H       -4.0517820     0.1644530     0.6082680
  H       -3.5008180    -2.2099170     0.0672390
units angstrom
no_reorient  #important for SAPT in psi4, default
symmetry c1  #important for SAPT in psi4, default
}

set PROPERTIES_ORIGIN ["COM"]
properties('MP2/aug-cc-pvtz', properties = ['dipole'])
--------------------------------------------------------------------------

    Molecular point group: c1
  Charge       = 0
  Multiplicity = 1
  Basis Set: AUG-CC-PVTZ
    Blend: AUG-CC-PVTZ
  Basis Set: (AUG-CC-PVTZ AUX)
    Blend: AUG-CC-PVTZ-JKFIT

    Orbital Energies [Eh]
    ---------------------

    Doubly Occupied:

       1A    -20.532415     2A    -15.606921     3A    -15.567732
       4A    -11.362725     5A    -11.313805     6A    -11.302663
       7A    -11.267697     8A    -11.267172     9A    -11.266507
      10A    -11.264830    11A    -11.258579    12A    -11.255125
      13A    -11.234541    14A     -1.387592    15A     -1.276042
      16A     -1.233164    17A     -1.163632    18A     -1.065416
      19A     -1.034371    20A     -1.011364    21A     -0.951785
      22A     -0.885202    23A     -0.858117    24A     -0.795199
      25A     -0.767879    26A     -0.728656    27A     -0.691588
      28A     -0.677574    29A     -0.657073    30A     -0.648053
      31A     -0.625962    32A     -0.618634    33A     -0.604610
      34A     -0.586574    35A     -0.566694    36A     -0.558280
      37A     -0.543286    38A     -0.538751    39A     -0.529152
      40A     -0.513627    41A     -0.457319    42A     -0.444564
      43A     -0.418304    44A     -0.404780    45A     -0.355590
      46A     -0.331463

  @DF-RHF Final Energy:  -568.46227414516375

   => Energetics <=

    Nuclear Repulsion Energy =            760.6030894425211955
    One-Electron Energy =               -2281.2687073935012450
    Two-Electron Energy =                 952.2033438058163028
    Total Energy =                       -568.4622741451637467
  Basis Set: (AUG-CC-PVTZ AUX)
    Blend: AUG-CC-PVTZ-RI
    Molecular point group: c1

    Geometry (in Angstrom), charge = 0, multiplicity = 1:

       Center              X                  Y                   Z               Mass
    ------------   -----------------  -----------------  -----------------  -----------------
         O            3.109819312766    -1.420613836305    -0.220198790318    15.994914619570
         N            0.868362312767    -1.222539836305    -0.595243790318    14.003074004430
         N            1.516600312767     1.493756163695     0.329282209682    14.003074004430
         C           -0.734043687233     0.535408163695     0.027848209682    12.000000000000
         C           -0.429041687233    -0.817380836305    -0.242208790318    12.000000000000
         C            0.296569312767     1.593332163695    -0.089744790318    12.000000000000
         C            1.882183312767     0.266778163695     1.033925209682    12.000000000000
         C           -2.045126687233     0.857983163695     0.428257809682    12.000000000000
         C           -1.450535687233    -1.780615836305    -0.236976790318    12.000000000000
         C            2.049249312766    -0.863603836305     0.038732209682    12.000000000000
         C           -0.096385687233     2.876188163695    -0.774895790318    12.000000000000
         C           -3.069886687234    -0.091503836305     0.356451209682    12.000000000000
         C           -2.761011687234    -1.422405836305     0.055764209682    12.000000000000
         H            0.959533312767    -2.061196836305    -1.163511790318     1.007825032230
         H            1.127160312767    -0.017771836305     1.783074209682     1.007825032230
         H            2.844217312766     0.412575163695     1.526374209682     1.007825032230
         H           -2.313338687234     1.905701163695     0.551515209682     1.007825032230
         H           -1.198840687233    -2.817909836305    -0.450560790318     1.007825032230
         H           -0.832485687233     3.432566163695    -0.184943790318     1.007825032230
         H           -0.541680687233     2.676616163695    -1.754401790318     1.007825032230
         H            0.795283312767     3.494220163695    -0.891381790318     1.007825032230
         H           -4.089717687234     0.192374163695     0.602374209682     1.007825032230
         H           -3.538753687234    -2.181995836305     0.061345209682     1.007825032230

  Basis Set: AUG-CC-PVTZ
    Blend: AUG-CC-PVTZ
  Basis Set: (AUG-CC-PVTZ AUX)
    Blend: AUG-CC-PVTZ-JKFIT
	 Reference Energy          =    -568.4622741451637467 [Eh]
	 Singles Energy            =      -0.0000000000000000 [Eh]
	 Same-Spin Energy          =      -0.6145874905565540 [Eh]
	 Opposite-Spin Energy      =      -1.8876100446863555 [Eh]
	 Correlation Energy        =      -2.5021975352429093 [Eh]
	 Total Energy              =    -570.9644716804066320 [Eh]

	 ================> DF-SCS-MP2 Energies <==================
	-----------------------------------------------------------
	 SCS Same-Spin Scale       =       0.3333333333333333 [-]
	 SCS Opposite-Spin Scale   =       1.2000000000000000 [-]
	 SCS Same-Spin Energy      =      -0.2048624968521847 [Eh]
	 SCS Opposite-Spin Energy  =      -2.2651320536236264 [Eh]
	 SCS Correlation Energy    =      -2.4699945504758110 [Eh]
	 SCS Total Energy          =    -570.9322686956395501 [Eh]
	-----------------------------------------------------------

  Dipole Moment: [D]
     X:    -5.0905      Y:    -0.2280      Z:     0.1673     Total:     5.0983

*** Psi4 exiting successfully. Buy a developer a beer!
