                               Psi4 1.4a2.dev612

  ==> Input File <==

--------------------------------------------------------------------------
#psi4
#
memory 32 gb

molecule  {
0 1
  O        3.1477550    -1.4485350    -0.2143050
  N        0.9062980    -1.2504610    -0.5893500
  N        1.5545360     1.4658350     0.3351760
  C       -0.6961080     0.5074870     0.0337420
  C       -0.3911060    -0.8453020    -0.2363150
  C        0.3345050     1.5654110    -0.0838510
  C        1.9650866     0.4057899     0.8592329
  C       -2.0282860     0.8425430     0.3372020
  C       -1.4126000    -1.8085370    -0.2310830
  C        2.0871850    -0.8915250     0.0446260
  C       -0.0584500     2.8482670    -0.7690020
  C       -3.0319510    -0.1194250     0.3623450
  C       -2.7230760    -1.4503270     0.0616580
  H        0.9974690    -2.0891180    -1.1576180
  H        1.1650960    -0.0456930     1.7889680
  H        2.8821530     0.3846540     1.5322680
  H       -2.2754030     1.8777800     0.5574090
  H       -1.1609050    -2.8458310    -0.4446670
  H       -0.7945500     3.4046450    -0.1790500
  H       -0.5037450     2.6486950    -1.7485080
  H        0.8332190     3.4662990    -0.8854880
  H       -4.0517820     0.1644530     0.6082680
  H       -3.5008180    -2.2099170     0.0672390
units angstrom
no_reorient  #important for SAPT in psi4, default
symmetry c1  #important for SAPT in psi4, default
}

set PROPERTIES_ORIGIN ["COM"]
properties('MP2/aug-cc-pvtz', properties = ['dipole'])
--------------------------------------------------------------------------

    Molecular point group: c1
  Charge       = 0
  Multiplicity = 1
  Basis Set: AUG-CC-PVTZ
    Blend: AUG-CC-PVTZ
  Basis Set: (AUG-CC-PVTZ AUX)
    Blend: AUG-CC-PVTZ-JKFIT

    Orbital Energies [Eh]
    ---------------------

    Doubly Occupied:

       1A    -20.533367     2A    -15.607524     3A    -15.558271
       4A    -11.363905     5A    -11.316758     6A    -11.313291
       7A    -11.278155     8A    -11.269349     9A    -11.267940
      10A    -11.267595    11A    -11.258879    12A    -11.254981
      13A    -11.237713    14A     -1.388335    15A     -1.303666
      16A     -1.259271    17A     -1.167639    18A     -1.079646
      19A     -1.035867    20A     -1.015223    21A     -0.940012
      22A     -0.894722    23A     -0.859235    24A     -0.807779
      25A     -0.779797    26A     -0.728791    27A     -0.711531
      28A     -0.665376    29A     -0.658790    30A     -0.652643
      31A     -0.629289    32A     -0.627224    33A     -0.614251
      34A     -0.589029    35A     -0.561440    36A     -0.557100
      37A     -0.552133    38A     -0.534283    39A     -0.528522
      40A     -0.506908    41A     -0.468676    42A     -0.445484
      43A     -0.402633    44A     -0.381262    45A     -0.352180
      46A     -0.334090

  @DF-RHF Final Energy:  -568.40560592781708

   => Energetics <=

    Nuclear Repulsion Energy =            763.1244717089600726
    One-Electron Energy =               -2285.9390353033350038
    Two-Electron Energy =                 954.4089576665578534
    Total Energy =                       -568.4056059278170778
  Basis Set: (AUG-CC-PVTZ AUX)
    Blend: AUG-CC-PVTZ-RI
    Molecular point group: c1

    Geometry (in Angstrom), charge = 0, multiplicity = 1:

       Center              X                  Y                   Z               Mass
    ------------   -----------------  -----------------  -----------------  -----------------
         O            3.108173676676    -1.432981571239    -0.201067117843    15.994914619570
         N            0.866716676676    -1.234907571239    -0.576112117843    14.003074004430
         N            1.514954676676     1.481388428761     0.348413882157    14.003074004430
         C           -0.735689323324     0.523040428761     0.046979882157    12.000000000000
         C           -0.430687323324    -0.829748571239    -0.223077117843    12.000000000000
         C            0.294923676676     1.580964428761    -0.070613117843    12.000000000000
         C            1.925505276676     0.421343328761     0.872470782157    12.000000000000
         C           -2.067867323324     0.858096428761     0.350439882157    12.000000000000
         C           -1.452181323324    -1.792983571239    -0.217845117843    12.000000000000
         C            2.047603676676    -0.875971571239     0.057863882157    12.000000000000
         C           -0.098031323324     2.863820428761    -0.755764117843    12.000000000000
         C           -3.071532323324    -0.103871571239     0.375582882157    12.000000000000
         C           -2.762657323324    -1.434773571239     0.074895882157    12.000000000000
         H            0.957887676676    -2.073564571239    -1.144380117843     1.007825032230
         H            1.125514676676    -0.030139571239     1.802205882157     1.007825032230
         H            2.842571676676     0.400207428761     1.545505882157     1.007825032230
         H           -2.314984323324     1.893333428761     0.570646882157     1.007825032230
         H           -1.200486323324    -2.830277571239    -0.431429117843     1.007825032230
         H           -0.834131323324     3.420198428761    -0.165812117843     1.007825032230
         H           -0.543326323324     2.664248428761    -1.735270117843     1.007825032230
         H            0.793637676676     3.481852428761    -0.872250117843     1.007825032230
         H           -4.091363323324     0.180006428761     0.621505882157     1.007825032230
         H           -3.540399323324    -2.194363571239     0.080476882157     1.007825032230

  Basis Set: AUG-CC-PVTZ
    Blend: AUG-CC-PVTZ
  Basis Set: (AUG-CC-PVTZ AUX)
    Blend: AUG-CC-PVTZ-JKFIT
	 Reference Energy          =    -568.4056059278170778 [Eh]
	 Singles Energy            =      -0.0000000000000000 [Eh]
	 Same-Spin Energy          =      -0.6180757600252091 [Eh]
	 Opposite-Spin Energy      =      -1.8899232794980410 [Eh]
	 Correlation Energy        =      -2.5079990395232503 [Eh]
	 Total Energy              =    -570.9136049673403477 [Eh]

	 ================> DF-SCS-MP2 Energies <==================
	-----------------------------------------------------------
	 SCS Same-Spin Scale       =       0.3333333333333333 [-]
	 SCS Opposite-Spin Scale   =       1.2000000000000000 [-]
	 SCS Same-Spin Energy      =      -0.2060252533417364 [Eh]
	 SCS Opposite-Spin Energy  =      -2.2679079353976492 [Eh]
	 SCS Correlation Energy    =      -2.4739331887393856 [Eh]
	 SCS Total Energy          =    -570.8795391165564297 [Eh]
	-----------------------------------------------------------

  Dipole Moment: [D]
     X:    -5.1567      Y:    -0.0595      Z:    -0.2357     Total:     5.1624

*** Psi4 exiting successfully. Buy a developer a beer!
