                               Psi4 1.4a2.dev612

  ==> Input File <==

--------------------------------------------------------------------------
#psi4
#
memory 32 gb

molecule  {
0 1
  O        3.1477550    -1.4485350    -0.2143050
  N        0.9062980    -1.2504610    -0.5893500
  N        1.5545360     1.4658350     0.3351760
  C       -0.6961080     0.5074870     0.0337420
  C       -0.3911060    -0.8453020    -0.2363150
  C        0.3345050     1.5654110    -0.0838510
  C        1.9470996     0.3390167     0.9314674
  C       -2.0282860     0.8425430     0.3372020
  C       -1.4126000    -1.8085370    -0.2310830
  C        2.0871850    -0.8915250     0.0446260
  C       -0.0584500     2.8482670    -0.7690020
  C       -3.0319510    -0.1194250     0.3623450
  C       -2.7230760    -1.4503270     0.0616580
  H        0.9974690    -2.0891180    -1.1576180
  H        1.1650960    -0.0456930     1.7889680
  H        2.8821530     0.3846540     1.5322680
  H       -2.2754030     1.8777800     0.5574090
  H       -1.1609050    -2.8458310    -0.4446670
  H       -0.7945500     3.4046450    -0.1790500
  H       -0.5037450     2.6486950    -1.7485080
  H        0.8332190     3.4662990    -0.8854880
  H       -4.0517820     0.1644530     0.6082680
  H       -3.5008180    -2.2099170     0.0672390
units angstrom
no_reorient  #important for SAPT in psi4, default
symmetry c1  #important for SAPT in psi4, default
}

set PROPERTIES_ORIGIN ["COM"]
properties('MP2/aug-cc-pvtz', properties = ['dipole'])
--------------------------------------------------------------------------

    Molecular point group: c1
  Charge       = 0
  Multiplicity = 1
  Basis Set: AUG-CC-PVTZ
    Blend: AUG-CC-PVTZ
  Basis Set: (AUG-CC-PVTZ AUX)
    Blend: AUG-CC-PVTZ-JKFIT

    Orbital Energies [Eh]
    ---------------------

    Doubly Occupied:

       1A    -20.532760     2A    -15.607403     3A    -15.561531
       4A    -11.362584     5A    -11.315535     6A    -11.307819
       7A    -11.272787     8A    -11.268039     9A    -11.266755
      10A    -11.266484    11A    -11.258565    12A    -11.254376
      13A    -11.235757    14A     -1.387863    15A     -1.286087
      16A     -1.250893    17A     -1.166283    18A     -1.073228
      19A     -1.035455    20A     -1.013063    21A     -0.945172
      22A     -0.890180    23A     -0.858637    24A     -0.798963
      25A     -0.777015    26A     -0.728884    27A     -0.704361
      28A     -0.667824    29A     -0.657702    30A     -0.651405
      31A     -0.626956    32A     -0.623107    33A     -0.610593
      34A     -0.587499    35A     -0.560071    36A     -0.559081
      37A     -0.549438    38A     -0.534646    39A     -0.528267
      40A     -0.510660    41A     -0.464010    42A     -0.445068
      43A     -0.407370    44A     -0.397312    45A     -0.354610
      46A     -0.333251

  @DF-RHF Final Energy:  -568.44484942876863

   => Energetics <=

    Nuclear Repulsion Energy =            762.1784454894009286
    One-Electron Energy =               -2284.2558897978683490
    Two-Electron Energy =                 953.6325948796987859
    Total Energy =                       -568.4448494287686344
  Basis Set: (AUG-CC-PVTZ AUX)
    Blend: AUG-CC-PVTZ-RI
    Molecular point group: c1

    Geometry (in Angstrom), charge = 0, multiplicity = 1:

       Center              X                  Y                   Z               Mass
    ------------   -----------------  -----------------  -----------------  -----------------
         O            3.109413594253    -1.428378621087    -0.206046537772    15.994914619570
         N            0.867956594253    -1.230304621087    -0.581091537772    14.003074004430
         N            1.516194594253     1.485991378913     0.343434462228    14.003074004430
         C           -0.734449405747     0.527643378913     0.042000462228    12.000000000000
         C           -0.429447405747    -0.825145621087    -0.228056537772    12.000000000000
         C            0.296163594253     1.585567378913    -0.075592537772    12.000000000000
         C            1.908758194253     0.359173078913     0.939725862228    12.000000000000
         C           -2.066627405747     0.862699378913     0.345460462228    12.000000000000
         C           -1.450941405747    -1.788380621087    -0.222824537772    12.000000000000
         C            2.048843594253    -0.871368621087     0.052884462228    12.000000000000
         C           -0.096791405747     2.868423378913    -0.760743537772    12.000000000000
         C           -3.070292405747    -0.099268621087     0.370603462228    12.000000000000
         C           -2.761417405747    -1.430170621087     0.069916462228    12.000000000000
         H            0.959127594253    -2.068961621087    -1.149359537772     1.007825032230
         H            1.126754594253    -0.025536621087     1.797226462228     1.007825032230
         H            2.843811594253     0.404810378913     1.540526462228     1.007825032230
         H           -2.313744405747     1.897936378913     0.565667462228     1.007825032230
         H           -1.199246405747    -2.825674621087    -0.436408537772     1.007825032230
         H           -0.832891405747     3.424801378913    -0.170791537772     1.007825032230
         H           -0.542086405747     2.668851378913    -1.740249537772     1.007825032230
         H            0.794877594253     3.486455378913    -0.877229537772     1.007825032230
         H           -4.090123405747     0.184609378913     0.616526462228     1.007825032230
         H           -3.539159405747    -2.189760621087     0.075497462228     1.007825032230

  Basis Set: AUG-CC-PVTZ
    Blend: AUG-CC-PVTZ
  Basis Set: (AUG-CC-PVTZ AUX)
    Blend: AUG-CC-PVTZ-JKFIT
	 Reference Energy          =    -568.4448494287686344 [Eh]
	 Singles Energy            =      -0.0000000000000000 [Eh]
	 Same-Spin Energy          =      -0.6159982171643865 [Eh]
	 Opposite-Spin Energy      =      -1.8878411490142866 [Eh]
	 Correlation Energy        =      -2.5038393661786733 [Eh]
	 Total Energy              =    -570.9486887949473157 [Eh]

	 ================> DF-SCS-MP2 Energies <==================
	-----------------------------------------------------------
	 SCS Same-Spin Scale       =       0.3333333333333333 [-]
	 SCS Opposite-Spin Scale   =       1.2000000000000000 [-]
	 SCS Same-Spin Energy      =      -0.2053327390547955 [Eh]
	 SCS Opposite-Spin Energy  =      -2.2654093788171439 [Eh]
	 SCS Correlation Energy    =      -2.4707421178719393 [Eh]
	 SCS Total Energy          =    -570.9155915466405986 [Eh]
	-----------------------------------------------------------

  Dipole Moment: [D]
     X:    -5.1306      Y:    -0.1623      Z:    -0.0004     Total:     5.1331

*** Psi4 exiting successfully. Buy a developer a beer!
