                               Psi4 1.4a2.dev612

  ==> Input File <==

--------------------------------------------------------------------------
#psi4
#
memory 32 gb

molecule  {
0 1
  O        3.1477550    -1.4485350    -0.2143050
  N        0.9062980    -1.2504610    -0.5893500
  N        1.5545360     1.4658350     0.3351760
  C       -0.6961080     0.5074870     0.0337420
  C       -0.3911060    -0.8453020    -0.2363150
  C        0.3345050     1.5654110    -0.0838510
  C        1.9201190     0.2388570     1.0398190
  C       -2.0282860     0.8425430     0.3372020
  C       -1.4126000    -1.8085370    -0.2310830
  C        2.0871850    -0.8915250     0.0446260
  C        0.0114071     2.7535909    -0.9895840
  C       -3.0319510    -0.1194250     0.3623450
  C       -2.7230760    -1.4503270     0.0616580
  H        0.9974690    -2.0891180    -1.1576180
  H        1.1650960    -0.0456930     1.7889680
  H        2.8821530     0.3846540     1.5322680
  H       -2.2754030     1.8777800     0.5574090
  H       -1.1609050    -2.8458310    -0.4446670
  H       -0.7945500     3.4046450    -0.1790500
  H       -0.5037450     2.6486950    -1.7485080
  H        0.8332190     3.4662990    -0.8854880
  H       -4.0517820     0.1644530     0.6082680
  H       -3.5008180    -2.2099170     0.0672390
units angstrom
no_reorient  #important for SAPT in psi4, default
symmetry c1  #important for SAPT in psi4, default
}

set PROPERTIES_ORIGIN ["COM"]
properties('MP2/aug-cc-pvtz', properties = ['dipole'])
--------------------------------------------------------------------------

    Molecular point group: c1
  Charge       = 0
  Multiplicity = 1
  Basis Set: AUG-CC-PVTZ
    Blend: AUG-CC-PVTZ
  Basis Set: (AUG-CC-PVTZ AUX)
    Blend: AUG-CC-PVTZ-JKFIT

    Orbital Energies [Eh]
    ---------------------

    Doubly Occupied:

       1A    -20.533062     2A    -15.607485     3A    -15.567077
       4A    -11.363442     5A    -11.314763     6A    -11.307929
       7A    -11.267868     8A    -11.267200     9A    -11.265308
      10A    -11.265191    11A    -11.258361    12A    -11.253349
      13A    -11.245013    14A     -1.388165    15A     -1.276551
      16A     -1.233316    17A     -1.164500    18A     -1.065633
      19A     -1.035293    20A     -1.012220    21A     -0.956646
      22A     -0.886972    23A     -0.858551    24A     -0.795823
      25A     -0.771137    26A     -0.729334    27A     -0.701050
      28A     -0.678403    29A     -0.658672    30A     -0.650495
      31A     -0.638396    32A     -0.624746    33A     -0.605231
      34A     -0.596567    35A     -0.567148    36A     -0.555947
      37A     -0.538493    38A     -0.531578    39A     -0.516600
      40A     -0.509763    41A     -0.452420    42A     -0.444516
      43A     -0.413088    44A     -0.400580    45A     -0.355515
      46A     -0.332513

  @DF-RHF Final Energy:  -568.40631455413859

   => Energetics <=

    Nuclear Repulsion Energy =            760.6166983055558148
    One-Electron Energy =               -2281.1222057134978058
    Two-Electron Energy =                 952.0991928538032880
    Total Energy =                       -568.4063145541385893
  Basis Set: (AUG-CC-PVTZ AUX)
    Blend: AUG-CC-PVTZ-RI
    Molecular point group: c1

    Geometry (in Angstrom), charge = 0, multiplicity = 1:

       Center              X                  Y                   Z               Mass
    ------------   -----------------  -----------------  -----------------  -----------------
         O            3.106457941504    -1.414947791424    -0.198310036649    15.994914619570
         N            0.865000941504    -1.216873791424    -0.573355036649    14.003074004430
         N            1.513238941504     1.499422208576     0.351170963351    14.003074004430
         C           -0.737405058496     0.541074208576     0.049736963351    12.000000000000
         C           -0.432403058496    -0.811714791424    -0.220320036649    12.000000000000
         C            0.293207941504     1.598998208576    -0.067856036649    12.000000000000
         C            1.878821941504     0.272444208576     1.055813963351    12.000000000000
         C           -2.069583058496     0.876130208576     0.353196963351    12.000000000000
         C           -1.453897058496    -1.774949791424    -0.215088036649    12.000000000000
         C            2.045887941504    -0.857937791424     0.060620963351    12.000000000000
         C           -0.029889958496     2.787178108576    -0.973589036649    12.000000000000
         C           -3.073248058496    -0.085837791424     0.378339963351    12.000000000000
         C           -2.764373058496    -1.416739791424     0.077652963351    12.000000000000
         H            0.956171941504    -2.055530791424    -1.141623036649     1.007825032230
         H            1.123798941504    -0.012105791424     1.804962963351     1.007825032230
         H            2.840855941504     0.418241208576     1.548262963351     1.007825032230
         H           -2.316700058496     1.911367208576     0.573403963351     1.007825032230
         H           -1.202202058496    -2.812243791424    -0.428672036649     1.007825032230
         H           -0.835847058496     3.438232208576    -0.163055036649     1.007825032230
         H           -0.545042058496     2.682282208576    -1.732513036649     1.007825032230
         H            0.791921941504     3.499886208576    -0.869493036649     1.007825032230
         H           -4.093079058496     0.198040208576     0.624262963351     1.007825032230
         H           -3.542115058496    -2.176329791424     0.083233963351     1.007825032230

  Basis Set: AUG-CC-PVTZ
    Blend: AUG-CC-PVTZ
  Basis Set: (AUG-CC-PVTZ AUX)
    Blend: AUG-CC-PVTZ-JKFIT
	 Reference Energy          =    -568.4063145541385893 [Eh]
	 Singles Energy            =      -0.0000000000000000 [Eh]
	 Same-Spin Energy          =      -0.6152832327726834 [Eh]
	 Opposite-Spin Energy      =      -1.8899526364628634 [Eh]
	 Correlation Energy        =      -2.5052358692355465 [Eh]
	 Total Energy              =    -570.9115504233741376 [Eh]

	 ================> DF-SCS-MP2 Energies <==================
	-----------------------------------------------------------
	 SCS Same-Spin Scale       =       0.3333333333333333 [-]
	 SCS Opposite-Spin Scale   =       1.2000000000000000 [-]
	 SCS Same-Spin Energy      =      -0.2050944109242278 [Eh]
	 SCS Opposite-Spin Energy  =      -2.2679431637554361 [Eh]
	 SCS Correlation Energy    =      -2.4730375746796640 [Eh]
	 SCS Total Energy          =    -570.8793521288182546 [Eh]
	-----------------------------------------------------------

  Dipole Moment: [D]
     X:    -5.0561      Y:    -0.2882      Z:     0.1507     Total:     5.0666

*** Psi4 exiting successfully. Buy a developer a beer!
