                               Psi4 1.4a2.dev612

  ==> Input File <==

--------------------------------------------------------------------------
#psi4
#
memory 32 gb

molecule  {
0 1
  O        3.1477550    -1.4485350    -0.2143050
  N        0.9062980    -1.2504610    -0.5893500
  N        1.5545360     1.4658350     0.3351760
  C       -0.6961080     0.5074870     0.0337420
  C       -0.3911060    -0.8453020    -0.2363150
  C        0.3345050     1.5654110    -0.0838510
  C        1.9201190     0.2388570     1.0398190
  C       -2.0177385     0.8363025     0.3856768
  C       -1.4126000    -1.8085370    -0.2310830
  C        2.0871850    -0.8915250     0.0446260
  C       -0.0584500     2.8482670    -0.7690020
  C       -3.0319510    -0.1194250     0.3623450
  C       -2.7230760    -1.4503270     0.0616580
  H        0.9974690    -2.0891180    -1.1576180
  H        1.1650960    -0.0456930     1.7889680
  H        2.8821530     0.3846540     1.5322680
  H       -2.2754030     1.8777800     0.5574090
  H       -1.1609050    -2.8458310    -0.4446670
  H       -0.7945500     3.4046450    -0.1790500
  H       -0.5037450     2.6486950    -1.7485080
  H        0.8332190     3.4662990    -0.8854880
  H       -4.0517820     0.1644530     0.6082680
  H       -3.5008180    -2.2099170     0.0672390
units angstrom
no_reorient  #important for SAPT in psi4, default
symmetry c1  #important for SAPT in psi4, default
}

set PROPERTIES_ORIGIN ["COM"]
properties('MP2/aug-cc-pvtz', properties = ['dipole'])
--------------------------------------------------------------------------

    Molecular point group: c1
  Charge       = 0
  Multiplicity = 1
  Basis Set: AUG-CC-PVTZ
    Blend: AUG-CC-PVTZ
  Basis Set: (AUG-CC-PVTZ AUX)
    Blend: AUG-CC-PVTZ-JKFIT

    Orbital Energies [Eh]
    ---------------------

    Doubly Occupied:

       1A    -20.532339     2A    -15.606990     3A    -15.567376
       4A    -11.362662     5A    -11.314134     6A    -11.302529
       7A    -11.267095     8A    -11.267070     9A    -11.265882
      10A    -11.265158    11A    -11.258296    12A    -11.254218
      13A    -11.234390    14A     -1.387544    15A     -1.276037
      16A     -1.233018    17A     -1.164187    18A     -1.065508
      19A     -1.034892    20A     -1.011298    21A     -0.951743
      22A     -0.885508    23A     -0.858152    24A     -0.795342
      25A     -0.768070    26A     -0.728835    27A     -0.691540
      28A     -0.677681    29A     -0.657395    30A     -0.648219
      31A     -0.626329    32A     -0.618505    33A     -0.604699
      34A     -0.586534    35A     -0.566795    36A     -0.558650
      37A     -0.543465    38A     -0.538917    39A     -0.528576
      40A     -0.514658    41A     -0.457490    42A     -0.444596
      43A     -0.417942    44A     -0.405095    45A     -0.355275
      46A     -0.331905

  @DF-RHF Final Energy:  -568.46472397375305

   => Energetics <=

    Nuclear Repulsion Energy =            760.7014318377922564
    One-Electron Energy =               -2281.4672305936001067
    Two-Electron Energy =                 952.3010747820546840
    Total Energy =                       -568.4647239737530526
  Basis Set: (AUG-CC-PVTZ AUX)
    Blend: AUG-CC-PVTZ-RI
    Molecular point group: c1

    Geometry (in Angstrom), charge = 0, multiplicity = 1:

       Center              X                  Y                   Z               Mass
    ------------   -----------------  -----------------  -----------------  -----------------
         O            3.110546395140    -1.421044019529    -0.216857223821    15.994914619570
         N            0.869089395140    -1.222970019529    -0.591902223821    14.003074004430
         N            1.517327395140     1.493325980471     0.332623776179    14.003074004430
         C           -0.733316604860     0.534977980471     0.031189776179    12.000000000000
         C           -0.428314604860    -0.817811019529    -0.238867223821    12.000000000000
         C            0.297296395140     1.592901980471    -0.086403223821    12.000000000000
         C            1.882910395140     0.266347980471     1.037266776179    12.000000000000
         C           -2.054947104860     0.863793480471     0.383124576179    12.000000000000
         C           -1.449808604860    -1.781046019529    -0.233635223821    12.000000000000
         C            2.049976395140    -0.864034019529     0.042073776179    12.000000000000
         C           -0.095658604860     2.875757980471    -0.771554223821    12.000000000000
         C           -3.069159604860    -0.091934019529     0.359792776179    12.000000000000
         C           -2.760284604860    -1.422836019529     0.059105776179    12.000000000000
         H            0.960260395140    -2.061627019529    -1.160170223821     1.007825032230
         H            1.127887395140    -0.018202019529     1.786415776179     1.007825032230
         H            2.844944395140     0.412144980471     1.529715776179     1.007825032230
         H           -2.312611604860     1.905270980471     0.554856776179     1.007825032230
         H           -1.198113604860    -2.818340019529    -0.447219223821     1.007825032230
         H           -0.831758604860     3.432135980471    -0.181602223821     1.007825032230
         H           -0.540953604860     2.676185980471    -1.751060223821     1.007825032230
         H            0.796010395140     3.493789980471    -0.888040223821     1.007825032230
         H           -4.088990604860     0.191943980471     0.605715776179     1.007825032230
         H           -3.538026604860    -2.182426019529     0.064686776179     1.007825032230

  Basis Set: AUG-CC-PVTZ
    Blend: AUG-CC-PVTZ
  Basis Set: (AUG-CC-PVTZ AUX)
    Blend: AUG-CC-PVTZ-JKFIT
	 Reference Energy          =    -568.4647239737530526 [Eh]
	 Singles Energy            =      -0.0000000000000000 [Eh]
	 Same-Spin Energy          =      -0.6144779094956216 [Eh]
	 Opposite-Spin Energy      =      -1.8872639858678644 [Eh]
	 Correlation Energy        =      -2.5017418953634860 [Eh]
	 Total Energy              =    -570.9664658691165187 [Eh]

	 ================> DF-SCS-MP2 Energies <==================
	-----------------------------------------------------------
	 SCS Same-Spin Scale       =       0.3333333333333333 [-]
	 SCS Opposite-Spin Scale   =       1.2000000000000000 [-]
	 SCS Same-Spin Energy      =      -0.2048259698318739 [Eh]
	 SCS Opposite-Spin Energy  =      -2.2647167830414370 [Eh]
	 SCS Correlation Energy    =      -2.4695427528733109 [Eh]
	 SCS Total Energy          =    -570.9342667266263334 [Eh]
	-----------------------------------------------------------

  Dipole Moment: [D]
     X:    -5.1036      Y:    -0.2303      Z:     0.1986     Total:     5.1127

*** Psi4 exiting successfully. Buy a developer a beer!
