                               Psi4 1.4a2.dev612

  ==> Input File <==

--------------------------------------------------------------------------
#psi4
#
memory 32 gb

molecule  {
0 1
  O        3.1477550    -1.4485350    -0.2143050
  N        0.9062980    -1.2504610    -0.5893500
  N        1.5545360     1.4658350     0.3351760
  C       -0.6961080     0.5074870     0.0337420
  C       -0.3911060    -0.8453020    -0.2363150
  C        0.3345050     1.5654110    -0.0838510
  C        1.9201190     0.2388570     1.0398190
  C       -1.9860960     0.8175810     0.5311012
  C       -1.4126000    -1.8085370    -0.2310830
  C        2.0871850    -0.8915250     0.0446260
  C       -0.0584500     2.8482670    -0.7690020
  C       -3.0319510    -0.1194250     0.3623450
  C       -2.7230760    -1.4503270     0.0616580
  H        0.9974690    -2.0891180    -1.1576180
  H        1.1650960    -0.0456930     1.7889680
  H        2.8821530     0.3846540     1.5322680
  H       -2.2754030     1.8777800     0.5574090
  H       -1.1609050    -2.8458310    -0.4446670
  H       -0.7945500     3.4046450    -0.1790500
  H       -0.5037450     2.6486950    -1.7485080
  H        0.8332190     3.4662990    -0.8854880
  H       -4.0517820     0.1644530     0.6082680
  H       -3.5008180    -2.2099170     0.0672390
units angstrom
no_reorient  #important for SAPT in psi4, default
symmetry c1  #important for SAPT in psi4, default
}

set PROPERTIES_ORIGIN ["COM"]
properties('MP2/aug-cc-pvtz', properties = ['dipole'])
--------------------------------------------------------------------------

    Molecular point group: c1
  Charge       = 0
  Multiplicity = 1
  Basis Set: AUG-CC-PVTZ
    Blend: AUG-CC-PVTZ
  Basis Set: (AUG-CC-PVTZ AUX)
    Blend: AUG-CC-PVTZ-JKFIT

    Orbital Energies [Eh]
    ---------------------

    Doubly Occupied:

       1A    -20.532578     2A    -15.606791     3A    -15.568546
       4A    -11.362869     5A    -11.313034     6A    -11.302940
       7A    -11.270053     8A    -11.268868     9A    -11.267364
      10A    -11.264134    11A    -11.259931    12A    -11.258235
      13A    -11.234786    14A     -1.387703    15A     -1.276078
      16A     -1.233513    17A     -1.162009    18A     -1.065116
      19A     -1.032779    20A     -1.011433    21A     -0.951845
      22A     -0.884295    23A     -0.857737    24A     -0.794757
      25A     -0.767116    26A     -0.727910    27A     -0.691748
      28A     -0.677353    29A     -0.655833    30A     -0.647591
      31A     -0.623684    32A     -0.618795    33A     -0.604122
      34A     -0.586623    35A     -0.566533    36A     -0.557030
      37A     -0.542791    38A     -0.537965    39A     -0.529931
      40A     -0.510801    41A     -0.456941    42A     -0.444360
      43A     -0.419033    44A     -0.404114    45A     -0.356242
      46A     -0.330309

  @DF-RHF Final Energy:  -568.45246397881033

   => Energetics <=

    Nuclear Repulsion Energy =            760.2354999787517045
    One-Electron Energy =               -2280.5274884881996513
    Two-Electron Energy =                 951.8395245306376182
    Total Energy =                       -568.4524639788103286
  Basis Set: (AUG-CC-PVTZ AUX)
    Blend: AUG-CC-PVTZ-RI
    Molecular point group: c1

    Geometry (in Angstrom), charge = 0, multiplicity = 1:

       Center              X                  Y                   Z               Mass
    ------------   -----------------  -----------------  -----------------  -----------------
         O            3.108365148020    -1.419753469858    -0.226881923312    15.994914619570
         N            0.866908148020    -1.221679469858    -0.601926923312    14.003074004430
         N            1.515146148020     1.494616530142     0.322599076688    14.003074004430
         C           -0.735497851980     0.536268530142     0.021165076688    12.000000000000
         C           -0.430495851980    -0.816520469858    -0.248891923312    12.000000000000
         C            0.295115148020     1.594192530142    -0.096427923312    12.000000000000
         C            1.880729148020     0.267638530142     1.027242076688    12.000000000000
         C           -2.025485851980     0.846362530142     0.518524276688    12.000000000000
         C           -1.451989851980    -1.779755469858    -0.243659923312    12.000000000000
         C            2.047795148020    -0.862743469858     0.032049076688    12.000000000000
         C           -0.097839851980     2.877048530142    -0.781578923312    12.000000000000
         C           -3.071340851980    -0.090643469858     0.349768076688    12.000000000000
         C           -2.762465851980    -1.421545469858     0.049081076688    12.000000000000
         H            0.958079148020    -2.060336469858    -1.170194923312     1.007825032230
         H            1.125706148020    -0.016911469858     1.776391076688     1.007825032230
         H            2.842763148020     0.413435530142     1.519691076688     1.007825032230
         H           -2.314792851980     1.906561530142     0.544832076688     1.007825032230
         H           -1.200294851980    -2.817049469858    -0.457243923312     1.007825032230
         H           -0.833939851980     3.433426530142    -0.191626923312     1.007825032230
         H           -0.543134851980     2.677476530142    -1.761084923312     1.007825032230
         H            0.793829148020     3.495080530142    -0.898064923312     1.007825032230
         H           -4.091171851980     0.193234530142     0.595691076688     1.007825032230
         H           -3.540207851980    -2.181135469858     0.054662076688     1.007825032230

  Basis Set: AUG-CC-PVTZ
    Blend: AUG-CC-PVTZ
  Basis Set: (AUG-CC-PVTZ AUX)
    Blend: AUG-CC-PVTZ-JKFIT
	 Reference Energy          =    -568.4524639788103286 [Eh]
	 Singles Energy            =      -0.0000000000000000 [Eh]
	 Same-Spin Energy          =      -0.6150912953588183 [Eh]
	 Opposite-Spin Energy      =      -1.8891576099273801 [Eh]
	 Correlation Energy        =      -2.5042489052861985 [Eh]
	 Total Energy              =    -570.9567128840965324 [Eh]

	 ================> DF-SCS-MP2 Energies <==================
	-----------------------------------------------------------
	 SCS Same-Spin Scale       =       0.3333333333333333 [-]
	 SCS Opposite-Spin Scale   =       1.2000000000000000 [-]
	 SCS Same-Spin Energy      =      -0.2050304317862728 [Eh]
	 SCS Opposite-Spin Energy  =      -2.2669891319128559 [Eh]
	 SCS Correlation Energy    =      -2.4720195636991287 [Eh]
	 SCS Total Energy          =    -570.9244835425095062 [Eh]
	-----------------------------------------------------------

  Dipole Moment: [D]
     X:    -5.0561      Y:    -0.2526      Z:     0.0952     Total:     5.0633

*** Psi4 exiting successfully. Buy a developer a beer!
