                               Psi4 1.4a2.dev612

  ==> Input File <==

--------------------------------------------------------------------------
#psi4
#
memory 32 gb

molecule  {
0 1
  O        3.1477550    -1.4485350    -0.2143050
  N        0.9062980    -1.2504610    -0.5893500
  N        1.5545360     1.4658350     0.3351760
  C       -0.6961080     0.5074870     0.0337420
  C       -0.3911060    -0.8453020    -0.2363150
  C        0.3345050     1.5654110    -0.0838510
  C        1.9201190     0.2388570     1.0398190
  C       -2.0282860     0.8425430     0.3372020
  C       -1.3745652    -1.8424184    -0.0376782
  C        2.0871850    -0.8915250     0.0446260
  C       -0.0584500     2.8482670    -0.7690020
  C       -3.0319510    -0.1194250     0.3623450
  C       -2.7230760    -1.4503270     0.0616580
  H        0.9974690    -2.0891180    -1.1576180
  H        1.1650960    -0.0456930     1.7889680
  H        2.8821530     0.3846540     1.5322680
  H       -2.2754030     1.8777800     0.5574090
  H       -1.1609050    -2.8458310    -0.4446670
  H       -0.7945500     3.4046450    -0.1790500
  H       -0.5037450     2.6486950    -1.7485080
  H        0.8332190     3.4662990    -0.8854880
  H       -4.0517820     0.1644530     0.6082680
  H       -3.5008180    -2.2099170     0.0672390
units angstrom
no_reorient  #important for SAPT in psi4, default
symmetry c1  #important for SAPT in psi4, default
}

set PROPERTIES_ORIGIN ["COM"]
properties('MP2/aug-cc-pvtz', properties = ['dipole'])
--------------------------------------------------------------------------

    Molecular point group: c1
  Charge       = 0
  Multiplicity = 1
  Basis Set: AUG-CC-PVTZ
    Blend: AUG-CC-PVTZ
  Basis Set: (AUG-CC-PVTZ AUX)
    Blend: AUG-CC-PVTZ-JKFIT

    Orbital Energies [Eh]
    ---------------------

    Doubly Occupied:

       1A    -20.532316     2A    -15.605831     3A    -15.567757
       4A    -11.362563     5A    -11.315674     6A    -11.302463
       7A    -11.268587     8A    -11.268505     9A    -11.266984
      10A    -11.266255    11A    -11.261306    12A    -11.254537
      13A    -11.234205    14A     -1.387369    15A     -1.275494
      16A     -1.232815    17A     -1.163538    18A     -1.064800
      19A     -1.033635    20A     -1.011117    21A     -0.951644
      22A     -0.884013    23A     -0.857287    24A     -0.795695
      25A     -0.767522    26A     -0.727497    27A     -0.690972
      28A     -0.676875    29A     -0.657713    30A     -0.648436
      31A     -0.622485    32A     -0.617721    33A     -0.602981
      34A     -0.586732    35A     -0.564805    36A     -0.559312
      37A     -0.543973    38A     -0.537716    39A     -0.529018
      40A     -0.510316    41A     -0.458239    42A     -0.440106
      43A     -0.417522    44A     -0.405370    45A     -0.354319
      46A     -0.335642

  @DF-RHF Final Energy:  -568.45396544607388

   => Energetics <=

    Nuclear Repulsion Energy =            760.4459586238194788
    One-Electron Energy =               -2280.9605237879686683
    Two-Electron Energy =                 952.0605997180753093
    Total Energy =                       -568.4539654460738802
  Basis Set: (AUG-CC-PVTZ AUX)
    Blend: AUG-CC-PVTZ-RI
    Molecular point group: c1

    Geometry (in Angstrom), charge = 0, multiplicity = 1:

       Center              X                  Y                   Z               Mass
    ------------   -----------------  -----------------  -----------------  -----------------
         O            3.108651582974    -1.419138619086    -0.226847842296    15.994914619570
         N            0.867194582974    -1.221064619086    -0.601892842296    14.003074004430
         N            1.515432582974     1.495231380914     0.322633157704    14.003074004430
         C           -0.735211417026     0.536883380914     0.021199157704    12.000000000000
         C           -0.430209417026    -0.815905619086    -0.248857842296    12.000000000000
         C            0.295401582974     1.594807380914    -0.096393842296    12.000000000000
         C            1.881015582974     0.268253380914     1.027276157704    12.000000000000
         C           -2.067389417026     0.871939380914     0.324659157704    12.000000000000
         C           -1.413668617026    -1.813022019086    -0.050221042296    12.000000000000
         C            2.048081582974    -0.862128619086     0.032083157704    12.000000000000
         C           -0.097553417026     2.877663380914    -0.781544842296    12.000000000000
         C           -3.071054417026    -0.090028619086     0.349802157704    12.000000000000
         C           -2.762179417026    -1.420930619086     0.049115157704    12.000000000000
         H            0.958365582974    -2.059721619086    -1.170160842296     1.007825032230
         H            1.125992582974    -0.016296619086     1.776425157704     1.007825032230
         H            2.843049582974     0.414050380914     1.519725157704     1.007825032230
         H           -2.314506417026     1.907176380914     0.544866157704     1.007825032230
         H           -1.200008417026    -2.816434619086    -0.457209842296     1.007825032230
         H           -0.833653417026     3.434041380914    -0.191592842296     1.007825032230
         H           -0.542848417026     2.678091380914    -1.761050842296     1.007825032230
         H            0.794115582974     3.495695380914    -0.898030842296     1.007825032230
         H           -4.090885417026     0.193849380914     0.595725157704     1.007825032230
         H           -3.539921417026    -2.180520619086     0.054696157704     1.007825032230

  Basis Set: AUG-CC-PVTZ
    Blend: AUG-CC-PVTZ
  Basis Set: (AUG-CC-PVTZ AUX)
    Blend: AUG-CC-PVTZ-JKFIT
	 Reference Energy          =    -568.4539654460738802 [Eh]
	 Singles Energy            =      -0.0000000000000000 [Eh]
	 Same-Spin Energy          =      -0.6149424577092127 [Eh]
	 Opposite-Spin Energy      =      -1.8888468736355448 [Eh]
	 Correlation Energy        =      -2.5037893313447577 [Eh]
	 Total Energy              =    -570.9577547774185859 [Eh]

	 ================> DF-SCS-MP2 Energies <==================
	-----------------------------------------------------------
	 SCS Same-Spin Scale       =       0.3333333333333333 [-]
	 SCS Opposite-Spin Scale   =       1.2000000000000000 [-]
	 SCS Same-Spin Energy      =      -0.2049808192364042 [Eh]
	 SCS Opposite-Spin Energy  =      -2.2666162483626535 [Eh]
	 SCS Correlation Energy    =      -2.4715970675990580 [Eh]
	 SCS Total Energy          =    -570.9255625136729577 [Eh]
	-----------------------------------------------------------

  Dipole Moment: [D]
     X:    -5.1452      Y:    -0.1317      Z:     0.1503     Total:     5.1491

*** Psi4 exiting successfully. Buy a developer a beer!
