                               Psi4 1.4a2.dev612

  ==> Input File <==

--------------------------------------------------------------------------
#psi4
#
memory 32 gb

molecule  {
0 1
  O        3.1477550    -1.4485350    -0.2143050
  N        0.9062980    -1.2504610    -0.5893500
  N        1.5545360     1.4658350     0.3351760
  C       -0.6961080     0.5074870     0.0337420
  C       -0.3911060    -0.8453020    -0.2363150
  C        0.3345050     1.5654110    -0.0838510
  C        1.9201190     0.2388570     1.0398190
  C       -2.0282860     0.8425430     0.3372020
  C       -1.4126000    -1.8085370    -0.2310830
  C        2.0871850    -0.8915250     0.0446260
  C        0.0253786     2.7346557    -1.0337004
  C       -3.0319510    -0.1194250     0.3623450
  C       -2.7230760    -1.4503270     0.0616580
  H        0.9974690    -2.0891180    -1.1576180
  H        1.1650960    -0.0456930     1.7889680
  H        2.8821530     0.3846540     1.5322680
  H       -2.2754030     1.8777800     0.5574090
  H       -1.1609050    -2.8458310    -0.4446670
  H       -0.7945500     3.4046450    -0.1790500
  H       -0.5037450     2.6486950    -1.7485080
  H        0.8332190     3.4662990    -0.8854880
  H       -4.0517820     0.1644530     0.6082680
  H       -3.5008180    -2.2099170     0.0672390
units angstrom
no_reorient  #important for SAPT in psi4, default
symmetry c1  #important for SAPT in psi4, default
}

set PROPERTIES_ORIGIN ["COM"]
properties('MP2/aug-cc-pvtz', properties = ['dipole'])
--------------------------------------------------------------------------

    Molecular point group: c1
  Charge       = 0
  Multiplicity = 1
  Basis Set: AUG-CC-PVTZ
    Blend: AUG-CC-PVTZ
  Basis Set: (AUG-CC-PVTZ AUX)
    Blend: AUG-CC-PVTZ-JKFIT

    Orbital Energies [Eh]
    ---------------------

    Doubly Occupied:

       1A    -20.533311     2A    -15.607644     3A    -15.567197
       4A    -11.363699     5A    -11.314880     6A    -11.310185
       7A    -11.268280     8A    -11.267424     9A    -11.265200
      10A    -11.265145    11A    -11.258404    12A    -11.253281
      13A    -11.249316    14A     -1.388386    15A     -1.276744
      16A     -1.233525    17A     -1.164526    18A     -1.065743
      19A     -1.035341    20A     -1.012764    21A     -0.958816
      22A     -0.887588    23A     -0.858687    24A     -0.795967
      25A     -0.772494    26A     -0.729833    27A     -0.704791
      28A     -0.678612    29A     -0.659235    30A     -0.652344
      31A     -0.641640    32A     -0.624527    33A     -0.605384
      34A     -0.596449    35A     -0.567303    36A     -0.556606
      37A     -0.538242    38A     -0.531613    39A     -0.515270
      40A     -0.503271    41A     -0.450663    42A     -0.444457
      43A     -0.413906    44A     -0.396529    45A     -0.355481
      46A     -0.332595

  @DF-RHF Final Energy:  -568.38129733760798

   => Energetics <=

    Nuclear Repulsion Energy =            760.5216625893868923
    One-Electron Energy =               -2280.8593292818441114
    Two-Electron Energy =                 951.9563693548493575
    Total Energy =                       -568.3812973376079754
  Basis Set: (AUG-CC-PVTZ AUX)
    Blend: AUG-CC-PVTZ-RI
    Molecular point group: c1

    Geometry (in Angstrom), charge = 0, multiplicity = 1:

       Center              X                  Y                   Z               Mass
    ------------   -----------------  -----------------  -----------------  -----------------
         O            3.105494828787    -1.413642510538    -0.195268912514    15.994914619570
         N            0.864037828787    -1.215568510538    -0.570313912514    14.003074004430
         N            1.512275828787     1.500727489462     0.354212087486    14.003074004430
         C           -0.738368171213     0.542379489462     0.052778087486    12.000000000000
         C           -0.433366171213    -0.810409510538    -0.217278912514    12.000000000000
         C            0.292244828787     1.600303489462    -0.064814912514    12.000000000000
         C            1.877858828787     0.273749489462     1.058855087486    12.000000000000
         C           -2.070546171213     0.877435489462     0.356238087486    12.000000000000
         C           -1.454860171213    -1.773644510538    -0.212046912514    12.000000000000
         C            2.044924828787    -0.856632510538     0.063662087486    12.000000000000
         C           -0.016881571213     2.769548189462    -1.014664312514    12.000000000000
         C           -3.074211171213    -0.084532510538     0.381381087486    12.000000000000
         C           -2.765336171213    -1.415434510538     0.080694087486    12.000000000000
         H            0.955208828787    -2.054225510538    -1.138581912514     1.007825032230
         H            1.122835828787    -0.010800510538     1.808004087486     1.007825032230
         H            2.839892828787     0.419546489462     1.551304087486     1.007825032230
         H           -2.317663171213     1.912672489462     0.576445087486     1.007825032230
         H           -1.203165171213    -2.810938510538    -0.425630912514     1.007825032230
         H           -0.836810171213     3.439537489462    -0.160013912514     1.007825032230
         H           -0.546005171213     2.683587489462    -1.729471912514     1.007825032230
         H            0.790958828787     3.501191489462    -0.866451912514     1.007825032230
         H           -4.094042171213     0.199345489462     0.627304087486     1.007825032230
         H           -3.543078171213    -2.175024510538     0.086275087486     1.007825032230

  Basis Set: AUG-CC-PVTZ
    Blend: AUG-CC-PVTZ
  Basis Set: (AUG-CC-PVTZ AUX)
    Blend: AUG-CC-PVTZ-JKFIT
	 Reference Energy          =    -568.3812973376079754 [Eh]
	 Singles Energy            =      -0.0000000000000000 [Eh]
	 Same-Spin Energy          =      -0.6156520082370678 [Eh]
	 Opposite-Spin Energy      =      -1.8912288854498394 [Eh]
	 Correlation Energy        =      -2.5068808936869074 [Eh]
	 Total Energy              =    -570.8881782312948872 [Eh]

	 ================> DF-SCS-MP2 Energies <==================
	-----------------------------------------------------------
	 SCS Same-Spin Scale       =       0.3333333333333333 [-]
	 SCS Opposite-Spin Scale   =       1.2000000000000000 [-]
	 SCS Same-Spin Energy      =      -0.2052173360790226 [Eh]
	 SCS Opposite-Spin Energy  =      -2.2694746625398072 [Eh]
	 SCS Correlation Energy    =      -2.4746919986188298 [Eh]
	 SCS Total Energy          =    -570.8559893362267985 [Eh]
	-----------------------------------------------------------

  Dipole Moment: [D]
     X:    -5.0371      Y:    -0.3032      Z:     0.1461     Total:     5.0483

*** Psi4 exiting successfully. Buy a developer a beer!
