                               Psi4 1.4a2.dev612

  ==> Input File <==

--------------------------------------------------------------------------
#psi4
#
memory 32 gb

molecule  {
0 1
  O        3.1477550    -1.4485350    -0.2143050
  N        0.9062980    -1.2504610    -0.5893500
  N        1.5545360     1.4658350     0.3351760
  C       -0.6961080     0.5074870     0.0337420
  C       -0.3911060    -0.8453020    -0.2363150
  C        0.3345050     1.5654110    -0.0838510
  C        1.9740801     0.4391764     0.8231157
  C       -2.0282860     0.8425430     0.3372020
  C       -1.4126000    -1.8085370    -0.2310830
  C        2.0871850    -0.8915250     0.0446260
  C       -0.0584500     2.8482670    -0.7690020
  C       -3.0319510    -0.1194250     0.3623450
  C       -2.7230760    -1.4503270     0.0616580
  H        0.9974690    -2.0891180    -1.1576180
  H        1.1650960    -0.0456930     1.7889680
  H        2.8821530     0.3846540     1.5322680
  H       -2.2754030     1.8777800     0.5574090
  H       -1.1609050    -2.8458310    -0.4446670
  H       -0.7945500     3.4046450    -0.1790500
  H       -0.5037450     2.6486950    -1.7485080
  H        0.8332190     3.4662990    -0.8854880
  H       -4.0517820     0.1644530     0.6082680
  H       -3.5008180    -2.2099170     0.0672390
units angstrom
no_reorient  #important for SAPT in psi4, default
symmetry c1  #important for SAPT in psi4, default
}

set PROPERTIES_ORIGIN ["COM"]
properties('MP2/aug-cc-pvtz', properties = ['dipole'])
--------------------------------------------------------------------------

    Molecular point group: c1
  Charge       = 0
  Multiplicity = 1
  Basis Set: AUG-CC-PVTZ
    Blend: AUG-CC-PVTZ
  Basis Set: (AUG-CC-PVTZ AUX)
    Blend: AUG-CC-PVTZ-JKFIT

    Orbital Energies [Eh]
    ---------------------

    Doubly Occupied:

       1A    -20.533740     2A    -15.607541     3A    -15.557106
       4A    -11.364896     5A    -11.317569     6A    -11.316749
       7A    -11.281043     8A    -11.270217     9A    -11.268733
      10A    -11.268330    11A    -11.259090    12A    -11.255371
      13A    -11.239084    14A     -1.388705    15A     -1.316472
      16A     -1.261718    17A     -1.168421    18A     -1.083304
      19A     -1.036207    20A     -1.016621    21A     -0.937348
      22A     -0.897527    23A     -0.859625    24A     -0.813514
      25A     -0.780148    26A     -0.728652    27A     -0.714454
      28A     -0.665096    29A     -0.659875    30A     -0.653252
      31A     -0.632744    32A     -0.628192    33A     -0.615894
      34A     -0.590032    35A     -0.562391    36A     -0.557798
      37A     -0.552593    38A     -0.534969    39A     -0.528845
      40A     -0.505958    41A     -0.470890    42A     -0.445735
      43A     -0.399628    44A     -0.373368    45A     -0.348459
      46A     -0.334548

  @DF-RHF Final Energy:  -568.37740397161042

   => Energetics <=

    Nuclear Repulsion Energy =            763.5986406654931216
    One-Electron Energy =               -2286.7471880703542411
    Two-Electron Energy =                 954.7711434332506997
    Total Energy =                       -568.3774039716104198
  Basis Set: (AUG-CC-PVTZ AUX)
    Blend: AUG-CC-PVTZ-RI
    Molecular point group: c1

    Geometry (in Angstrom), charge = 0, multiplicity = 1:

       Center              X                  Y                   Z               Mass
    ------------   -----------------  -----------------  -----------------  -----------------
         O            3.107553717887    -1.435283039421    -0.198577411326    15.994914619570
         N            0.866096717887    -1.237209039421    -0.573622411326    14.003074004430
         N            1.514334717887     1.479086960579     0.350903588674    14.003074004430
         C           -0.736309282113     0.520738960579     0.049469588674    12.000000000000
         C           -0.431307282113    -0.832050039421    -0.220587411326    12.000000000000
         C            0.294303717887     1.578662960579    -0.068123411326    12.000000000000
         C            1.933878817887     0.452428360579     0.838843288674    12.000000000000
         C           -2.068487282113     0.855794960579     0.352929588674    12.000000000000
         C           -1.452801282113    -1.795285039421    -0.215355411326    12.000000000000
         C            2.046983717887    -0.878273039421     0.060353588674    12.000000000000
         C           -0.098651282113     2.861518960579    -0.753274411326    12.000000000000
         C           -3.072152282113    -0.106173039421     0.378072588674    12.000000000000
         C           -2.763277282113    -1.437075039421     0.077385588674    12.000000000000
         H            0.957267717887    -2.075866039421    -1.141890411326     1.007825032230
         H            1.124894717887    -0.032441039421     1.804695588674     1.007825032230
         H            2.841951717887     0.397905960579     1.547995588674     1.007825032230
         H           -2.315604282113     1.891031960579     0.573136588674     1.007825032230
         H           -1.201106282113    -2.832579039421    -0.428939411326     1.007825032230
         H           -0.834751282113     3.417896960579    -0.163322411326     1.007825032230
         H           -0.543946282113     2.661946960579    -1.732780411326     1.007825032230
         H            0.793017717887     3.479550960579    -0.869760411326     1.007825032230
         H           -4.091983282113     0.177704960579     0.623995588674     1.007825032230
         H           -3.541019282113    -2.196665039421     0.082966588674     1.007825032230

  Basis Set: AUG-CC-PVTZ
    Blend: AUG-CC-PVTZ
  Basis Set: (AUG-CC-PVTZ AUX)
    Blend: AUG-CC-PVTZ-JKFIT
	 Reference Energy          =    -568.3774039716104198 [Eh]
	 Singles Energy            =      -0.0000000000000000 [Eh]
	 Same-Spin Energy          =      -0.6194146429646621 [Eh]
	 Opposite-Spin Energy      =      -1.8914177209145671 [Eh]
	 Correlation Energy        =      -2.5108323638792291 [Eh]
	 Total Energy              =    -570.8882363354896370 [Eh]

	 ================> DF-SCS-MP2 Energies <==================
	-----------------------------------------------------------
	 SCS Same-Spin Scale       =       0.3333333333333333 [-]
	 SCS Opposite-Spin Scale   =       1.2000000000000000 [-]
	 SCS Same-Spin Energy      =      -0.2064715476548873 [Eh]
	 SCS Opposite-Spin Energy  =      -2.2697012650974804 [Eh]
	 SCS Correlation Energy    =      -2.4761728127523677 [Eh]
	 SCS Total Energy          =    -570.8535767843627582 [Eh]
	-----------------------------------------------------------

  Dipole Moment: [D]
     X:    -5.1735      Y:     0.0084      Z:    -0.3800     Total:     5.1874

*** Psi4 exiting successfully. Buy a developer a beer!
