                               Psi4 1.4a2.dev612

  ==> Input File <==

--------------------------------------------------------------------------
#psi4
#
memory 32 gb

molecule  {
0 1
  O        3.1477550    -1.4485350    -0.2143050
  N        0.9062980    -1.2504610    -0.5893500
  N        1.5545360     1.4658350     0.3351760
  C       -0.6961080     0.5074870     0.0337420
  C       -0.3911060    -0.8453020    -0.2363150
  C        0.3345050     1.5654110    -0.0838510
  C        1.9201190     0.2388570     1.0398190
  C       -2.0282860     0.8425430     0.3372020
  C       -1.3555477    -1.8593591     0.0590241
  C        2.0871850    -0.8915250     0.0446260
  C       -0.0584500     2.8482670    -0.7690020
  C       -3.0319510    -0.1194250     0.3623450
  C       -2.7230760    -1.4503270     0.0616580
  H        0.9974690    -2.0891180    -1.1576180
  H        1.1650960    -0.0456930     1.7889680
  H        2.8821530     0.3846540     1.5322680
  H       -2.2754030     1.8777800     0.5574090
  H       -1.1609050    -2.8458310    -0.4446670
  H       -0.7945500     3.4046450    -0.1790500
  H       -0.5037450     2.6486950    -1.7485080
  H        0.8332190     3.4662990    -0.8854880
  H       -4.0517820     0.1644530     0.6082680
  H       -3.5008180    -2.2099170     0.0672390
units angstrom
no_reorient  #important for SAPT in psi4, default
symmetry c1  #important for SAPT in psi4, default
}

set PROPERTIES_ORIGIN ["COM"]
properties('MP2/aug-cc-pvtz', properties = ['dipole'])
--------------------------------------------------------------------------

    Molecular point group: c1
  Charge       = 0
  Multiplicity = 1
  Basis Set: AUG-CC-PVTZ
    Blend: AUG-CC-PVTZ
  Basis Set: (AUG-CC-PVTZ AUX)
    Blend: AUG-CC-PVTZ-JKFIT

    Orbital Energies [Eh]
    ---------------------

    Doubly Occupied:

       1A    -20.532685     2A    -15.605741     3A    -15.568135
       4A    -11.362830     5A    -11.318597     6A    -11.302625
       7A    -11.272446     8A    -11.271004     9A    -11.267086
      10A    -11.266357    11A    -11.264885    12A    -11.254794
      13A    -11.234394    14A     -1.387603    15A     -1.275368
      16A     -1.232862    17A     -1.162587    18A     -1.064106
      19A     -1.031541    20A     -1.011163    21A     -0.951724
      22A     -0.882496    23A     -0.856487    24A     -0.795850
      25A     -0.766717    26A     -0.726766    27A     -0.690495
      28A     -0.676418    29A     -0.656352    30A     -0.648281
      31A     -0.619888    32A     -0.616152    33A     -0.601172
      34A     -0.586894    35A     -0.563650    36A     -0.559247
      37A     -0.543811    38A     -0.536557    39A     -0.529072
      40A     -0.505748    41A     -0.458644    42A     -0.437709
      43A     -0.417369    44A     -0.405487    45A     -0.354183
      46A     -0.337215

  @DF-RHF Final Energy:  -568.43887601533993

   => Energetics <=

    Nuclear Repulsion Energy =            759.9620141815535135
    One-Electron Energy =               -2279.9793979778587527
    Two-Electron Energy =                 951.5785077809653103
    Total Energy =                       -568.4388760153399289
  Basis Set: (AUG-CC-PVTZ AUX)
    Blend: AUG-CC-PVTZ-RI
    Molecular point group: c1

    Geometry (in Angstrom), charge = 0, multiplicity = 1:

       Center              X                  Y                   Z               Mass
    ------------   -----------------  -----------------  -----------------  -----------------
         O            3.107340628811    -1.417970827253    -0.233513927888    15.994914619570
         N            0.865883628811    -1.219896827253    -0.608558927888    14.003074004430
         N            1.514121628811     1.496399172747     0.315967072112    14.003074004430
         C           -0.736522371189     0.538051172747     0.014533072112    12.000000000000
         C           -0.431520371189    -0.814737827253    -0.255523927888    12.000000000000
         C            0.294090628811     1.595975172747    -0.103059927888    12.000000000000
         C            1.879704628811     0.269421172747     1.020610072112    12.000000000000
         C           -2.068700371189     0.873107172747     0.317993072112    12.000000000000
         C           -1.395962071189    -1.828794927253     0.039815172112    12.000000000000
         C            2.046770628811    -0.860960827253     0.025417072112    12.000000000000
         C           -0.098864371189     2.878831172747    -0.788210927888    12.000000000000
         C           -3.072365371189    -0.088860827253     0.343136072112    12.000000000000
         C           -2.763490371189    -1.419762827253     0.042449072112    12.000000000000
         H            0.957054628811    -2.058553827253    -1.176826927888     1.007825032230
         H            1.124681628811    -0.015128827253     1.769759072112     1.007825032230
         H            2.841738628811     0.415218172747     1.513059072112     1.007825032230
         H           -2.315817371189     1.908344172747     0.538200072112     1.007825032230
         H           -1.201319371189    -2.815266827253    -0.463875927888     1.007825032230
         H           -0.834964371189     3.435209172747    -0.198258927888     1.007825032230
         H           -0.544159371189     2.679259172747    -1.767716927888     1.007825032230
         H            0.792804628811     3.496863172747    -0.904696927888     1.007825032230
         H           -4.092196371189     0.195017172747     0.589059072112     1.007825032230
         H           -3.541232371189    -2.179352827253     0.048030072112     1.007825032230

  Basis Set: AUG-CC-PVTZ
    Blend: AUG-CC-PVTZ
  Basis Set: (AUG-CC-PVTZ AUX)
    Blend: AUG-CC-PVTZ-JKFIT
	 Reference Energy          =    -568.4388760153399289 [Eh]
	 Singles Energy            =      -0.0000000000000000 [Eh]
	 Same-Spin Energy          =      -0.6155601338128679 [Eh]
	 Opposite-Spin Energy      =      -1.8909418524224804 [Eh]
	 Correlation Energy        =      -2.5065019862353481 [Eh]
	 Total Energy              =    -570.9453780015752500 [Eh]

	 ================> DF-SCS-MP2 Energies <==================
	-----------------------------------------------------------
	 SCS Same-Spin Scale       =       0.3333333333333333 [-]
	 SCS Opposite-Spin Scale   =       1.2000000000000000 [-]
	 SCS Same-Spin Energy      =      -0.2051867112709559 [Eh]
	 SCS Opposite-Spin Energy  =      -2.2691302229069765 [Eh]
	 SCS Correlation Energy    =      -2.4743169341779323 [Eh]
	 SCS Total Energy          =    -570.9131929495179065 [Eh]
	-----------------------------------------------------------

  Dipole Moment: [D]
     X:    -5.1498      Y:    -0.0166      Z:     0.1189     Total:     5.1512

*** Psi4 exiting successfully. Buy a developer a beer!
