                               Psi4 1.4a2.dev612

  ==> Input File <==

--------------------------------------------------------------------------
#psi4
#
memory 32 gb

molecule  {
0 1
  O        3.1477550    -1.4485350    -0.2143050
  N        0.9062980    -1.2504610    -0.5893500
  N        1.5545360     1.4658350     0.3351760
  C       -0.6961080     0.5074870     0.0337420
  C       -0.3911060    -0.8453020    -0.2363150
  C        0.3345050     1.5654110    -0.0838510
  C        1.9291125     0.2722436     1.0037018
  C       -2.0282860     0.8425430     0.3372020
  C       -1.4126000    -1.8085370    -0.2310830
  C        2.0871850    -0.8915250     0.0446260
  C       -0.0584500     2.8482670    -0.7690020
  C       -3.0319510    -0.1194250     0.3623450
  C       -2.7230760    -1.4503270     0.0616580
  H        0.9974690    -2.0891180    -1.1576180
  H        1.1650960    -0.0456930     1.7889680
  H        2.8821530     0.3846540     1.5322680
  H       -2.2754030     1.8777800     0.5574090
  H       -1.1609050    -2.8458310    -0.4446670
  H       -0.7945500     3.4046450    -0.1790500
  H       -0.5037450     2.6486950    -1.7485080
  H        0.8332190     3.4662990    -0.8854880
  H       -4.0517820     0.1644530     0.6082680
  H       -3.5008180    -2.2099170     0.0672390
units angstrom
no_reorient  #important for SAPT in psi4, default
symmetry c1  #important for SAPT in psi4, default
}

set PROPERTIES_ORIGIN ["COM"]
properties('MP2/aug-cc-pvtz', properties = ['dipole'])
--------------------------------------------------------------------------

    Molecular point group: c1
  Charge       = 0
  Multiplicity = 1
  Basis Set: AUG-CC-PVTZ
    Blend: AUG-CC-PVTZ
  Basis Set: (AUG-CC-PVTZ AUX)
    Blend: AUG-CC-PVTZ-JKFIT

    Orbital Energies [Eh]
    ---------------------

    Doubly Occupied:

       1A    -20.532370     2A    -15.607191     3A    -15.565243
       4A    -11.362308     5A    -11.314717     6A    -11.303901
       7A    -11.268560     8A    -11.267160     9A    -11.265951
      10A    -11.265735    11A    -11.258351    12A    -11.253940
      13A    -11.234586    14A     -1.387586    15A     -1.278080
      16A     -1.238883    17A     -1.165106    18A     -1.067875
      19A     -1.035275    20A     -1.011661    21A     -0.949687
      22A     -0.886942    23A     -0.858228    24A     -0.795616
      25A     -0.771226    26A     -0.728853    27A     -0.695775
      28A     -0.673520    29A     -0.657448    30A     -0.649559
      31A     -0.626368    32A     -0.619651    33A     -0.606661
      34A     -0.586615    35A     -0.563860    36A     -0.559161
      37A     -0.545570    38A     -0.537429    39A     -0.528103
      40A     -0.514333    41A     -0.459620    42A     -0.444725
      43A     -0.413622    44A     -0.405192    45A     -0.354993
      46A     -0.332547

  @DF-RHF Final Energy:  -568.46343048753431

   => Energetics <=

    Nuclear Repulsion Energy =            761.2247649257598141
    One-Electron Energy =               -2282.4768246330609145
    Two-Electron Energy =                 952.7886292197669036
    Total Energy =                       -568.4634304875343105
  Basis Set: (AUG-CC-PVTZ AUX)
    Blend: AUG-CC-PVTZ-RI
    Molecular point group: c1

    Geometry (in Angstrom), charge = 0, multiplicity = 1:

       Center              X                  Y                   Z               Mass
    ------------   -----------------  -----------------  -----------------  -----------------
         O            3.110653518724    -1.423775677828    -0.211025950806    15.994914619570
         N            0.869196518724    -1.225701677828    -0.586070950806    14.003074004430
         N            1.517434518724     1.490594322172     0.338455049194    14.003074004430
         C           -0.733209481276     0.532246322172     0.037021049194    12.000000000000
         C           -0.428207481276    -0.820542677828    -0.233035950806    12.000000000000
         C            0.297403518724     1.590170322172    -0.080571950806    12.000000000000
         C            1.892011018724     0.297002922172     1.006980849194    12.000000000000
         C           -2.065387481276     0.867302322172     0.340481049194    12.000000000000
         C           -1.449701481276    -1.783777677828    -0.227803950806    12.000000000000
         C            2.050083518724    -0.866765677828     0.047905049194    12.000000000000
         C           -0.095551481276     2.873026322172    -0.765722950806    12.000000000000
         C           -3.069052481276    -0.094665677828     0.365624049194    12.000000000000
         C           -2.760177481276    -1.425567677828     0.064937049194    12.000000000000
         H            0.960367518724    -2.064358677828    -1.154338950806     1.007825032230
         H            1.127994518724    -0.020933677828     1.792247049194     1.007825032230
         H            2.845051518724     0.409413322172     1.535547049194     1.007825032230
         H           -2.312504481276     1.902539322172     0.560688049194     1.007825032230
         H           -1.198006481276    -2.821071677828    -0.441387950806     1.007825032230
         H           -0.831651481276     3.429404322172    -0.175770950806     1.007825032230
         H           -0.540846481276     2.673454322172    -1.745228950806     1.007825032230
         H            0.796117518724     3.491058322172    -0.882208950806     1.007825032230
         H           -4.088883481276     0.189212322172     0.611547049194     1.007825032230
         H           -3.537919481276    -2.185157677828     0.070518049194     1.007825032230

  Basis Set: AUG-CC-PVTZ
    Blend: AUG-CC-PVTZ
  Basis Set: (AUG-CC-PVTZ AUX)
    Blend: AUG-CC-PVTZ-JKFIT
	 Reference Energy          =    -568.4634304875343105 [Eh]
	 Singles Energy            =      -0.0000000000000000 [Eh]
	 Same-Spin Energy          =      -0.6147703980267003 [Eh]
	 Opposite-Spin Energy      =      -1.8870675488707209 [Eh]
	 Correlation Energy        =      -2.5018379468974210 [Eh]
	 Total Energy              =    -570.9652684344317777 [Eh]

	 ================> DF-SCS-MP2 Energies <==================
	-----------------------------------------------------------
	 SCS Same-Spin Scale       =       0.3333333333333333 [-]
	 SCS Opposite-Spin Scale   =       1.2000000000000000 [-]
	 SCS Same-Spin Energy      =      -0.2049234660089001 [Eh]
	 SCS Opposite-Spin Energy  =      -2.2644810586448649 [Eh]
	 SCS Correlation Energy    =      -2.4694045246537648 [Eh]
	 SCS Total Energy          =    -570.9328350121880931 [Eh]
	-----------------------------------------------------------

  Dipole Moment: [D]
     X:    -5.1169      Y:    -0.2243      Z:     0.1665     Total:     5.1246

*** Psi4 exiting successfully. Buy a developer a beer!
