                               Psi4 1.4a2.dev612

  ==> Input File <==

--------------------------------------------------------------------------
#psi4
#
memory 32 gb

molecule  {
0 1
  O        3.1477550    -1.4485350    -0.2143050
  N        0.9062980    -1.2504610    -0.5893500
  N        1.5545360     1.4658350     0.3351760
  C       -0.6961080     0.5074870     0.0337420
  C       -0.3911060    -0.8453020    -0.2363150
  C        0.3345050     1.5654110    -0.0838510
  C        1.9201190     0.2388570     1.0398190
  C       -2.0282860     0.8425430     0.3372020
  C       -1.4030913    -1.8170073    -0.1827318
  C        2.0871850    -0.8915250     0.0446260
  C       -0.0584500     2.8482670    -0.7690020
  C       -3.0319510    -0.1194250     0.3623450
  C       -2.7230760    -1.4503270     0.0616580
  H        0.9974690    -2.0891180    -1.1576180
  H        1.1650960    -0.0456930     1.7889680
  H        2.8821530     0.3846540     1.5322680
  H       -2.2754030     1.8777800     0.5574090
  H       -1.1609050    -2.8458310    -0.4446670
  H       -0.7945500     3.4046450    -0.1790500
  H       -0.5037450     2.6486950    -1.7485080
  H        0.8332190     3.4662990    -0.8854880
  H       -4.0517820     0.1644530     0.6082680
  H       -3.5008180    -2.2099170     0.0672390
units angstrom
no_reorient  #important for SAPT in psi4, default
symmetry c1  #important for SAPT in psi4, default
}

set PROPERTIES_ORIGIN ["COM"]
properties('MP2/aug-cc-pvtz', properties = ['dipole'])
--------------------------------------------------------------------------

    Molecular point group: c1
  Charge       = 0
  Multiplicity = 1
  Basis Set: AUG-CC-PVTZ
    Blend: AUG-CC-PVTZ
  Basis Set: (AUG-CC-PVTZ AUX)
    Blend: AUG-CC-PVTZ-JKFIT

    Orbital Energies [Eh]
    ---------------------

    Doubly Occupied:

       1A    -20.532191     2A    -15.606630     3A    -15.567232
       4A    -11.362523     5A    -11.314118     6A    -11.302383
       7A    -11.266989     8A    -11.266941     9A    -11.265765
      10A    -11.265606    11A    -11.258459    12A    -11.254001
      13A    -11.234168    14A     -1.387394    15A     -1.275872
      16A     -1.232857    17A     -1.164441    18A     -1.065469
      19A     -1.035121    20A     -1.011172    21A     -0.951654
      22A     -0.885502    23A     -0.857979    24A     -0.795495
      25A     -0.768152    26A     -0.728583    27A     -0.691498
      28A     -0.677574    29A     -0.657891    30A     -0.648457
      31A     -0.625936    32A     -0.618210    33A     -0.604390
      34A     -0.586526    35A     -0.566505    36A     -0.558939
      37A     -0.543746    38A     -0.538765    39A     -0.528308
      40A     -0.514596    41A     -0.457765    42A     -0.443519
      43A     -0.417591    44A     -0.405365    45A     -0.354799
      46A     -0.333111

  @DF-RHF Final Energy:  -568.46491367146700

   => Energetics <=

    Nuclear Repulsion Energy =            760.7551073725584274
    One-Electron Energy =               -2281.5796596824575317
    Two-Electron Energy =                 952.3596386384319885
    Total Energy =                       -568.4649136714670021
  Basis Set: (AUG-CC-PVTZ AUX)
    Blend: AUG-CC-PVTZ-RI
    Molecular point group: c1

    Geometry (in Angstrom), charge = 0, multiplicity = 1:

       Center              X                  Y                   Z               Mass
    ------------   -----------------  -----------------  -----------------  -----------------
         O            3.110618003878    -1.420890310282    -0.216848703567    15.994914619570
         N            0.869161003878    -1.222816310282    -0.591893703567    14.003074004430
         N            1.517399003878     1.493479689718     0.332632296433    14.003074004430
         C           -0.733244996122     0.535131689718     0.031198296433    12.000000000000
         C           -0.428242996122    -0.817657310282    -0.238858703567    12.000000000000
         C            0.297368003878     1.593055689718    -0.086394703567    12.000000000000
         C            1.882982003878     0.266501689718     1.037275296433    12.000000000000
         C           -2.065422996122     0.870187689718     0.334658296433    12.000000000000
         C           -1.440228296122    -1.789362610282    -0.185275503567    12.000000000000
         C            2.050048003878    -0.863880310282     0.042082296433    12.000000000000
         C           -0.095586996122     2.875911689718    -0.771545703567    12.000000000000
         C           -3.069087996122    -0.091780310282     0.359801296433    12.000000000000
         C           -2.760212996122    -1.422682310282     0.059114296433    12.000000000000
         H            0.960332003878    -2.061473310282    -1.160161703567     1.007825032230
         H            1.127959003878    -0.018048310282     1.786424296433     1.007825032230
         H            2.845016003878     0.412298689718     1.529724296433     1.007825032230
         H           -2.312539996122     1.905424689718     0.554865296433     1.007825032230
         H           -1.198041996122    -2.818186310282    -0.447210703567     1.007825032230
         H           -0.831686996122     3.432289689718    -0.181593703567     1.007825032230
         H           -0.540881996122     2.676339689718    -1.751051703567     1.007825032230
         H            0.796082003878     3.493943689718    -0.888031703567     1.007825032230
         H           -4.088918996122     0.192097689718     0.605724296433     1.007825032230
         H           -3.537954996122    -2.182272310282     0.064695296433     1.007825032230

  Basis Set: AUG-CC-PVTZ
    Blend: AUG-CC-PVTZ
  Basis Set: (AUG-CC-PVTZ AUX)
    Blend: AUG-CC-PVTZ-JKFIT
	 Reference Energy          =    -568.4649136714670021 [Eh]
	 Singles Energy            =      -0.0000000000000000 [Eh]
	 Same-Spin Energy          =      -0.6144838976760127 [Eh]
	 Opposite-Spin Energy      =      -1.8872938434151774 [Eh]
	 Correlation Energy        =      -2.5017777410911899 [Eh]
	 Total Energy              =    -570.9666914125582480 [Eh]

	 ================> DF-SCS-MP2 Energies <==================
	-----------------------------------------------------------
	 SCS Same-Spin Scale       =       0.3333333333333333 [-]
	 SCS Opposite-Spin Scale   =       1.2000000000000000 [-]
	 SCS Same-Spin Energy      =      -0.2048279658920042 [Eh]
	 SCS Opposite-Spin Energy  =      -2.2647526120982127 [Eh]
	 SCS Correlation Energy    =      -2.4695805779902171 [Eh]
	 SCS Total Energy          =    -570.9344942494572024 [Eh]
	-----------------------------------------------------------

  Dipole Moment: [D]
     X:    -5.1243      Y:    -0.2300      Z:     0.2056     Total:     5.1335

*** Psi4 exiting successfully. Buy a developer a beer!
