                               Psi4 1.4a2.dev612

  ==> Input File <==

--------------------------------------------------------------------------
#psi4
#
memory 32 gb

molecule  {
0 1
  O        3.1477550    -1.4485350    -0.2143050
  N        0.9062980    -1.2504610    -0.5893500
  N        1.5545360     1.4658350     0.3351760
  C       -0.6961080     0.5074870     0.0337420
  C       -0.3911060    -0.8453020    -0.2363150
  C        0.3345050     1.5654110    -0.0838510
  C        1.9381060     0.3056301     0.9675846
  C       -2.0282860     0.8425430     0.3372020
  C       -1.4126000    -1.8085370    -0.2310830
  C        2.0871850    -0.8915250     0.0446260
  C       -0.0584500     2.8482670    -0.7690020
  C       -3.0319510    -0.1194250     0.3623450
  C       -2.7230760    -1.4503270     0.0616580
  H        0.9974690    -2.0891180    -1.1576180
  H        1.1650960    -0.0456930     1.7889680
  H        2.8821530     0.3846540     1.5322680
  H       -2.2754030     1.8777800     0.5574090
  H       -1.1609050    -2.8458310    -0.4446670
  H       -0.7945500     3.4046450    -0.1790500
  H       -0.5037450     2.6486950    -1.7485080
  H        0.8332190     3.4662990    -0.8854880
  H       -4.0517820     0.1644530     0.6082680
  H       -3.5008180    -2.2099170     0.0672390
units angstrom
no_reorient  #important for SAPT in psi4, default
symmetry c1  #important for SAPT in psi4, default
}

set PROPERTIES_ORIGIN ["COM"]
properties('MP2/aug-cc-pvtz', properties = ['dipole'])
--------------------------------------------------------------------------

    Molecular point group: c1
  Charge       = 0
  Multiplicity = 1
  Basis Set: AUG-CC-PVTZ
    Blend: AUG-CC-PVTZ
  Basis Set: (AUG-CC-PVTZ AUX)
    Blend: AUG-CC-PVTZ-JKFIT

    Orbital Energies [Eh]
    ---------------------

    Doubly Occupied:

       1A    -20.532536     2A    -15.607307     3A    -15.563378
       4A    -11.362306     5A    -11.315085     6A    -11.305693
       7A    -11.270495     8A    -11.267556     9A    -11.266316
      10A    -11.266072    11A    -11.258449    12A    -11.254142
      13A    -11.235091    14A     -1.387705    15A     -1.281203
      16A     -1.245068    17A     -1.165679    18A     -1.070428
      19A     -1.035345    20A     -1.012276    21A     -0.947519
      22A     -0.888419    23A     -0.858413    24A     -0.796664
      25A     -0.774347    26A     -0.728871    27A     -0.700168
      28A     -0.670211    29A     -0.657506    30A     -0.650579
      31A     -0.626610    32A     -0.621205    33A     -0.608641
      34A     -0.586971    35A     -0.561201    36A     -0.559561
      37A     -0.547600    38A     -0.535801    39A     -0.528217
      40A     -0.512690    41A     -0.461752    42A     -0.444890
      43A     -0.409897    44A     -0.402822    45A     -0.354910
      46A     -0.332884

  @DF-RHF Final Energy:  -568.45658809534598

   => Energetics <=

    Nuclear Repulsion Energy =            761.7033434043722764
    One-Electron Energy =               -2283.3789073180023479
    Two-Electron Energy =                 953.2189758182839796
    Total Energy =                       -568.4565880953459782
  Basis Set: (AUG-CC-PVTZ AUX)
    Blend: AUG-CC-PVTZ-RI
    Molecular point group: c1

    Geometry (in Angstrom), charge = 0, multiplicity = 1:

       Center              X                  Y                   Z               Mass
    ------------   -----------------  -----------------  -----------------  -----------------
         O            3.110033559936    -1.426077146011    -0.208536244289    15.994914619570
         N            0.868576559936    -1.228003146011    -0.583581244289    14.003074004430
         N            1.516814559936     1.488292853989     0.340944755711    14.003074004430
         C           -0.733829440064     0.529944853989     0.039510755711    12.000000000000
         C           -0.428827440064    -0.822844146011    -0.230546244289    12.000000000000
         C            0.296783559936     1.587868853989    -0.078082244289    12.000000000000
         C            1.900384559936     0.328087953989     0.973353355711    12.000000000000
         C           -2.066007440064     0.865000853989     0.342970755711    12.000000000000
         C           -1.450321440064    -1.786079146011    -0.225314244289    12.000000000000
         C            2.049463559936    -0.869067146011     0.050394755711    12.000000000000
         C           -0.096171440064     2.870724853989    -0.763233244289    12.000000000000
         C           -3.069672440064    -0.096967146011     0.368113755711    12.000000000000
         C           -2.760797440064    -1.427869146011     0.067426755711    12.000000000000
         H            0.959747559936    -2.066660146011    -1.151849244289     1.007825032230
         H            1.127374559936    -0.023235146011     1.794736755711     1.007825032230
         H            2.844431559936     0.407111853989     1.538036755711     1.007825032230
         H           -2.313124440064     1.900237853989     0.563177755711     1.007825032230
         H           -1.198626440064    -2.823373146011    -0.438898244289     1.007825032230
         H           -0.832271440064     3.427102853989    -0.173281244289     1.007825032230
         H           -0.541466440064     2.671152853989    -1.742739244289     1.007825032230
         H            0.795497559936     3.488756853989    -0.879719244289     1.007825032230
         H           -4.089503440064     0.186910853989     0.614036755711     1.007825032230
         H           -3.538539440064    -2.187459146011     0.073007755711     1.007825032230

  Basis Set: AUG-CC-PVTZ
    Blend: AUG-CC-PVTZ
  Basis Set: (AUG-CC-PVTZ AUX)
    Blend: AUG-CC-PVTZ-JKFIT
	 Reference Energy          =    -568.4565880953459782 [Eh]
	 Singles Energy            =      -0.0000000000000000 [Eh]
	 Same-Spin Energy          =      -0.6152787988384956 [Eh]
	 Opposite-Spin Energy      =      -1.8872872899831461 [Eh]
	 Correlation Energy        =      -2.5025660888216414 [Eh]
	 Total Energy              =    -570.9591541841675735 [Eh]

	 ================> DF-SCS-MP2 Energies <==================
	-----------------------------------------------------------
	 SCS Same-Spin Scale       =       0.3333333333333333 [-]
	 SCS Opposite-Spin Scale   =       1.2000000000000000 [-]
	 SCS Same-Spin Energy      =      -0.2050929329461652 [Eh]
	 SCS Opposite-Spin Energy  =      -2.2647447479797753 [Eh]
	 SCS Correlation Energy    =      -2.4698376809259406 [Eh]
	 SCS Total Energy          =    -570.9264257762719126 [Eh]
	-----------------------------------------------------------

  Dipole Moment: [D]
     X:    -5.1223      Y:    -0.1980      Z:     0.0910     Total:     5.1269

*** Psi4 exiting successfully. Buy a developer a beer!
