                               Psi4 1.4a2.dev612

  ==> Input File <==

--------------------------------------------------------------------------
#psi4
#
memory 32 gb

molecule  {
0 1
  O        3.1477550    -1.4485350    -0.2143050
  N        0.9062980    -1.2504610    -0.5893500
  N        1.5545360     1.4658350     0.3351760
  C       -0.6961080     0.5074870     0.0337420
  C       -0.3911060    -0.8453020    -0.2363150
  C        0.3345050     1.5654110    -0.0838510
  C        1.9201190     0.2388570     1.0398190
  C       -2.0282860     0.8425430     0.3372020
  C       -1.3650564    -1.8508887     0.0106730
  C        2.0871850    -0.8915250     0.0446260
  C       -0.0584500     2.8482670    -0.7690020
  C       -3.0319510    -0.1194250     0.3623450
  C       -2.7230760    -1.4503270     0.0616580
  H        0.9974690    -2.0891180    -1.1576180
  H        1.1650960    -0.0456930     1.7889680
  H        2.8821530     0.3846540     1.5322680
  H       -2.2754030     1.8777800     0.5574090
  H       -1.1609050    -2.8458310    -0.4446670
  H       -0.7945500     3.4046450    -0.1790500
  H       -0.5037450     2.6486950    -1.7485080
  H        0.8332190     3.4662990    -0.8854880
  H       -4.0517820     0.1644530     0.6082680
  H       -3.5008180    -2.2099170     0.0672390
units angstrom
no_reorient  #important for SAPT in psi4, default
symmetry c1  #important for SAPT in psi4, default
}

set PROPERTIES_ORIGIN ["COM"]
properties('MP2/aug-cc-pvtz', properties = ['dipole'])
--------------------------------------------------------------------------

    Molecular point group: c1
  Charge       = 0
  Multiplicity = 1
  Basis Set: AUG-CC-PVTZ
    Blend: AUG-CC-PVTZ
  Basis Set: (AUG-CC-PVTZ AUX)
    Blend: AUG-CC-PVTZ-JKFIT

    Orbital Energies [Eh]
    ---------------------

    Doubly Occupied:

       1A    -20.532472     2A    -15.605739     3A    -15.567941
       4A    -11.362672     5A    -11.316963     6A    -11.302531
       7A    -11.270347     8A    -11.269609     9A    -11.267024
      10A    -11.266324    11A    -11.262947    12A    -11.254670
      13A    -11.234281    14A     -1.387461    15A     -1.275416
      16A     -1.232828    17A     -1.163086    18A     -1.064468
      19A     -1.032711    20A     -1.011128    21A     -0.951675
      22A     -0.883289    23A     -0.856921    24A     -0.795767
      25A     -0.767136    26A     -0.727116    27A     -0.690722
      28A     -0.676639    29A     -0.657139    30A     -0.648377
      31A     -0.620945    32A     -0.617231    33A     -0.602214
      34A     -0.586814    35A     -0.564181    36A     -0.559354
      37A     -0.543931    38A     -0.537196    39A     -0.529083
      40A     -0.508231    41A     -0.458432    42A     -0.438914
      43A     -0.417459    44A     -0.405415    45A     -0.354215
      46A     -0.336443

  @DF-RHF Final Energy:  -568.44721968539852

   => Energetics <=

    Nuclear Repulsion Energy =            760.2304222113363039
    One-Electron Energy =               -2280.5243657123187404
    Two-Electron Energy =                 951.8467238155840278
    Total Energy =                       -568.4472196853985224
  Basis Set: (AUG-CC-PVTZ AUX)
    Blend: AUG-CC-PVTZ-RI
    Molecular point group: c1

    Geometry (in Angstrom), charge = 0, multiplicity = 1:

       Center              X                  Y                   Z               Mass
    ------------   -----------------  -----------------  -----------------  -----------------
         O            3.107996102446    -1.418554726616    -0.230180888538    15.994914619570
         N            0.866539102446    -1.220480726616    -0.605225888538    14.003074004430
         N            1.514777102446     1.495815273384     0.319300111462    14.003074004430
         C           -0.735866897554     0.537467273384     0.017866111462    12.000000000000
         C           -0.430864897554    -0.815321726616    -0.252190888538    12.000000000000
         C            0.294746102446     1.595391273384    -0.099726888538    12.000000000000
         C            1.880360102446     0.268837273384     1.023943111462    12.000000000000
         C           -2.068044897554     0.872523273384     0.321326111462    12.000000000000
         C           -1.404815297554    -1.820908426616    -0.005202888538    12.000000000000
         C            2.047426102446    -0.861544726616     0.028750111462    12.000000000000
         C           -0.098208897554     2.878247273384    -0.784877888538    12.000000000000
         C           -3.071709897554    -0.089444726616     0.346469111462    12.000000000000
         C           -2.762834897554    -1.420346726616     0.045782111462    12.000000000000
         H            0.957710102446    -2.059137726616    -1.173493888538     1.007825032230
         H            1.125337102446    -0.015712726616     1.773092111462     1.007825032230
         H            2.842394102446     0.414634273384     1.516392111462     1.007825032230
         H           -2.315161897554     1.907760273384     0.541533111462     1.007825032230
         H           -1.200663897554    -2.815850726616    -0.460542888538     1.007825032230
         H           -0.834308897554     3.434625273384    -0.194925888538     1.007825032230
         H           -0.543503897554     2.678675273384    -1.764383888538     1.007825032230
         H            0.793460102446     3.496279273384    -0.901363888538     1.007825032230
         H           -4.091540897554     0.194433273384     0.592392111462     1.007825032230
         H           -3.540576897554    -2.179936726616     0.051363111462     1.007825032230

  Basis Set: AUG-CC-PVTZ
    Blend: AUG-CC-PVTZ
  Basis Set: (AUG-CC-PVTZ AUX)
    Blend: AUG-CC-PVTZ-JKFIT
	 Reference Energy          =    -568.4472196853985224 [Eh]
	 Singles Energy            =      -0.0000000000000000 [Eh]
	 Same-Spin Energy          =      -0.6152227842117806 [Eh]
	 Opposite-Spin Energy      =      -1.8897954893621045 [Eh]
	 Correlation Energy        =      -2.5050182735738851 [Eh]
	 Total Energy              =    -570.9522379589724324 [Eh]

	 ================> DF-SCS-MP2 Energies <==================
	-----------------------------------------------------------
	 SCS Same-Spin Scale       =       0.3333333333333333 [-]
	 SCS Opposite-Spin Scale   =       1.2000000000000000 [-]
	 SCS Same-Spin Energy      =      -0.2050742614039268 [Eh]
	 SCS Opposite-Spin Energy  =      -2.2677545872345255 [Eh]
	 SCS Correlation Energy    =      -2.4728288486384522 [Eh]
	 SCS Total Energy          =    -570.9200485340369369 [Eh]
	-----------------------------------------------------------

  Dipole Moment: [D]
     X:    -5.1486      Y:    -0.0789      Z:     0.1341     Total:     5.1509

*** Psi4 exiting successfully. Buy a developer a beer!
