                               Psi4 1.4a2.dev612

  ==> Input File <==

--------------------------------------------------------------------------
#psi4
#
memory 32 gb

molecule  {
0 1
  O        3.1477550    -1.4485350    -0.2143050
  N        0.9062980    -1.2504610    -0.5893500
  N        1.5545360     1.4658350     0.3351760
  C       -0.6961080     0.5074870     0.0337420
  C       -0.3911060    -0.8453020    -0.2363150
  C        0.3345050     1.5654110    -0.0838510
  C        1.9201190     0.2388570     1.0398190
  C       -2.0282860     0.8425430     0.3372020
  C       -1.4126000    -1.8085370    -0.2310830
  C        2.0871850    -0.8915250     0.0446260
  C       -0.0165357     2.7914614    -0.9013512
  C       -3.0319510    -0.1194250     0.3623450
  C       -2.7230760    -1.4503270     0.0616580
  H        0.9974690    -2.0891180    -1.1576180
  H        1.1650960    -0.0456930     1.7889680
  H        2.8821530     0.3846540     1.5322680
  H       -2.2754030     1.8777800     0.5574090
  H       -1.1609050    -2.8458310    -0.4446670
  H       -0.7945500     3.4046450    -0.1790500
  H       -0.5037450     2.6486950    -1.7485080
  H        0.8332190     3.4662990    -0.8854880
  H       -4.0517820     0.1644530     0.6082680
  H       -3.5008180    -2.2099170     0.0672390
units angstrom
no_reorient  #important for SAPT in psi4, default
symmetry c1  #important for SAPT in psi4, default
}

set PROPERTIES_ORIGIN ["COM"]
properties('MP2/aug-cc-pvtz', properties = ['dipole'])
--------------------------------------------------------------------------

    Molecular point group: c1
  Charge       = 0
  Multiplicity = 1
  Basis Set: AUG-CC-PVTZ
    Blend: AUG-CC-PVTZ
  Basis Set: (AUG-CC-PVTZ AUX)
    Blend: AUG-CC-PVTZ-JKFIT

    Orbital Energies [Eh]
    ---------------------

    Doubly Occupied:

       1A    -20.532638     2A    -15.607229     3A    -15.566930
       4A    -11.363001     5A    -11.314567     6A    -11.304461
       7A    -11.267264     8A    -11.266874     9A    -11.265525
      10A    -11.265270    11A    -11.258296    12A    -11.253503
      13A    -11.238455    14A     -1.387797    15A     -1.276240
      16A     -1.232997    17A     -1.164480    18A     -1.065506
      19A     -1.035233    20A     -1.011522    21A     -0.953455
      22A     -0.886069    23A     -0.858307    24A     -0.795589
      25A     -0.769211    26A     -0.728804    27A     -0.695059
      28A     -0.678035    29A     -0.657933    30A     -0.648750
      31A     -0.627449    32A     -0.625104    33A     -0.604965
      34A     -0.594583    35A     -0.566922    36A     -0.554486
      37A     -0.539541    38A     -0.532357    39A     -0.527915
      40A     -0.514753    41A     -0.455299    42A     -0.444527
      43A     -0.412362    44A     -0.406392    45A     -0.355390
      46A     -0.332364

  @DF-RHF Final Energy:  -568.44370141414572

   => Energetics <=

    Nuclear Repulsion Energy =            760.7352861467024923
    One-Electron Energy =               -2281.4711554144691945
    Two-Electron Energy =                 952.2921678536209811
    Total Energy =                       -568.4437014141457212
  Basis Set: (AUG-CC-PVTZ AUX)
    Blend: AUG-CC-PVTZ-RI
    Molecular point group: c1

    Geometry (in Angstrom), charge = 0, multiplicity = 1:

       Center              X                  Y                   Z               Mass
    ------------   -----------------  -----------------  -----------------  -----------------
         O            3.108384153150    -1.417558360092    -0.204392284919    15.994914619570
         N            0.866927153150    -1.219484360092    -0.579437284919    14.003074004430
         N            1.515165153150     1.496811639908     0.345088715081    14.003074004430
         C           -0.735478846850     0.538463639908     0.043654715081    12.000000000000
         C           -0.430476846850    -0.814325360092    -0.226402284919    12.000000000000
         C            0.295134153150     1.596387639908    -0.073938284919    12.000000000000
         C            1.880748153150     0.269833639908     1.049731715081    12.000000000000
         C           -2.067656846850     0.873519639908     0.347114715081    12.000000000000
         C           -1.451970846850    -1.777560360092    -0.221170284919    12.000000000000
         C            2.047814153150    -0.860548360092     0.054538715081    12.000000000000
         C           -0.055906546850     2.822438039908    -0.891438484919    12.000000000000
         C           -3.071321846850    -0.088448360092     0.372257715081    12.000000000000
         C           -2.762446846850    -1.419350360092     0.071570715081    12.000000000000
         H            0.958098153150    -2.058141360092    -1.147705284919     1.007825032230
         H            1.125725153150    -0.014716360092     1.798880715081     1.007825032230
         H            2.842782153150     0.415630639908     1.542180715081     1.007825032230
         H           -2.314773846850     1.908756639908     0.567321715081     1.007825032230
         H           -1.200275846850    -2.814854360092    -0.434754284919     1.007825032230
         H           -0.833920846850     3.435621639908    -0.169137284919     1.007825032230
         H           -0.543115846850     2.679671639908    -1.738595284919     1.007825032230
         H            0.793848153150     3.497275639908    -0.875575284919     1.007825032230
         H           -4.091152846850     0.195429639908     0.618180715081     1.007825032230
         H           -3.540188846850    -2.178940360092     0.077151715081     1.007825032230

  Basis Set: AUG-CC-PVTZ
    Blend: AUG-CC-PVTZ
  Basis Set: (AUG-CC-PVTZ AUX)
    Blend: AUG-CC-PVTZ-JKFIT
	 Reference Energy          =    -568.4437014141457212 [Eh]
	 Singles Energy            =      -0.0000000000000000 [Eh]
	 Same-Spin Energy          =      -0.6147567678429289 [Eh]
	 Opposite-Spin Energy      =      -1.8881541925777441 [Eh]
	 Correlation Energy        =      -2.5029109604206727 [Eh]
	 Total Energy              =    -570.9466123745663708 [Eh]

	 ================> DF-SCS-MP2 Energies <==================
	-----------------------------------------------------------
	 SCS Same-Spin Scale       =       0.3333333333333333 [-]
	 SCS Opposite-Spin Scale   =       1.2000000000000000 [-]
	 SCS Same-Spin Energy      =      -0.2049189226143096 [Eh]
	 SCS Opposite-Spin Energy  =      -2.2657850310932930 [Eh]
	 SCS Correlation Energy    =      -2.4707039537076025 [Eh]
	 SCS Total Energy          =    -570.9144053678533055 [Eh]
	-----------------------------------------------------------

  Dipole Moment: [D]
     X:    -5.0906      Y:    -0.2610      Z:     0.1722     Total:     5.1002

*** Psi4 exiting successfully. Buy a developer a beer!
