                               Psi4 1.4a2.dev612

  ==> Input File <==

--------------------------------------------------------------------------
#psi4
#
memory 32 gb

molecule  {
0 1
  O        3.1477550    -1.4485350    -0.2143050
  N        0.9062980    -1.2504610    -0.5893500
  N        1.5545360     1.4658350     0.3351760
  C       -0.6961080     0.5074870     0.0337420
  C       -0.3911060    -0.8453020    -0.2363150
  C        0.3345050     1.5654110    -0.0838510
  C        1.9201190     0.2388570     1.0398190
  C       -2.0282860     0.8425430     0.3372020
  C       -1.3840739    -1.8339480    -0.0860294
  C        2.0871850    -0.8915250     0.0446260
  C       -0.0584500     2.8482670    -0.7690020
  C       -3.0319510    -0.1194250     0.3623450
  C       -2.7230760    -1.4503270     0.0616580
  H        0.9974690    -2.0891180    -1.1576180
  H        1.1650960    -0.0456930     1.7889680
  H        2.8821530     0.3846540     1.5322680
  H       -2.2754030     1.8777800     0.5574090
  H       -1.1609050    -2.8458310    -0.4446670
  H       -0.7945500     3.4046450    -0.1790500
  H       -0.5037450     2.6486950    -1.7485080
  H        0.8332190     3.4662990    -0.8854880
  H       -4.0517820     0.1644530     0.6082680
  H       -3.5008180    -2.2099170     0.0672390
units angstrom
no_reorient  #important for SAPT in psi4, default
symmetry c1  #important for SAPT in psi4, default
}

set PROPERTIES_ORIGIN ["COM"]
properties('MP2/aug-cc-pvtz', properties = ['dipole'])
--------------------------------------------------------------------------

    Molecular point group: c1
  Charge       = 0
  Multiplicity = 1
  Basis Set: AUG-CC-PVTZ
    Blend: AUG-CC-PVTZ
  Basis Set: (AUG-CC-PVTZ AUX)
    Blend: AUG-CC-PVTZ-JKFIT

    Orbital Energies [Eh]
    ---------------------

    Doubly Occupied:

       1A    -20.532217     2A    -15.606013     3A    -15.567580
       4A    -11.362503     5A    -11.314757     6A    -11.302416
       7A    -11.267714     8A    -11.267188     9A    -11.266965
      10A    -11.266128    11A    -11.259995    12A    -11.254385
      13A    -11.234162    14A     -1.387327    15A     -1.275598
      16A     -1.232818    17A     -1.163923    18A     -1.065085
      19A     -1.034334    20A     -1.011124    21A     -0.951632
      22A     -0.884639    23A     -0.857585    24A     -0.795629
      25A     -0.767840    26A     -0.727883    27A     -0.691208
      28A     -0.677117    29A     -0.658031    30A     -0.648475
      31A     -0.623999    32A     -0.617946    33A     -0.603561
      34A     -0.586654    35A     -0.565432    36A     -0.559200
      37A     -0.543950    38A     -0.538141    39A     -0.528874
      40A     -0.512047    41A     -0.458064    42A     -0.441276
      43A     -0.417564    44A     -0.405349    45A     -0.354465
      46A     -0.334818

  @DF-RHF Final Energy:  -568.45914239961041

   => Energetics <=

    Nuclear Repulsion Energy =            760.6063793686776080
    One-Electron Energy =               -2281.2838208184448376
    Two-Electron Energy =                 952.2182990501568156
    Total Energy =                       -568.4591423996104140
  Basis Set: (AUG-CC-PVTZ AUX)
    Blend: AUG-CC-PVTZ-RI
    Molecular point group: c1

    Geometry (in Angstrom), charge = 0, multiplicity = 1:

       Center              X                  Y                   Z               Mass
    ------------   -----------------  -----------------  -----------------  -----------------
         O            3.109307056609    -1.419722518449    -0.223514796053    15.994914619570
         N            0.867850056609    -1.221648518449    -0.598559796053    14.003074004430
         N            1.516088056609     1.494647481551     0.325966203947    14.003074004430
         C           -0.734555943391     0.536299481551     0.024532203947    12.000000000000
         C           -0.429553943391    -0.816489518449    -0.245524796053    12.000000000000
         C            0.296057056609     1.594223481551    -0.093060796053    12.000000000000
         C            1.881671056609     0.267669481551     1.030609203947    12.000000000000
         C           -2.066733943391     0.871355481551     0.327992203947    12.000000000000
         C           -1.422521843391    -1.805135518449    -0.095239196053    12.000000000000
         C            2.048737056609    -0.862712518449     0.035416203947    12.000000000000
         C           -0.096897943391     2.877079481551    -0.778211796053    12.000000000000
         C           -3.070398943391    -0.090612518449     0.353135203947    12.000000000000
         C           -2.761523943391    -1.421514518449     0.052448203947    12.000000000000
         H            0.959021056609    -2.060305518449    -1.166827796053     1.007825032230
         H            1.126648056609    -0.016880518449     1.779758203947     1.007825032230
         H            2.843705056609     0.413466481551     1.523058203947     1.007825032230
         H           -2.313850943391     1.906592481551     0.548199203947     1.007825032230
         H           -1.199352943391    -2.817018518449    -0.453876796053     1.007825032230
         H           -0.832997943391     3.433457481551    -0.188259796053     1.007825032230
         H           -0.542192943391     2.677507481551    -1.757717796053     1.007825032230
         H            0.794771056609     3.495111481551    -0.894697796053     1.007825032230
         H           -4.090229943391     0.193265481551     0.599058203947     1.007825032230
         H           -3.539265943391    -2.181104518449     0.058029203947     1.007825032230

  Basis Set: AUG-CC-PVTZ
    Blend: AUG-CC-PVTZ
  Basis Set: (AUG-CC-PVTZ AUX)
    Blend: AUG-CC-PVTZ-JKFIT
	 Reference Energy          =    -568.4591423996104140 [Eh]
	 Singles Energy            =      -0.0000000000000000 [Eh]
	 Same-Spin Energy          =      -0.6147237946220214 [Eh]
	 Opposite-Spin Energy      =      -1.8881078058156442 [Eh]
	 Correlation Energy        =      -2.5028316004376654 [Eh]
	 Total Energy              =    -570.9619740000480306 [Eh]

	 ================> DF-SCS-MP2 Energies <==================
	-----------------------------------------------------------
	 SCS Same-Spin Scale       =       0.3333333333333333 [-]
	 SCS Opposite-Spin Scale   =       1.2000000000000000 [-]
	 SCS Same-Spin Energy      =      -0.2049079315406738 [Eh]
	 SCS Opposite-Spin Energy  =      -2.2657293669787730 [Eh]
	 SCS Correlation Energy    =      -2.4706372985194469 [Eh]
	 SCS Total Energy          =    -570.9297796981298916 [Eh]
	-----------------------------------------------------------

  Dipole Moment: [D]
     X:    -5.1399      Y:    -0.1746      Z:     0.1674     Total:     5.1456

*** Psi4 exiting successfully. Buy a developer a beer!
