                               Psi4 1.4a2.dev612

  ==> Input File <==

--------------------------------------------------------------------------
#psi4
#
memory 32 gb

molecule  {
0 1
  O        3.1477550    -1.4485350    -0.2143050
  N        0.9062980    -1.2504610    -0.5893500
  N        1.5545360     1.4658350     0.3351760
  C       -0.6961080     0.5074870     0.0337420
  C       -0.3911060    -0.8453020    -0.2363150
  C        0.3345050     1.5654110    -0.0838510
  C        1.9560931     0.3724033     0.8953501
  C       -2.0282860     0.8425430     0.3372020
  C       -1.4126000    -1.8085370    -0.2310830
  C        2.0871850    -0.8915250     0.0446260
  C       -0.0584500     2.8482670    -0.7690020
  C       -3.0319510    -0.1194250     0.3623450
  C       -2.7230760    -1.4503270     0.0616580
  H        0.9974690    -2.0891180    -1.1576180
  H        1.1650960    -0.0456930     1.7889680
  H        2.8821530     0.3846540     1.5322680
  H       -2.2754030     1.8777800     0.5574090
  H       -1.1609050    -2.8458310    -0.4446670
  H       -0.7945500     3.4046450    -0.1790500
  H       -0.5037450     2.6486950    -1.7485080
  H        0.8332190     3.4662990    -0.8854880
  H       -4.0517820     0.1644530     0.6082680
  H       -3.5008180    -2.2099170     0.0672390
units angstrom
no_reorient  #important for SAPT in psi4, default
symmetry c1  #important for SAPT in psi4, default
}

set PROPERTIES_ORIGIN ["COM"]
properties('MP2/aug-cc-pvtz', properties = ['dipole'])
--------------------------------------------------------------------------

    Molecular point group: c1
  Charge       = 0
  Multiplicity = 1
  Basis Set: AUG-CC-PVTZ
    Blend: AUG-CC-PVTZ
  Basis Set: (AUG-CC-PVTZ AUX)
    Blend: AUG-CC-PVTZ-JKFIT

    Orbital Energies [Eh]
    ---------------------

    Doubly Occupied:

       1A    -20.533038     2A    -15.607476     3A    -15.559791
       4A    -11.363125     5A    -11.316086     6A    -11.310332
       7A    -11.275368     8A    -11.268630     9A    -11.267289
      10A    -11.266985    11A    -11.258707    12A    -11.254653
      13A    -11.236618    14A     -1.388067    15A     -1.293463
      16A     -1.255724    17A     -1.166931    18A     -1.076294
      19A     -1.035623    20A     -1.014041    21A     -0.942655
      22A     -0.892271    23A     -0.858908    24A     -0.802745
      25A     -0.778837    26A     -0.728864    27A     -0.708172
      28A     -0.666251    29A     -0.658102    30A     -0.652069
      31A     -0.627550    32A     -0.625368    33A     -0.612476
      34A     -0.588186    35A     -0.560678    36A     -0.557641
      37A     -0.551011    38A     -0.534150    39A     -0.528342
      40A     -0.508589    41A     -0.466345    42A     -0.445264
      43A     -0.405170    44A     -0.389712    45A     -0.353870
      46A     -0.333652

  @DF-RHF Final Energy:  -568.42796182746270

   => Energetics <=

    Nuclear Repulsion Energy =            762.6516156150556753
    One-Electron Energy =               -2285.1089171120952415
    Two-Electron Energy =                 954.0293396695769843
    Total Energy =                       -568.4279618274626955
  Basis Set: (AUG-CC-PVTZ AUX)
    Blend: AUG-CC-PVTZ-RI
    Molecular point group: c1

    Geometry (in Angstrom), charge = 0, multiplicity = 1:

       Center              X                  Y                   Z               Mass
    ------------   -----------------  -----------------  -----------------  -----------------
         O            3.108793635465    -1.430680096163    -0.203556824361    15.994914619570
         N            0.867336635465    -1.232606096163    -0.578601824361    14.003074004430
         N            1.515574635465     1.483689903837     0.345924175639    14.003074004430
         C           -0.735069364535     0.525341903837     0.044490175639    12.000000000000
         C           -0.430067364535    -0.827447096163    -0.225566824361    12.000000000000
         C            0.295543635465     1.583265903837    -0.073102824361    12.000000000000
         C            1.917131735465     0.390258203837     0.906098275639    12.000000000000
         C           -2.067247364535     0.860397903837     0.347950175639    12.000000000000
         C           -1.451561364535    -1.790682096163    -0.220334824361    12.000000000000
         C            2.048223635465    -0.873670096163     0.055374175639    12.000000000000
         C           -0.097411364535     2.866121903837    -0.758253824361    12.000000000000
         C           -3.070912364535    -0.101570096163     0.373093175639    12.000000000000
         C           -2.762037364535    -1.432472096163     0.072406175639    12.000000000000
         H            0.958507635465    -2.071263096163    -1.146869824361     1.007825032230
         H            1.126134635465    -0.027838096163     1.799716175639     1.007825032230
         H            2.843191635465     0.402508903837     1.543016175639     1.007825032230
         H           -2.314364364535     1.895634903837     0.568157175639     1.007825032230
         H           -1.199866364535    -2.827976096163    -0.433918824361     1.007825032230
         H           -0.833511364535     3.422499903837    -0.168301824361     1.007825032230
         H           -0.542706364535     2.666549903837    -1.737759824361     1.007825032230
         H            0.794257635465     3.484153903837    -0.874739824361     1.007825032230
         H           -4.090743364535     0.182307903837     0.619016175639     1.007825032230
         H           -3.539779364535    -2.192062096163     0.077987175639     1.007825032230

  Basis Set: AUG-CC-PVTZ
    Blend: AUG-CC-PVTZ
  Basis Set: (AUG-CC-PVTZ AUX)
    Blend: AUG-CC-PVTZ-JKFIT
	 Reference Energy          =    -568.4279618274626955 [Eh]
	 Singles Energy            =      -0.0000000000000000 [Eh]
	 Same-Spin Energy          =      -0.6169318443968632 [Eh]
	 Opposite-Spin Energy      =      -1.8887237846723570 [Eh]
	 Correlation Energy        =      -2.5056556290692202 [Eh]
	 Total Energy              =    -570.9336174565319197 [Eh]

	 ================> DF-SCS-MP2 Energies <==================
	-----------------------------------------------------------
	 SCS Same-Spin Scale       =       0.3333333333333333 [-]
	 SCS Opposite-Spin Scale   =       1.2000000000000000 [-]
	 SCS Same-Spin Energy      =      -0.2056439481322877 [Eh]
	 SCS Opposite-Spin Energy  =      -2.2664685416068284 [Eh]
	 SCS Correlation Energy    =      -2.4721124897391160 [Eh]
	 SCS Total Energy          =    -570.9000743172017565 [Eh]
	-----------------------------------------------------------

  Dipole Moment: [D]
     X:    -5.1421      Y:    -0.1164      Z:    -0.1091     Total:     5.1446

*** Psi4 exiting successfully. Buy a developer a beer!
