                               Psi4 1.4a2.dev612

  ==> Input File <==

--------------------------------------------------------------------------
#psi4
#
memory 32 gb

molecule  {
0 1
  O        3.1477550    -1.4485350    -0.2143050
  N        0.9062980    -1.2504610    -0.5893500
  N        1.5545360     1.4658350     0.3351760
  C       -0.6961080     0.5074870     0.0337420
  C       -0.3911060    -0.8453020    -0.2363150
  C        0.3345050     1.5654110    -0.0838510
  C        1.9201190     0.2388570     1.0398190
  C       -1.9966435     0.8238215     0.4826264
  C       -1.4126000    -1.8085370    -0.2310830
  C        2.0871850    -0.8915250     0.0446260
  C       -0.0584500     2.8482670    -0.7690020
  C       -3.0319510    -0.1194250     0.3623450
  C       -2.7230760    -1.4503270     0.0616580
  H        0.9974690    -2.0891180    -1.1576180
  H        1.1650960    -0.0456930     1.7889680
  H        2.8821530     0.3846540     1.5322680
  H       -2.2754030     1.8777800     0.5574090
  H       -1.1609050    -2.8458310    -0.4446670
  H       -0.7945500     3.4046450    -0.1790500
  H       -0.5037450     2.6486950    -1.7485080
  H        0.8332190     3.4662990    -0.8854880
  H       -4.0517820     0.1644530     0.6082680
  H       -3.5008180    -2.2099170     0.0672390
units angstrom
no_reorient  #important for SAPT in psi4, default
symmetry c1  #important for SAPT in psi4, default
}

set PROPERTIES_ORIGIN ["COM"]
properties('MP2/aug-cc-pvtz', properties = ['dipole'])
--------------------------------------------------------------------------

    Molecular point group: c1
  Charge       = 0
  Multiplicity = 1
  Basis Set: AUG-CC-PVTZ
    Blend: AUG-CC-PVTZ
  Basis Set: (AUG-CC-PVTZ AUX)
    Blend: AUG-CC-PVTZ-JKFIT

    Orbital Energies [Eh]
    ---------------------

    Doubly Occupied:

       1A    -20.532495     2A    -15.606853     3A    -15.568123
       4A    -11.362794     5A    -11.313436     6A    -11.302800
       7A    -11.268699     8A    -11.267509     9A    -11.267262
      10A    -11.264482    11A    -11.259121    12A    -11.256473
      13A    -11.234672    14A     -1.387644    15A     -1.276055
      16A     -1.233329    17A     -1.162901    18A     -1.065283
      19A     -1.033668    20A     -1.011407    21A     -0.951818
      22A     -0.884796    23A     -0.857976    24A     -0.795001
      25A     -0.767553    26A     -0.728340    27A     -0.691655
      28A     -0.677462    29A     -0.656538    30A     -0.647847
      31A     -0.625072    32A     -0.618730    33A     -0.604421
      34A     -0.586603    35A     -0.566606    36A     -0.557734
      37A     -0.543061    38A     -0.538444    39A     -0.529596
      40A     -0.512354    41A     -0.457135    42A     -0.444483
      43A     -0.418668    44A     -0.404453    45A     -0.355911
      46A     -0.330925

  @DF-RHF Final Energy:  -568.45819385703339

   => Energetics <=

    Nuclear Repulsion Energy =            760.4472757697371890
    One-Electron Energy =               -2280.9545656283721655
    Two-Electron Energy =                 952.0490960016015833
    Total Energy =                       -568.4581938570333932
  Basis Set: (AUG-CC-PVTZ AUX)
    Blend: AUG-CC-PVTZ-RI
    Molecular point group: c1

    Geometry (in Angstrom), charge = 0, multiplicity = 1:

       Center              X                  Y                   Z               Mass
    ------------   -----------------  -----------------  -----------------  -----------------
         O            3.109092230393    -1.420183653082    -0.223540356815    15.994914619570
         N            0.867635230393    -1.222109653082    -0.598585356815    14.003074004430
         N            1.515873230393     1.494186346918     0.325940643185    14.003074004430
         C           -0.734770769607     0.535838346918     0.024506643185    12.000000000000
         C           -0.429768769607    -0.816950653082    -0.245550356815    12.000000000000
         C            0.295842230393     1.593762346918    -0.093086356815    12.000000000000
         C            1.881456230393     0.267208346918     1.030583643185    12.000000000000
         C           -2.035306269607     0.852172846918     0.473391043185    12.000000000000
         C           -1.451262769607    -1.780185653082    -0.240318356815    12.000000000000
         C            2.048522230393    -0.863173653082     0.035390643185    12.000000000000
         C           -0.097112769607     2.876618346918    -0.778237356815    12.000000000000
         C           -3.070613769607    -0.091073653082     0.353109643185    12.000000000000
         C           -2.761738769607    -1.421975653082     0.052422643185    12.000000000000
         H            0.958806230393    -2.060766653082    -1.166853356815     1.007825032230
         H            1.126433230393    -0.017341653082     1.779732643185     1.007825032230
         H            2.843490230393     0.413005346918     1.523032643185     1.007825032230
         H           -2.314065769607     1.906131346918     0.548173643185     1.007825032230
         H           -1.199567769607    -2.817479653082    -0.453902356815     1.007825032230
         H           -0.833212769607     3.432996346918    -0.188285356815     1.007825032230
         H           -0.542407769607     2.677046346918    -1.757743356815     1.007825032230
         H            0.794556230393     3.494650346918    -0.894723356815     1.007825032230
         H           -4.090444769607     0.192804346918     0.599032643185     1.007825032230
         H           -3.539480769607    -2.181565653082     0.058003643185     1.007825032230

  Basis Set: AUG-CC-PVTZ
    Blend: AUG-CC-PVTZ
  Basis Set: (AUG-CC-PVTZ AUX)
    Blend: AUG-CC-PVTZ-JKFIT
	 Reference Energy          =    -568.4581938570333932 [Eh]
	 Singles Energy            =      -0.0000000000000000 [Eh]
	 Same-Spin Energy          =      -0.6147932946792829 [Eh]
	 Opposite-Spin Energy      =      -1.8882449969111512 [Eh]
	 Correlation Energy        =      -2.5030382915904341 [Eh]
	 Total Energy              =    -570.9612321486238216 [Eh]

	 ================> DF-SCS-MP2 Energies <==================
	-----------------------------------------------------------
	 SCS Same-Spin Scale       =       0.3333333333333333 [-]
	 SCS Opposite-Spin Scale   =       1.2000000000000000 [-]
	 SCS Same-Spin Energy      =      -0.2049310982264276 [Eh]
	 SCS Opposite-Spin Energy  =      -2.2658939962933813 [Eh]
	 SCS Correlation Energy    =      -2.4708250945198089 [Eh]
	 SCS Total Energy          =    -570.9290189515531893 [Eh]
	-----------------------------------------------------------

  Dipole Moment: [D]
     X:    -5.0746      Y:    -0.2355      Z:     0.1329     Total:     5.0818

*** Psi4 exiting successfully. Buy a developer a beer!
