                               Psi4 1.4a2.dev612

  ==> Input File <==

--------------------------------------------------------------------------
#psi4
#
memory 32 gb

molecule  {
0 1
  O        3.1477550    -1.4485350    -0.2143050
  N        0.9062980    -1.2504610    -0.5893500
  N        1.5545360     1.4658350     0.3351760
  C       -0.6961080     0.5074870     0.0337420
  C       -0.3911060    -0.8453020    -0.2363150
  C        0.3345050     1.5654110    -0.0838510
  C        1.9201190     0.2388570     1.0398190
  C       -1.9650011     0.8051000     0.6280508
  C       -1.4126000    -1.8085370    -0.2310830
  C        2.0871850    -0.8915250     0.0446260
  C       -0.0584500     2.8482670    -0.7690020
  C       -3.0319510    -0.1194250     0.3623450
  C       -2.7230760    -1.4503270     0.0616580
  H        0.9974690    -2.0891180    -1.1576180
  H        1.1650960    -0.0456930     1.7889680
  H        2.8821530     0.3846540     1.5322680
  H       -2.2754030     1.8777800     0.5574090
  H       -1.1609050    -2.8458310    -0.4446670
  H       -0.7945500     3.4046450    -0.1790500
  H       -0.5037450     2.6486950    -1.7485080
  H        0.8332190     3.4662990    -0.8854880
  H       -4.0517820     0.1644530     0.6082680
  H       -3.5008180    -2.2099170     0.0672390
units angstrom
no_reorient  #important for SAPT in psi4, default
symmetry c1  #important for SAPT in psi4, default
}

set PROPERTIES_ORIGIN ["COM"]
properties('MP2/aug-cc-pvtz', properties = ['dipole'])
--------------------------------------------------------------------------

    Molecular point group: c1
  Charge       = 0
  Multiplicity = 1
  Basis Set: AUG-CC-PVTZ
    Blend: AUG-CC-PVTZ
  Basis Set: (AUG-CC-PVTZ AUX)
    Blend: AUG-CC-PVTZ-JKFIT

    Orbital Energies [Eh]
    ---------------------

    Doubly Occupied:

       1A    -20.532769     2A    -15.606704     3A    -15.569474
       4A    -11.363048     5A    -11.312176     6A    -11.303243
       7A    -11.273680     8A    -11.272551     9A    -11.267598
      10A    -11.263896    11A    -11.262830    12A    -11.262051
      13A    -11.234974    14A     -1.387853    15A     -1.276172
      16A     -1.233936    17A     -1.159824    18A     -1.064715
      19A     -1.030420    20A     -1.011460    21A     -0.951889
      22A     -0.883046    23A     -0.857010    24A     -0.794192
      25A     -0.766050    26A     -0.726832    27A     -0.692056
      28A     -0.677178    29A     -0.654216    30A     -0.646782
      31A     -0.619961    32A     -0.618589    33A     -0.603113
      34A     -0.586641    35A     -0.566455    36A     -0.555224
      37A     -0.542037    38A     -0.536376    39A     -0.530344
      40A     -0.506655    41A     -0.456528    42A     -0.444013
      43A     -0.419763    44A     -0.403400    45A     -0.356992
      46A     -0.328917

  @DF-RHF Final Energy:  -568.43597468347446

   => Energetics <=

    Nuclear Repulsion Energy =            759.6524047669122410
    One-Electron Energy =               -2279.3494931679915680
    Two-Electron Energy =                 951.2611137176048715
    Total Energy =                       -568.4359746834744556
  Basis Set: (AUG-CC-PVTZ AUX)
    Blend: AUG-CC-PVTZ-RI
    Molecular point group: c1

    Geometry (in Angstrom), charge = 0, multiplicity = 1:

       Center              X                  Y                   Z               Mass
    ------------   -----------------  -----------------  -----------------  -----------------
         O            3.106910990167    -1.418893103411    -0.233565056307    15.994914619570
         N            0.865453990167    -1.220819103411    -0.608610056307    14.003074004430
         N            1.513691990167     1.495476896589     0.315915943693    14.003074004430
         C           -0.736952009833     0.537128896589     0.014481943693    12.000000000000
         C           -0.431950009833    -0.815660103411    -0.255575056307    12.000000000000
         C            0.293660990167     1.595052896589    -0.103111056307    12.000000000000
         C            1.879274990167     0.268498896589     1.020558943693    12.000000000000
         C           -2.005845109833     0.834741896589     0.608790743693    12.000000000000
         C           -1.453444009833    -1.778895103411    -0.250343056307    12.000000000000
         C            2.046340990167    -0.861883103411     0.025365943693    12.000000000000
         C           -0.099294009833     2.877908896589    -0.788262056307    12.000000000000
         C           -3.072795009833    -0.089783103411     0.343084943693    12.000000000000
         C           -2.763920009833    -1.420685103411     0.042397943693    12.000000000000
         H            0.956624990167    -2.059476103411    -1.176878056307     1.007825032230
         H            1.124251990167    -0.016051103411     1.769707943693     1.007825032230
         H            2.841308990167     0.414295896589     1.513007943693     1.007825032230
         H           -2.316247009833     1.907421896589     0.538148943693     1.007825032230
         H           -1.201749009833    -2.816189103411    -0.463927056307     1.007825032230
         H           -0.835394009833     3.434286896589    -0.198310056307     1.007825032230
         H           -0.544589009833     2.678336896589    -1.767768056307     1.007825032230
         H            0.792374990167     3.495940896589    -0.904748056307     1.007825032230
         H           -4.092626009833     0.194094896589     0.589007943693     1.007825032230
         H           -3.541662009833    -2.180275103411     0.047978943693     1.007825032230

  Basis Set: AUG-CC-PVTZ
    Blend: AUG-CC-PVTZ
  Basis Set: (AUG-CC-PVTZ AUX)
    Blend: AUG-CC-PVTZ-JKFIT
	 Reference Energy          =    -568.4359746834744556 [Eh]
	 Singles Energy            =      -0.0000000000000000 [Eh]
	 Same-Spin Energy          =      -0.6159416548260307 [Eh]
	 Opposite-Spin Energy      =      -1.8917580222330985 [Eh]
	 Correlation Energy        =      -2.5076996770591293 [Eh]
	 Total Energy              =    -570.9436743605335778 [Eh]

	 ================> DF-SCS-MP2 Energies <==================
	-----------------------------------------------------------
	 SCS Same-Spin Scale       =       0.3333333333333333 [-]
	 SCS Opposite-Spin Scale   =       1.2000000000000000 [-]
	 SCS Same-Spin Energy      =      -0.2053138849420102 [Eh]
	 SCS Opposite-Spin Energy  =      -2.2701096266797181 [Eh]
	 SCS Correlation Energy    =      -2.4754235116217282 [Eh]
	 SCS Total Energy          =    -570.9113981950962398 [Eh]
	-----------------------------------------------------------

  Dipole Moment: [D]
     X:    -5.0111      Y:    -0.3150      Z:     0.0098     Total:     5.0210

*** Psi4 exiting successfully. Buy a developer a beer!
