                               Psi4 1.4a2.dev612

  ==> Input File <==

--------------------------------------------------------------------------
#psi4
#
memory 32 gb

molecule  {
0 1
  O        3.1477550    -1.4485350    -0.2143050
  N        0.9062980    -1.2504610    -0.5893500
  N        1.5545360     1.4658350     0.3351760
  C       -0.6961080     0.5074870     0.0337420
  C       -0.3911060    -0.8453020    -0.2363150
  C        0.3345050     1.5654110    -0.0838510
  C        1.9201190     0.2388570     1.0398190
  C       -2.0282860     0.8425430     0.3372020
  C       -1.4126000    -1.8085370    -0.2310830
  C        2.0871850    -0.8915250     0.0446260
  C       -0.0305071     2.8103966    -0.8572348
  C       -3.0319510    -0.1194250     0.3623450
  C       -2.7230760    -1.4503270     0.0616580
  H        0.9974690    -2.0891180    -1.1576180
  H        1.1650960    -0.0456930     1.7889680
  H        2.8821530     0.3846540     1.5322680
  H       -2.2754030     1.8777800     0.5574090
  H       -1.1609050    -2.8458310    -0.4446670
  H       -0.7945500     3.4046450    -0.1790500
  H       -0.5037450     2.6486950    -1.7485080
  H        0.8332190     3.4662990    -0.8854880
  H       -4.0517820     0.1644530     0.6082680
  H       -3.5008180    -2.2099170     0.0672390
units angstrom
no_reorient  #important for SAPT in psi4, default
symmetry c1  #important for SAPT in psi4, default
}

set PROPERTIES_ORIGIN ["COM"]
properties('MP2/aug-cc-pvtz', properties = ['dipole'])
--------------------------------------------------------------------------

    Molecular point group: c1
  Charge       = 0
  Multiplicity = 1
  Basis Set: AUG-CC-PVTZ
    Blend: AUG-CC-PVTZ
  Basis Set: (AUG-CC-PVTZ AUX)
    Blend: AUG-CC-PVTZ-JKFIT

    Orbital Energies [Eh]
    ---------------------

    Doubly Occupied:

       1A    -20.532475     2A    -15.607140     3A    -15.566921
       4A    -11.362829     5A    -11.314494     6A    -11.303328
       7A    -11.267092     8A    -11.266793     9A    -11.265598
      10A    -11.265321    11A    -11.258277    12A    -11.253587
      13A    -11.236280    14A     -1.387660    15A     -1.276133
      16A     -1.232906    17A     -1.164490    18A     -1.065490
      19A     -1.035220    20A     -1.011329    21A     -0.952458
      22A     -0.885806    23A     -0.858207    24A     -0.795506
      25A     -0.768614    26A     -0.728718    27A     -0.693161
      28A     -0.677900    29A     -0.657696    30A     -0.648474
      31A     -0.625496    32A     -0.622011    33A     -0.604863
      34A     -0.591972    35A     -0.566880    36A     -0.554170
      37A     -0.541584    38A     -0.536377    39A     -0.529772
      40A     -0.515162    41A     -0.456350    42A     -0.444530
      43A     -0.413532    44A     -0.407061    45A     -0.355268
      46A     -0.332305

  @DF-RHF Final Energy:  -568.45571095847140

   => Energetics <=

    Nuclear Repulsion Energy =            760.7596962581171738
    One-Electron Energy =               -2281.5563435762937843
    Two-Electron Energy =                 952.3409363597052106
    Total Energy =                       -568.4557109584713999
  Basis Set: (AUG-CC-PVTZ AUX)
    Blend: AUG-CC-PVTZ-RI
    Molecular point group: c1

    Geometry (in Angstrom), charge = 0, multiplicity = 1:

       Center              X                  Y                   Z               Mass
    ------------   -----------------  -----------------  -----------------  -----------------
         O            3.109347258973    -1.418863640979    -0.207433409054    15.994914619570
         N            0.867890258973    -1.220789640979    -0.582478409054    14.003074004430
         N            1.516128258973     1.495506359021     0.342047590946    14.003074004430
         C           -0.734515741027     0.537158359021     0.040613590946    12.000000000000
         C           -0.429513741027    -0.815630640979    -0.229443409054    12.000000000000
         C            0.296097258973     1.595082359021    -0.076979409054    12.000000000000
         C            1.881711258973     0.268528359021     1.046690590946    12.000000000000
         C           -2.066693741027     0.872214359021     0.344073590946    12.000000000000
         C           -1.451007741027    -1.778865640979    -0.224211409054    12.000000000000
         C            2.048777258973    -0.861853640979     0.051497590946    12.000000000000
         C           -0.068914841027     2.840067959021    -0.850363209054    12.000000000000
         C           -3.070358741027    -0.089753640979     0.369216590946    12.000000000000
         C           -2.761483741027    -1.420655640979     0.068529590946    12.000000000000
         H            0.959061258973    -2.059446640979    -1.150746409054     1.007825032230
         H            1.126688258973    -0.016021640979     1.795839590946     1.007825032230
         H            2.843745258973     0.414325359021     1.539139590946     1.007825032230
         H           -2.313810741027     1.907451359021     0.564280590946     1.007825032230
         H           -1.199312741027    -2.816159640979    -0.437795409054     1.007825032230
         H           -0.832957741027     3.434316359021    -0.172178409054     1.007825032230
         H           -0.542152741027     2.678366359021    -1.741636409054     1.007825032230
         H            0.794811258973     3.495970359021    -0.878616409054     1.007825032230
         H           -4.090189741027     0.194124359021     0.615139590946     1.007825032230
         H           -3.539225741027    -2.180245640979     0.074110590946     1.007825032230

  Basis Set: AUG-CC-PVTZ
    Blend: AUG-CC-PVTZ
  Basis Set: (AUG-CC-PVTZ AUX)
    Blend: AUG-CC-PVTZ-JKFIT
	 Reference Energy          =    -568.4557109584713999 [Eh]
	 Singles Energy            =      -0.0000000000000000 [Eh]
	 Same-Spin Energy          =      -0.6145943858401192 [Eh]
	 Opposite-Spin Energy      =      -1.8876079078455335 [Eh]
	 Correlation Energy        =      -2.5022022936856527 [Eh]
	 Total Energy              =    -570.9579132521570273 [Eh]

	 ================> DF-SCS-MP2 Energies <==================
	-----------------------------------------------------------
	 SCS Same-Spin Scale       =       0.3333333333333333 [-]
	 SCS Opposite-Spin Scale   =       1.2000000000000000 [-]
	 SCS Same-Spin Energy      =      -0.2048647952800397 [Eh]
	 SCS Opposite-Spin Energy  =      -2.2651294894146399 [Eh]
	 SCS Correlation Energy    =      -2.4699942846946796 [Eh]
	 SCS Total Energy          =    -570.9257052431661350 [Eh]
	-----------------------------------------------------------

  Dipole Moment: [D]
     X:    -5.1031      Y:    -0.2509      Z:     0.1880     Total:     5.1127

*** Psi4 exiting successfully. Buy a developer a beer!
