                               Psi4 1.4a3.dev225

  ==> Input File <==

--------------------------------------------------------------------------
#psi4
#
memory 32 gb

molecule  {
0 1
 Cl       -1.5892520     0.7716130    -0.1188620
 Cl        0.1752270    -1.1932030    -1.2964360
 Cl        0.1483700    -0.8071130     1.5689890
 Cl        1.2656550     1.2287070    -0.1536930
  C       -0.0179509     0.0087046    -0.0013386
units angstrom
no_reorient  #important for SAPT in psi4, default
symmetry c1  #important for SAPT in psi4, default
}

set PROPERTIES_ORIGIN ["COM"]
properties('MP2/aug-cc-pvtz', properties = ['dipole'])
--------------------------------------------------------------------------

    Molecular point group: c1
  Charge       = 0
  Multiplicity = 1
  Basis Set: AUG-CC-PVTZ
    Blend: AUG-CC-PVTZ
  Basis Set: (AUG-CC-PVTZ AUX)
    Blend: AUG-CC-PVTZ-JKFIT

    Orbital Energies [Eh]
    ---------------------

    Doubly Occupied:

       1A   -104.881483     2A   -104.877871     3A   -104.877871
       4A   -104.877868     5A    -11.499970     6A    -10.606152
       7A    -10.602195     8A    -10.602193     9A    -10.602179
      10A     -8.072960    11A     -8.070622    12A     -8.070622
      13A     -8.068943    14A     -8.068942    15A     -8.068940
      16A     -8.066673    17A     -8.066673    18A     -8.066672
      19A     -8.066671    20A     -8.066669    21A     -8.066668
      22A     -1.282226    23A     -1.132354    24A     -1.126040
      25A     -1.126035    26A     -0.834252    27A     -0.660017
      28A     -0.657040    29A     -0.657038    30A     -0.532224
      31A     -0.532224    32A     -0.491737    33A     -0.487796
      34A     -0.487794    35A     -0.461317    36A     -0.461317
      37A     -0.459869

  @DF-RHF Final Energy: -1875.91613298461971

   => Energetics <=

    Nuclear Repulsion Energy =            439.2810167906317247
    One-Electron Energy =               -3467.1180656704204921
    Two-Electron Energy =                1151.9209158951689460
    Total Energy =                      -1875.9161329846197077
  Basis Set: (AUG-CC-PVTZ AUX)
    Blend: AUG-CC-PVTZ-RI
    Molecular point group: c1

    Geometry (in Angstrom), charge = 0, multiplicity = 1:

       Center              X                  Y                   Z               Mass
    ------------   -----------------  -----------------  -----------------  -----------------
         CL          -1.587833661120     0.770924310008    -0.118755773866    34.968852682000
         CL           0.176645338880    -1.193891689992    -1.296329773866    34.968852682000
         CL           0.149788338880    -0.807801689992     1.569095226134    34.968852682000
         CL           1.267073338880     1.228018310008    -0.153586773866    34.968852682000
         C           -0.016532561120     0.008015910008    -0.001232373866    12.000000000000

  Basis Set: AUG-CC-PVTZ
    Blend: AUG-CC-PVTZ
  Basis Set: (AUG-CC-PVTZ AUX)
    Blend: AUG-CC-PVTZ-JKFIT
	 Reference Energy          =   -1875.9161329846197077 [Eh]
	 Singles Energy            =      -0.0000000000000000 [Eh]
	 Same-Spin Energy          =      -0.2942700532860806 [Eh]
	 Opposite-Spin Energy      =      -0.8197631121844948 [Eh]
	 Correlation Energy        =      -1.1140331654705755 [Eh]
	 Total Energy              =   -1877.0301661500902810 [Eh]

	 ================> DF-SCS-MP2 Energies <==================
	-----------------------------------------------------------
	 SCS Same-Spin Scale       =       0.3333333333333333 [-]
	 SCS Opposite-Spin Scale   =       1.2000000000000000 [-]
	 SCS Same-Spin Energy      =      -0.0980900177620269 [Eh]
	 SCS Opposite-Spin Energy  =      -0.9837157346213937 [Eh]
	 SCS Correlation Energy    =      -1.0818057523834206 [Eh]
	 SCS Total Energy          =   -1876.9979387370030963 [Eh]
	-----------------------------------------------------------

  Dipole Moment: [D]
     X:    -0.1039      Y:     0.0503      Z:    -0.0077     Total:     0.1157

*** Psi4 exiting successfully. Buy a developer a beer!
