                               Psi4 1.3.2 release

  ==> Input File <==

--------------------------------------------------------------------------
#psi4
#
memory 32 gb

molecule  {
0 1
 Cl       -0.0096090    -0.3539170     1.7341100
 Cl        1.4530530     0.9257540    -0.4051410
 Cl       -1.4370880     0.9451130    -0.4172060
 Cl       -0.0063540    -1.5169640    -0.9117550
  C       -0.0005505    -0.0199576     0.0979584
units angstrom
no_reorient  #important for SAPT in psi4, default
symmetry c1  #important for SAPT in psi4, default
}

set PROPERTIES_ORIGIN ["COM"]
properties('MP2/aug-cc-pvtz', properties = ['dipole'])
--------------------------------------------------------------------------

    Molecular point group: c1
  Charge       = 0
  Multiplicity = 1
  Basis Set: AUG-CC-PVTZ
    Blend: AUG-CC-PVTZ
  Basis Set: (AUG-CC-PVTZ AUX)
    Blend: AUG-CC-PVTZ-JKFIT

    Orbital Energies [Eh]
    ---------------------

    Doubly Occupied:

       1A   -104.891855     2A   -104.874111     3A   -104.874109
       4A   -104.874102     5A    -11.500379     6A    -10.617982
       7A    -10.598117     8A    -10.598112     9A    -10.598099
      10A     -8.084988    11A     -8.082394    12A     -8.082394
      13A     -8.064810    14A     -8.064807    15A     -8.064801
      16A     -8.062600    17A     -8.062600    18A     -8.062598
      19A     -8.062597    20A     -8.062591    21A     -8.062590
      22A     -1.287664    23A     -1.147298    24A     -1.117533
      25A     -1.117523    26A     -0.835050    27A     -0.669035
      28A     -0.655357    29A     -0.655352    30A     -0.531986
      31A     -0.531985    32A     -0.500294    33A     -0.482771
      34A     -0.482764    35A     -0.461215    36A     -0.461211
      37A     -0.455620

  @DF-RHF Final Energy: -1875.91022773526447

   => Energetics <=

    Nuclear Repulsion Energy =            439.4822312746405828
    One-Electron Energy =               -3467.5063304347322628
    Two-Electron Energy =                1152.1138714248272663
    Total Energy =                      -1875.9102277352644705
  Basis Set: (AUG-CC-PVTZ AUX)
    Blend: AUG-CC-PVTZ-RI
    Molecular point group: c1

    Geometry (in Angstrom), charge = 0, multiplicity = 1:

       Center              X                  Y                   Z               Mass
    ------------   -----------------  -----------------  -----------------  -----------------
         CL          -0.009565964315    -0.352336884017     1.726368255993    34.968852682000
         CL           1.453096035685     0.927334115983    -0.412882744007    34.968852682000
         CL          -1.437044964315     0.946693115983    -0.424947744007    34.968852682000
         CL          -0.006310964315    -1.515383884017    -0.919496744007    34.968852682000
         C           -0.000507464315    -0.018377484017     0.090216655993    12.000000000000

  Basis Set: AUG-CC-PVTZ
    Blend: AUG-CC-PVTZ
  Basis Set: (AUG-CC-PVTZ AUX)
    Blend: AUG-CC-PVTZ-JKFIT
	 Reference Energy          =   -1875.9102277352644705 [Eh]
	 Singles Energy            =      -0.0000000000000000 [Eh]
	 Same-Spin Energy          =      -0.2946651700870109 [Eh]
	 Opposite-Spin Energy      =      -0.8203388407061684 [Eh]
	 Correlation Energy        =      -1.1150040107931793 [Eh]
	 Total Energy              =   -1877.0252317460576705 [Eh]

	 ================> DF-SCS-MP2 Energies <==================
	-----------------------------------------------------------
	 SCS Same-Spin Scale       =       0.3333333333333333 [-]
	 SCS Opposite-Spin Scale   =       1.2000000000000000 [-]
	 SCS Same-Spin Energy      =      -0.0982217233623370 [Eh]
	 SCS Opposite-Spin Energy  =      -0.9844066088474019 [Eh]
	 SCS Correlation Energy    =      -1.0826283322097390 [Eh]
	 SCS Total Energy          =   -1876.9928560674741220 [Eh]
	-----------------------------------------------------------

  Dipole Moment: [D]
     X:    -0.0033      Y:    -0.1198      Z:     0.5879     Total:     0.6000

*** Psi4 exiting successfully. Buy a developer a beer!
