                               Psi4 1.3.2 release

  ==> Input File <==

--------------------------------------------------------------------------
#psi4
#
memory 32 gb

molecule  {
0 1
 Cl       -0.0096090    -0.3539170     1.7341100
 Cl        1.4530530     0.9257540    -0.4051410
 Cl       -1.4370880     0.9451130    -0.4172060
 Cl       -0.0063540    -1.5169640    -0.9117550
  C       -0.0010929    -0.0399563     0.1959367
units angstrom
no_reorient  #important for SAPT in psi4, default
symmetry c1  #important for SAPT in psi4, default
}

set PROPERTIES_ORIGIN ["COM"]
properties('MP2/aug-cc-pvtz', properties = ['dipole'])
--------------------------------------------------------------------------

    Molecular point group: c1
  Charge       = 0
  Multiplicity = 1
  Basis Set: AUG-CC-PVTZ
    Blend: AUG-CC-PVTZ
  Basis Set: (AUG-CC-PVTZ AUX)
    Blend: AUG-CC-PVTZ-JKFIT

    Orbital Energies [Eh]
    ---------------------

    Doubly Occupied:

       1A   -104.905098     2A   -104.868905     3A   -104.868903
       4A   -104.868896     5A    -11.501734     6A    -10.633980
       7A    -10.592517     8A    -10.592513     9A    -10.592499
      10A     -8.101304    11A     -8.098229    12A     -8.098229
      13A     -8.059136    14A     -8.059134    15A     -8.059127
      16A     -8.056998    17A     -8.056996    18A     -8.056994
      19A     -8.056992    20A     -8.056988    21A     -8.056986
      22A     -1.308086    23A     -1.158002    24A     -1.106404
      25A     -1.106396    26A     -0.838076    27A     -0.680101
      28A     -0.658680    29A     -0.658676    30A     -0.530216
      31A     -0.530214    32A     -0.506705    33A     -0.477085
      34A     -0.477078    35A     -0.456991    36A     -0.456987
      37A     -0.449887

  @DF-RHF Final Energy: -1875.88861557190512

   => Energetics <=

    Nuclear Repulsion Energy =            439.5727478941449249
    One-Electron Energy =               -3467.6392427661967304
    Two-Electron Energy =                1152.1778793001467420
    Total Energy =                      -1875.8886155719051203
  Basis Set: (AUG-CC-PVTZ AUX)
    Blend: AUG-CC-PVTZ-RI
    Molecular point group: c1

    Geometry (in Angstrom), charge = 0, multiplicity = 1:

       Center              X                  Y                   Z               Mass
    ------------   -----------------  -----------------  -----------------  -----------------
         CL          -0.009523108135    -0.350756744093     1.718626781620    34.968852682000
         CL           1.453138891865     0.928914255907    -0.420624218380    34.968852682000
         CL          -1.437002108135     0.948273255907    -0.432689218380    34.968852682000
         CL          -0.006268108135    -1.513803744093    -0.927238218380    34.968852682000
         C           -0.001007008135    -0.036796044093     0.180453481620    12.000000000000

  Basis Set: AUG-CC-PVTZ
    Blend: AUG-CC-PVTZ
  Basis Set: (AUG-CC-PVTZ AUX)
    Blend: AUG-CC-PVTZ-JKFIT
	 Reference Energy          =   -1875.8886155719051203 [Eh]
	 Singles Energy            =      -0.0000000000000000 [Eh]
	 Same-Spin Energy          =      -0.2959089902927840 [Eh]
	 Opposite-Spin Energy      =      -0.8223254705659501 [Eh]
	 Correlation Energy        =      -1.1182344608587340 [Eh]
	 Total Energy              =   -1877.0068500327638503 [Eh]

	 ================> DF-SCS-MP2 Energies <==================
	-----------------------------------------------------------
	 SCS Same-Spin Scale       =       0.3333333333333333 [-]
	 SCS Opposite-Spin Scale   =       1.2000000000000000 [-]
	 SCS Same-Spin Energy      =      -0.0986363300975947 [Eh]
	 SCS Opposite-Spin Energy  =      -0.9867905646791401 [Eh]
	 SCS Correlation Energy    =      -1.0854268947767347 [Eh]
	 SCS Total Energy          =   -1876.9740424666817944 [Eh]
	-----------------------------------------------------------

  Dipole Moment: [D]
     X:    -0.0070      Y:    -0.2563      Z:     1.2566     Total:     1.2825

*** Psi4 exiting successfully. Buy a developer a beer!
