                               Psi4 1.3.2 release

  ==> Input File <==

--------------------------------------------------------------------------
#psi4
#
memory 32 gb

molecule  {
0 1
 Cl       -0.0096090    -0.3539170     1.7341100
 Cl        1.4530530     0.9257540    -0.4051410
 Cl       -1.4370880     0.9451130    -0.4172060
 Cl       -0.0063540    -1.5169640    -0.9117550
  C        0.0010769     0.0400383    -0.1959767
units angstrom
no_reorient  #important for SAPT in psi4, default
symmetry c1  #important for SAPT in psi4, default
}

set PROPERTIES_ORIGIN ["COM"]
properties('MP2/aug-cc-pvtz', properties = ['dipole'])
--------------------------------------------------------------------------

    Molecular point group: c1
  Charge       = 0
  Multiplicity = 1
  Basis Set: AUG-CC-PVTZ
    Blend: AUG-CC-PVTZ
  Basis Set: (AUG-CC-PVTZ AUX)
    Blend: AUG-CC-PVTZ-JKFIT

    Orbital Energies [Eh]
    ---------------------

    Doubly Occupied:

       1A   -104.888902     2A   -104.888899     3A   -104.888892
       4A   -104.846790     5A    -11.503889     6A    -10.614009
       7A    -10.614004     8A    -10.613989     9A    -10.570163
      10A     -8.080889    11A     -8.080886    12A     -8.080878
      13A     -8.078441    14A     -8.078438    15A     -8.078430
      16A     -8.078416    17A     -8.078413    18A     -8.078405
      19A     -8.036624    20A     -8.034719    21A     -8.034719
      22A     -1.292555    23A     -1.149433    24A     -1.149418
      25A     -1.083649    26A     -0.837175    27A     -0.673292
      28A     -0.673285    29A     -0.643726    30A     -0.532557
      31A     -0.532554    32A     -0.503991    33A     -0.503984
      34A     -0.471411    35A     -0.454119    36A     -0.448121
      37A     -0.448119

  @DF-RHF Final Energy: -1875.89906510364858

   => Energetics <=

    Nuclear Repulsion Energy =            439.3770008940097114
    One-Electron Energy =               -3467.2597643951025930
    Two-Electron Energy =                1151.9836983974444138
    Total Energy =                      -1875.8990651036485815
  Basis Set: (AUG-CC-PVTZ AUX)
    Blend: AUG-CC-PVTZ-RI
    Molecular point group: c1

    Geometry (in Angstrom), charge = 0, multiplicity = 1:

       Center              X                  Y                   Z               Mass
    ------------   -----------------  -----------------  -----------------  -----------------
         CL          -0.009694548659    -0.357077287987     1.749592694914    34.968852682000
         CL           1.452967451341     0.922593712013    -0.389658305086    34.968852682000
         CL          -1.437173548659     0.941952712013    -0.401723305086    34.968852682000
         CL          -0.006439548659    -1.520124287987    -0.896272305086    34.968852682000
         C            0.000991351341     0.036878012013    -0.180494005086    12.000000000000

  Basis Set: AUG-CC-PVTZ
    Blend: AUG-CC-PVTZ
  Basis Set: (AUG-CC-PVTZ AUX)
    Blend: AUG-CC-PVTZ-JKFIT
	 Reference Energy          =   -1875.8990651036485815 [Eh]
	 Singles Energy            =      -0.0000000000000000 [Eh]
	 Same-Spin Energy          =      -0.2954226054170533 [Eh]
	 Opposite-Spin Energy      =      -0.8214720180981442 [Eh]
	 Correlation Energy        =      -1.1168946235151975 [Eh]
	 Total Energy              =   -1877.0159597271638177 [Eh]

	 ================> DF-SCS-MP2 Energies <==================
	-----------------------------------------------------------
	 SCS Same-Spin Scale       =       0.3333333333333333 [-]
	 SCS Opposite-Spin Scale   =       1.2000000000000000 [-]
	 SCS Same-Spin Energy      =      -0.0984742018056844 [Eh]
	 SCS Opposite-Spin Energy  =      -0.9857664217177730 [Eh]
	 SCS Correlation Energy    =      -1.0842406235234574 [Eh]
	 SCS Total Energy          =   -1876.9833057271721373 [Eh]
	-----------------------------------------------------------

  Dipole Moment: [D]
     X:     0.0061      Y:     0.2255      Z:    -1.1034     Total:     1.1262

*** Psi4 exiting successfully. Buy a developer a beer!
