                               Psi4 1.4a3.dev225

  ==> Input File <==

--------------------------------------------------------------------------
#psi4
#
memory 32 gb

molecule  {
0 1
 Cl       -1.5892520     0.7716130    -0.1188620
 Cl        0.1752270    -1.1932030    -1.2964360
 Cl        0.1483700    -0.8071130     1.5689890
 Cl        1.2656550     1.2287070    -0.1536930
  C        0.0448773    -0.0218001     0.0033605
units angstrom
no_reorient  #important for SAPT in psi4, default
symmetry c1  #important for SAPT in psi4, default
}

set PROPERTIES_ORIGIN ["COM"]
properties('MP2/aug-cc-pvtz', properties = ['dipole'])
--------------------------------------------------------------------------

    Molecular point group: c1
  Charge       = 0
  Multiplicity = 1
  Basis Set: AUG-CC-PVTZ
    Blend: AUG-CC-PVTZ
  Basis Set: (AUG-CC-PVTZ AUX)
    Blend: AUG-CC-PVTZ-JKFIT

    Orbital Energies [Eh]
    ---------------------

    Doubly Occupied:

       1A   -104.881090     2A   -104.881089     3A   -104.881087
       4A   -104.871724     5A    -11.500159     6A    -10.605699
       7A    -10.605697     8A    -10.605683     9A    -10.595605
      10A     -8.072494    11A     -8.072493    12A     -8.072490
      13A     -8.070167    14A     -8.070166    15A     -8.070163
      16A     -8.070163    17A     -8.070162    18A     -8.070160
      19A     -8.062276    20A     -8.060103    21A     -8.060103
      22A     -1.282947    23A     -1.133469    24A     -1.133465
      25A     -1.117264    26A     -0.834410    27A     -0.660891
      28A     -0.660889    29A     -0.653252    30A     -0.532211
      31A     -0.532210    32A     -0.492594    33A     -0.492592
      34A     -0.481812    35A     -0.463440    36A     -0.459115
      37A     -0.459115

  @DF-RHF Final Energy: -1875.91506781852536

   => Energetics <=

    Nuclear Repulsion Energy =            439.2794363498075541
    One-Electron Energy =               -3467.1121132181583562
    Two-Electron Energy =                1151.9176090498256144
    Total Energy =                      -1875.9150678185253582
  Basis Set: (AUG-CC-PVTZ AUX)
    Blend: AUG-CC-PVTZ-RI
    Molecular point group: c1

    Geometry (in Angstrom), charge = 0, multiplicity = 1:

       Center              X                  Y                   Z               Mass
    ------------   -----------------  -----------------  -----------------  -----------------
         CL          -1.592797851151     0.773334551391    -0.119127059776    34.968852682000
         CL           0.171681148849    -1.191481448609    -1.296701059776    34.968852682000
         CL           0.144824148849    -0.805391448609     1.568723940224    34.968852682000
         CL           1.262109148849     1.230428551391    -0.153958059776    34.968852682000
         C            0.041331448849    -0.020078548609     0.003095440224    12.000000000000

  Basis Set: AUG-CC-PVTZ
    Blend: AUG-CC-PVTZ
  Basis Set: (AUG-CC-PVTZ AUX)
    Blend: AUG-CC-PVTZ-JKFIT
	 Reference Energy          =   -1875.9150678185253582 [Eh]
	 Singles Energy            =      -0.0000000000000000 [Eh]
	 Same-Spin Energy          =      -0.2943398997464405 [Eh]
	 Opposite-Spin Energy      =      -0.8198726570481467 [Eh]
	 Correlation Energy        =      -1.1142125567945873 [Eh]
	 Total Energy              =   -1877.0292803753200133 [Eh]

	 ================> DF-SCS-MP2 Energies <==================
	-----------------------------------------------------------
	 SCS Same-Spin Scale       =       0.3333333333333333 [-]
	 SCS Opposite-Spin Scale   =       1.2000000000000000 [-]
	 SCS Same-Spin Energy      =      -0.0981132999154802 [Eh]
	 SCS Opposite-Spin Energy  =      -0.9838471884577760 [Eh]
	 SCS Correlation Energy    =      -1.0819604883732561 [Eh]
	 SCS Total Energy          =   -1876.9970283068985282 [Eh]
	-----------------------------------------------------------

  Dipole Moment: [D]
     X:     0.2549      Y:    -0.1239      Z:     0.0191     Total:     0.2841

*** Psi4 exiting successfully. Buy a developer a beer!
