                               Psi4 1.3.2 release

  ==> Input File <==

--------------------------------------------------------------------------
#psi4
#
memory 32 gb

molecule  {
0 1
 Cl        0.0172314    -0.3389108     1.7370464
 Cl        1.4530530     0.9257540    -0.4051410
 Cl       -1.4370880     0.9451130    -0.4172060
 Cl       -0.0063540    -1.5169640    -0.9117550
  C       -0.0000080     0.0000410    -0.0000200
units angstrom
no_reorient  #important for SAPT in psi4, default
symmetry c1  #important for SAPT in psi4, default
}

set PROPERTIES_ORIGIN ["COM"]
properties('MP2/aug-cc-pvtz', properties = ['dipole'])
--------------------------------------------------------------------------

    Molecular point group: c1
  Charge       = 0
  Multiplicity = 1
  Basis Set: AUG-CC-PVTZ
    Blend: AUG-CC-PVTZ
  Basis Set: (AUG-CC-PVTZ AUX)
    Blend: AUG-CC-PVTZ-JKFIT

    Orbital Energies [Eh]
    ---------------------

    Doubly Occupied:

       1A   -104.879134     2A   -104.879126     3A   -104.878699
       4A   -104.877871     5A    -11.499710     6A    -10.603529
       7A    -10.603516     8A    -10.603126     9A    -10.602365
      10A     -8.070296    11A     -8.070286    12A     -8.069893
      13A     -8.069130    14A     -8.068007    15A     -8.068006
      16A     -8.067997    17A     -8.067997    18A     -8.067605
      19A     -8.067604    20A     -8.066843    21A     -8.066842
      22A     -1.282477    23A     -1.129250    24A     -1.128459
      25A     -1.127114    26A     -0.834213    27A     -0.658856
      28A     -0.658296    29A     -0.657399    30A     -0.533076
      31A     -0.531554    32A     -0.489828    33A     -0.489465
      34A     -0.488194    35A     -0.461376    36A     -0.460788
      37A     -0.460204

  @DF-RHF Final Energy: -1875.91630349473326

   => Energetics <=

    Nuclear Repulsion Energy =            439.4772263942467703
    One-Electron Energy =               -3467.5107990326519030
    Two-Electron Energy =                1152.1172691436718196
    Total Energy =                      -1875.9163034947332562
  Basis Set: (AUG-CC-PVTZ AUX)
    Blend: AUG-CC-PVTZ-RI
    Molecular point group: c1

    Geometry (in Angstrom), charge = 0, multiplicity = 1:

       Center              X                  Y                   Z               Mass
    ------------   -----------------  -----------------  -----------------  -----------------
         CL           0.011051650910    -0.342365948076     1.736370041073    34.968852682000
         CL           1.446873250910     0.922298851924    -0.405817358927    34.968852682000
         CL          -1.443267749090     0.941657851924    -0.417882358927    34.968852682000
         CL          -0.012533749090    -1.520419148076    -0.912431358927    34.968852682000
         C           -0.006187749090    -0.003414148076    -0.000696358927    12.000000000000

  Basis Set: AUG-CC-PVTZ
    Blend: AUG-CC-PVTZ
  Basis Set: (AUG-CC-PVTZ AUX)
    Blend: AUG-CC-PVTZ-JKFIT
	 Reference Energy          =   -1875.9163034947332562 [Eh]
	 Singles Energy            =      -0.0000000000000000 [Eh]
	 Same-Spin Energy          =      -0.2942855470832024 [Eh]
	 Opposite-Spin Energy      =      -0.8197367546936577 [Eh]
	 Correlation Energy        =      -1.1140223017768600 [Eh]
	 Total Energy              =   -1877.0303257965101693 [Eh]

	 ================> DF-SCS-MP2 Energies <==================
	-----------------------------------------------------------
	 SCS Same-Spin Scale       =       0.3333333333333333 [-]
	 SCS Opposite-Spin Scale   =       1.2000000000000000 [-]
	 SCS Same-Spin Energy      =      -0.0980951823610675 [Eh]
	 SCS Opposite-Spin Energy  =      -0.9836841056323892 [Eh]
	 SCS Correlation Energy    =      -1.0817792879934567 [Eh]
	 SCS Total Energy          =   -1876.9980827827266694 [Eh]
	-----------------------------------------------------------

  Dipole Moment: [D]
     X:    -0.0128      Y:    -0.0069      Z:    -0.0016     Total:     0.0146

*** Psi4 exiting successfully. Buy a developer a beer!
