                               Psi4 1.3.2 release

  ==> Input File <==

--------------------------------------------------------------------------
#psi4
#
memory 32 gb

molecule  {
0 1
 Cl       -0.0096090    -0.3539170     1.7341100
 Cl        1.4530530     0.9257540    -0.4051410
 Cl       -1.4370880     0.9451130    -0.4172060
 Cl       -0.0063540    -1.5169640    -0.9117550
  C        0.0005345     0.0200396    -0.0979984
units angstrom
no_reorient  #important for SAPT in psi4, default
symmetry c1  #important for SAPT in psi4, default
}

set PROPERTIES_ORIGIN ["COM"]
properties('MP2/aug-cc-pvtz', properties = ['dipole'])
--------------------------------------------------------------------------

    Molecular point group: c1
  Charge       = 0
  Multiplicity = 1
  Basis Set: AUG-CC-PVTZ
    Blend: AUG-CC-PVTZ
  Basis Set: (AUG-CC-PVTZ AUX)
    Blend: AUG-CC-PVTZ-JKFIT

    Orbital Energies [Eh]
    ---------------------

    Doubly Occupied:

       1A   -104.883446     2A   -104.883444     3A   -104.883437
       4A   -104.864065     5A    -11.500656     6A    -10.608263
       7A    -10.608258     8A    -10.608244     9A    -10.587632
      10A     -8.075091    11A     -8.075089    12A     -8.075081
      13A     -8.072721    14A     -8.072718    15A     -8.072713
      16A     -8.072711    17A     -8.072710    18A     -8.072703
      19A     -8.054222    20A     -8.052146    21A     -8.052146
      22A     -1.285616    23A     -1.138880    24A     -1.138867
      25A     -1.106159    26A     -0.834958    27A     -0.664709
      28A     -0.664703    29A     -0.649453    30A     -0.532281
      31A     -0.532280    32A     -0.496251    33A     -0.496243
      34A     -0.473432    35A     -0.465957    36A     -0.456310
      37A     -0.456307

  @DF-RHF Final Energy: -1875.91150044254391

   => Energetics <=

    Nuclear Repulsion Energy =            439.4577085465867867
    One-Electron Energy =               -3467.4586107075642758
    Two-Electron Energy =                1152.0894017184336917
    Total Energy =                      -1875.9115004425439110
  Basis Set: (AUG-CC-PVTZ AUX)
    Blend: AUG-CC-PVTZ-RI
    Molecular point group: c1

    Geometry (in Angstrom), charge = 0, multiplicity = 1:

       Center              X                  Y                   Z               Mass
    ------------   -----------------  -----------------  -----------------  -----------------
         CL          -0.009651692478    -0.355497148063     1.741851220541    34.968852682000
         CL           1.453010307522     0.924173851937    -0.397399779459    34.968852682000
         CL          -1.437130692478     0.943532851937    -0.409464779459    34.968852682000
         CL          -0.006396692478    -1.518544148063    -0.904013779459    34.968852682000
         C            0.000491807522     0.018459451937    -0.090257179459    12.000000000000

  Basis Set: AUG-CC-PVTZ
    Blend: AUG-CC-PVTZ
  Basis Set: (AUG-CC-PVTZ AUX)
    Blend: AUG-CC-PVTZ-JKFIT
	 Reference Energy          =   -1875.9115004425439110 [Eh]
	 Singles Energy            =      -0.0000000000000000 [Eh]
	 Same-Spin Energy          =      -0.2946028219700612 [Eh]
	 Opposite-Spin Energy      =      -0.8202313047388070 [Eh]
	 Correlation Energy        =      -1.1148341267088682 [Eh]
	 Total Energy              =   -1877.0263345692528674 [Eh]

	 ================> DF-SCS-MP2 Energies <==================
	-----------------------------------------------------------
	 SCS Same-Spin Scale       =       0.3333333333333333 [-]
	 SCS Opposite-Spin Scale   =       1.2000000000000000 [-]
	 SCS Same-Spin Energy      =      -0.0982009406566871 [Eh]
	 SCS Opposite-Spin Energy  =      -0.9842775656865683 [Eh]
	 SCS Correlation Energy    =      -1.0824785063432554 [Eh]
	 SCS Total Energy          =   -1876.9939789488871611 [Eh]
	-----------------------------------------------------------

  Dipole Moment: [D]
     X:     0.0030      Y:     0.1130      Z:    -0.5527     Total:     0.5641

*** Psi4 exiting successfully. Buy a developer a beer!
