                               Psi4 1.3.2 release

  ==> Input File <==

--------------------------------------------------------------------------
#psi4
#
memory 32 gb

molecule  {
0 1
 Cl       -0.0632729    -0.3836013     1.7266535
 Cl        1.4530530     0.9257540    -0.4051410
 Cl       -1.4370880     0.9451130    -0.4172060
 Cl       -0.0063540    -1.5169640    -0.9117550
  C       -0.0000080     0.0000410    -0.0000200
units angstrom
no_reorient  #important for SAPT in psi4, default
symmetry c1  #important for SAPT in psi4, default
}

set PROPERTIES_ORIGIN ["COM"]
properties('MP2/aug-cc-pvtz', properties = ['dipole'])
--------------------------------------------------------------------------

    Molecular point group: c1
  Charge       = 0
  Multiplicity = 1
  Basis Set: AUG-CC-PVTZ
    Blend: AUG-CC-PVTZ
  Basis Set: (AUG-CC-PVTZ AUX)
    Blend: AUG-CC-PVTZ-JKFIT

    Orbital Energies [Eh]
    ---------------------

    Doubly Occupied:

       1A   -104.880377     2A   -104.878676     3A   -104.877873
       4A   -104.877864     5A    -11.499701     6A    -10.604673
       7A    -10.603107     8A    -10.602369     9A    -10.602356
      10A     -8.071445    11A     -8.069874    12A     -8.069155
      13A     -8.069152    14A     -8.069131    15A     -8.069122
      16A     -8.067586    17A     -8.067583    18A     -8.066845
      19A     -8.066843    20A     -8.066836    21A     -8.066834
      22A     -1.282509    23A     -1.130547    24A     -1.127922
      25A     -1.126329    26A     -0.834218    27A     -0.659733
      28A     -0.657975    29A     -0.656830    30A     -0.533844
      31A     -0.530831    32A     -0.491178    33A     -0.488567
      34A     -0.487866    35A     -0.461638    36A     -0.460849
      37A     -0.459629

  @DF-RHF Final Energy: -1875.91609022274793

   => Energetics <=

    Nuclear Repulsion Energy =            439.4997192928308323
    One-Electron Energy =               -3467.5558897460336993
    Two-Electron Energy =                1152.1400802304549416
    Total Energy =                      -1875.9160902227479255
  Basis Set: (AUG-CC-PVTZ AUX)
    Blend: AUG-CC-PVTZ-RI
    Molecular point group: c1

    Geometry (in Angstrom), charge = 0, multiplicity = 1:

       Center              X                  Y                   Z               Mass
    ------------   -----------------  -----------------  -----------------  -----------------
         CL          -0.050916778184    -0.376766595997     1.728370074776    34.968852682000
         CL           1.465409121816     0.932588704003    -0.403424425224    34.968852682000
         CL          -1.424731878184     0.951947704003    -0.415489425224    34.968852682000
         CL           0.006002121816    -1.510129295997    -0.910038425224    34.968852682000
         C            0.012348121816     0.006875704003     0.001696574776    12.000000000000

  Basis Set: AUG-CC-PVTZ
    Blend: AUG-CC-PVTZ
  Basis Set: (AUG-CC-PVTZ AUX)
    Blend: AUG-CC-PVTZ-JKFIT
	 Reference Energy          =   -1875.9160902227479255 [Eh]
	 Singles Energy            =      -0.0000000000000000 [Eh]
	 Same-Spin Energy          =      -0.2942948369682924 [Eh]
	 Opposite-Spin Energy      =      -0.8197519785019697 [Eh]
	 Correlation Energy        =      -1.1140468154702621 [Eh]
	 Total Energy              =   -1877.0301370382182995 [Eh]

	 ================> DF-SCS-MP2 Energies <==================
	-----------------------------------------------------------
	 SCS Same-Spin Scale       =       0.3333333333333333 [-]
	 SCS Opposite-Spin Scale   =       1.2000000000000000 [-]
	 SCS Same-Spin Energy      =      -0.0980982789894308 [Eh]
	 SCS Opposite-Spin Energy  =      -0.9837023742023636 [Eh]
	 SCS Correlation Energy    =      -1.0818006531917943 [Eh]
	 SCS Total Energy          =   -1876.9978908759396745 [Eh]
	-----------------------------------------------------------

  Dipole Moment: [D]
     X:     0.0255      Y:     0.0145      Z:     0.0029     Total:     0.0295

*** Psi4 exiting successfully. Buy a developer a beer!
