                               Psi4 1.4a3.dev225

  ==> Input File <==

--------------------------------------------------------------------------
#psi4
#
memory 32 gb

molecule  {
0 1
 Cl       -1.5892520     0.7716130    -0.1188620
 Cl        0.1752270    -1.1932030    -1.2964360
 Cl        0.1483700    -0.8071130     1.5689890
 Cl        1.2656550     1.2287070    -0.1536930
  C       -0.0448773     0.0217781    -0.0033525
units angstrom
no_reorient  #important for SAPT in psi4, default
symmetry c1  #important for SAPT in psi4, default
}

set PROPERTIES_ORIGIN ["COM"]
properties('MP2/aug-cc-pvtz', properties = ['dipole'])
--------------------------------------------------------------------------

    Molecular point group: c1
  Charge       = 0
  Multiplicity = 1
  Basis Set: AUG-CC-PVTZ
    Blend: AUG-CC-PVTZ
  Basis Set: (AUG-CC-PVTZ AUX)
    Blend: AUG-CC-PVTZ-JKFIT

    Orbital Energies [Eh]
    ---------------------

    Doubly Occupied:

       1A   -104.885452     2A   -104.876505     3A   -104.876504
       4A   -104.876502     5A    -11.500124     6A    -10.610586
       7A    -10.600701     8A    -10.600700     9A    -10.600686
      10A     -8.077462    11A     -8.075039    12A     -8.075038
      13A     -8.067429    14A     -8.067428    15A     -8.067425
      16A     -8.065183    17A     -8.065182    18A     -8.065181
      19A     -8.065180    20A     -8.065179    21A     -8.065177
      22A     -1.283203    23A     -1.138345    24A     -1.122831
      25A     -1.122827    26A     -0.834421    27A     -0.663231
      28A     -0.655955    29A     -0.655953    30A     -0.532174
      31A     -0.532174    32A     -0.495293    33A     -0.485849
      34A     -0.485846    35A     -0.461638    36A     -0.461638
      37A     -0.458326

  @DF-RHF Final Energy: -1875.91491065515015

   => Energetics <=

    Nuclear Repulsion Energy =            439.2824533079110552
    One-Electron Energy =               -3467.1179920076547205
    Two-Electron Energy =                1151.9206280445935136
    Total Energy =                      -1875.9149106551501518
  Basis Set: (AUG-CC-PVTZ AUX)
    Blend: AUG-CC-PVTZ-RI
    Molecular point group: c1

    Geometry (in Angstrom), charge = 0, multiplicity = 1:

       Center              X                  Y                   Z               Mass
    ------------   -----------------  -----------------  -----------------  -----------------
         CL          -1.585706148849     0.769891344900    -0.118596651334    34.968852682000
         CL           0.178772851151    -1.194924655100    -1.296170651334    34.968852682000
         CL           0.151915851151    -0.808834655100     1.569254348666    34.968852682000
         CL           1.269200851151     1.226985344900    -0.153427651334    34.968852682000
         C           -0.041331448849     0.020056444900    -0.003087151334    12.000000000000

  Basis Set: AUG-CC-PVTZ
    Blend: AUG-CC-PVTZ
  Basis Set: (AUG-CC-PVTZ AUX)
    Blend: AUG-CC-PVTZ-JKFIT
	 Reference Energy          =   -1875.9149106551501518 [Eh]
	 Singles Energy            =      -0.0000000000000000 [Eh]
	 Same-Spin Energy          =      -0.2943476946552231 [Eh]
	 Opposite-Spin Energy      =      -0.8198860883520953 [Eh]
	 Correlation Energy        =      -1.1142337830073186 [Eh]
	 Total Energy              =   -1877.0291444381575729 [Eh]

	 ================> DF-SCS-MP2 Energies <==================
	-----------------------------------------------------------
	 SCS Same-Spin Scale       =       0.3333333333333333 [-]
	 SCS Opposite-Spin Scale   =       1.2000000000000000 [-]
	 SCS Same-Spin Energy      =      -0.0981158982184077 [Eh]
	 SCS Opposite-Spin Energy  =      -0.9838633060225144 [Eh]
	 SCS Correlation Energy    =      -1.0819792042409220 [Eh]
	 SCS Total Energy          =   -1876.9968898593911035 [Eh]
	-----------------------------------------------------------

  Dipole Moment: [D]
     X:    -0.2628      Y:     0.1275      Z:    -0.0196     Total:     0.2928

*** Psi4 exiting successfully. Buy a developer a beer!
