                               Psi4 1.3.2 release

  ==> Input File <==

--------------------------------------------------------------------------
#psi4
#
memory 32 gb

molecule  {
0 1
 Cl        0.0440666    -0.3238014     1.7394537
 Cl        1.4530530     0.9257540    -0.4051410
 Cl       -1.4370880     0.9451130    -0.4172060
 Cl       -0.0063540    -1.5169640    -0.9117550
  C       -0.0000080     0.0000410    -0.0000200
units angstrom
no_reorient  #important for SAPT in psi4, default
symmetry c1  #important for SAPT in psi4, default
}

set PROPERTIES_ORIGIN ["COM"]
properties('MP2/aug-cc-pvtz', properties = ['dipole'])
--------------------------------------------------------------------------

    Molecular point group: c1
  Charge       = 0
  Multiplicity = 1
  Basis Set: AUG-CC-PVTZ
    Blend: AUG-CC-PVTZ
  Basis Set: (AUG-CC-PVTZ AUX)
    Blend: AUG-CC-PVTZ-JKFIT

    Orbital Energies [Eh]
    ---------------------

    Doubly Occupied:

       1A   -104.879551     2A   -104.879542     3A   -104.878675
       4A   -104.877021     5A    -11.499700     6A    -10.603913
       7A    -10.603899     8A    -10.603107     9A    -10.601585
      10A     -8.070681    11A     -8.070671    12A     -8.069874
      13A     -8.068391    14A     -8.068390    15A     -8.068382
      16A     -8.068381    17A     -8.068347    18A     -8.067585
      19A     -8.067583    20A     -8.066061    21A     -8.066059
      22A     -1.282510    23A     -1.130227    24A     -1.128642
      25A     -1.125929    26A     -0.834219    27A     -0.659524
      28A     -0.658410    29A     -0.656604    30A     -0.533868
      31A     -0.530810    32A     -0.490534    33A     -0.489799
      34A     -0.487284    35A     -0.461914    36A     -0.460743
      37A     -0.459449

  @DF-RHF Final Energy: -1875.91608354601271

   => Energetics <=

    Nuclear Repulsion Energy =            439.5000509520302785
    One-Electron Energy =               -3467.5565406010000515
    Two-Electron Energy =                1152.1404061029568311
    Total Energy =                      -1875.9160835460127146
  Basis Set: (AUG-CC-PVTZ AUX)
    Blend: AUG-CC-PVTZ-RI
    Molecular point group: c1

    Geometry (in Angstrom), charge = 0, multiplicity = 1:

       Center              X                  Y                   Z               Mass
    ------------   -----------------  -----------------  -----------------  -----------------
         CL           0.031708127501    -0.330735441599     1.738223067549    34.968852682000
         CL           1.440694527501     0.918819958401    -0.406371632451    34.968852682000
         CL          -1.449446472499     0.938178958401    -0.418436632451    34.968852682000
         CL          -0.018712472499    -1.523898041599    -0.912985632451    34.968852682000
         C           -0.012366472499    -0.006893041599    -0.001250632451    12.000000000000

  Basis Set: AUG-CC-PVTZ
    Blend: AUG-CC-PVTZ
  Basis Set: (AUG-CC-PVTZ AUX)
    Blend: AUG-CC-PVTZ-JKFIT
	 Reference Energy          =   -1875.9160835460127146 [Eh]
	 Singles Energy            =      -0.0000000000000000 [Eh]
	 Same-Spin Energy          =      -0.2942950059283678 [Eh]
	 Opposite-Spin Energy      =      -0.8197521638207732 [Eh]
	 Correlation Energy        =      -1.1140471697491410 [Eh]
	 Total Energy              =   -1877.0301307157617430 [Eh]

	 ================> DF-SCS-MP2 Energies <==================
	-----------------------------------------------------------
	 SCS Same-Spin Scale       =       0.3333333333333333 [-]
	 SCS Opposite-Spin Scale   =       1.2000000000000000 [-]
	 SCS Same-Spin Energy      =      -0.0980983353094559 [Eh]
	 SCS Opposite-Spin Energy  =      -0.9837025965849278 [Eh]
	 SCS Correlation Energy    =      -1.0818009318943838 [Eh]
	 SCS Total Energy          =   -1876.9978844779070641 [Eh]
	-----------------------------------------------------------

  Dipole Moment: [D]
     X:    -0.0256      Y:    -0.0140      Z:    -0.0032     Total:     0.0293

*** Psi4 exiting successfully. Buy a developer a beer!
