                               Psi4 1.3.2 release

  ==> Input File <==

--------------------------------------------------------------------------
#psi4
#
memory 32 gb

molecule  {
0 1
 Cl       -0.1168597    -0.4128183     1.7170933
 Cl        1.4530530     0.9257540    -0.4051410
 Cl       -1.4370880     0.9451130    -0.4172060
 Cl       -0.0063540    -1.5169640    -0.9117550
  C       -0.0000080     0.0000410    -0.0000200
units angstrom
no_reorient  #important for SAPT in psi4, default
symmetry c1  #important for SAPT in psi4, default
}

set PROPERTIES_ORIGIN ["COM"]
properties('MP2/aug-cc-pvtz', properties = ['dipole'])
--------------------------------------------------------------------------

    Molecular point group: c1
  Charge       = 0
  Multiplicity = 1
  Basis Set: AUG-CC-PVTZ
    Blend: AUG-CC-PVTZ
  Basis Set: (AUG-CC-PVTZ AUX)
    Blend: AUG-CC-PVTZ-JKFIT

    Orbital Energies [Eh]
    ---------------------

    Doubly Occupied:

       1A   -104.882011     2A   -104.878582     3A   -104.877022
       4A   -104.877013     5A    -11.499664     6A    -10.606184
       7A    -10.603031     8A    -10.601588     9A    -10.601575
      10A     -8.072960    11A     -8.070668    12A     -8.070662
      13A     -8.069796    14A     -8.068348    15A     -8.068339
      16A     -8.067507    17A     -8.067500    18A     -8.066063
      19A     -8.066060    20A     -8.066054    21A     -8.066051
      22A     -1.282637    23A     -1.132743    24A     -1.127577
      25A     -1.124382    26A     -0.834238    27A     -0.661244
      28A     -0.657774    29A     -0.655463    30A     -0.535422
      31A     -0.529429    32A     -0.493332    33A     -0.488055
      34A     -0.486713    35A     -0.461944    36A     -0.460834
      37A     -0.458340

  @DF-RHF Final Energy: -1875.91524383948263

   => Energetics <=

    Nuclear Repulsion Energy =            439.5891855445879060
    One-Electron Energy =               -3467.7352473936580282
    Two-Electron Energy =                1152.2308180095874377
    Total Energy =                      -1875.9152438394826277
  Basis Set: (AUG-CC-PVTZ AUX)
    Blend: AUG-CC-PVTZ-RI
    Molecular point group: c1

    Geometry (in Angstrom), charge = 0, multiplicity = 1:

       Center              X                  Y                   Z               Mass
    ------------   -----------------  -----------------  -----------------  -----------------
         CL          -0.092165380013    -0.399256470363     1.721011081830    34.968852682000
         CL           1.477747319987     0.939315829637    -0.401223218170    34.968852682000
         CL          -1.412393680013     0.958674829637    -0.413288218170    34.968852682000
         CL           0.018340319987    -1.503402170363    -0.907837218170    34.968852682000
         C            0.024686319987     0.013602829637     0.003897781830    12.000000000000

  Basis Set: AUG-CC-PVTZ
    Blend: AUG-CC-PVTZ
  Basis Set: (AUG-CC-PVTZ AUX)
    Blend: AUG-CC-PVTZ-JKFIT
	 Reference Energy          =   -1875.9152438394826277 [Eh]
	 Singles Energy            =      -0.0000000000000000 [Eh]
	 Same-Spin Energy          =      -0.2943318427249223 [Eh]
	 Opposite-Spin Energy      =      -0.8198126628485125 [Eh]
	 Correlation Energy        =      -1.1141445055734347 [Eh]
	 Total Energy              =   -1877.0293883450560770 [Eh]

	 ================> DF-SCS-MP2 Energies <==================
	-----------------------------------------------------------
	 SCS Same-Spin Scale       =       0.3333333333333333 [-]
	 SCS Opposite-Spin Scale   =       1.2000000000000000 [-]
	 SCS Same-Spin Energy      =      -0.0981106142416408 [Eh]
	 SCS Opposite-Spin Energy  =      -0.9837751954182150 [Eh]
	 SCS Correlation Energy    =      -1.0818858096598558 [Eh]
	 SCS Total Energy          =   -1876.9971296491423800 [Eh]
	-----------------------------------------------------------

  Dipole Moment: [D]
     X:     0.0511      Y:     0.0288      Z:     0.0056     Total:     0.0589

*** Psi4 exiting successfully. Buy a developer a beer!
