                               Psi4 1.3.2 release

  ==> Input File <==

--------------------------------------------------------------------------
#psi4
#
memory 32 gb

molecule  {
0 1
 Cl       -0.1703041    -0.4415322     1.7054411
 Cl        1.4530530     0.9257540    -0.4051410
 Cl       -1.4370880     0.9451130    -0.4172060
 Cl       -0.0063540    -1.5169640    -0.9117550
  C       -0.0000080     0.0000410    -0.0000200
units angstrom
no_reorient  #important for SAPT in psi4, default
symmetry c1  #important for SAPT in psi4, default
}

set PROPERTIES_ORIGIN ["COM"]
properties('MP2/aug-cc-pvtz', properties = ['dipole'])
--------------------------------------------------------------------------

    Molecular point group: c1
  Charge       = 0
  Multiplicity = 1
  Basis Set: AUG-CC-PVTZ
    Blend: AUG-CC-PVTZ
  Basis Set: (AUG-CC-PVTZ AUX)
    Blend: AUG-CC-PVTZ-JKFIT

    Orbital Energies [Eh]
    ---------------------

    Doubly Occupied:

       1A   -104.883616     2A   -104.878427     3A   -104.876164
       4A   -104.876155     5A    -11.499604     6A    -10.607672
       7A    -10.602906     8A    -10.600803     9A    -10.600790
      10A     -8.074451    11A     -8.072157    12A     -8.072147
      13A     -8.069667    14A     -8.067560    15A     -8.067551
      16A     -8.067376    17A     -8.067365    18A     -8.065275
      19A     -8.065272    20A     -8.065266    21A     -8.065263
      22A     -1.282847    23A     -1.134874    24A     -1.127244
      25A     -1.122425    26A     -0.834270    27A     -0.662721
      28A     -0.657583    29A     -0.654084    30A     -0.537045
      31A     -0.528090    32A     -0.495571    33A     -0.487613
      34A     -0.485700    35A     -0.461773    36A     -0.460783
      37A     -0.456940

  @DF-RHF Final Energy: -1875.91384983076568

   => Energetics <=

    Nuclear Repulsion Energy =            439.7371277219041872
    One-Electron Energy =               -3468.0318559387005735
    Two-Electron Energy =                1152.3808783860308722
    Total Energy =                      -1875.9138498307656846
  Basis Set: (AUG-CC-PVTZ AUX)
    Blend: AUG-CC-PVTZ-RI
    Molecular point group: c1

    Geometry (in Angstrom), charge = 0, multiplicity = 1:

       Center              X                  Y                   Z               Mass
    ------------   -----------------  -----------------  -----------------  -----------------
         CL          -0.133304369010    -0.421359081977     1.712041765539    34.968852682000
         CL           1.490052730990     0.945927118023    -0.398540334461    34.968852682000
         CL          -1.400088269010     0.965286118023    -0.410605334461    34.968852682000
         CL           0.030645730990    -1.496790881977    -0.905154334461    34.968852682000
         C            0.036991730990     0.020214118023     0.006580665539    12.000000000000

  Basis Set: AUG-CC-PVTZ
    Blend: AUG-CC-PVTZ
  Basis Set: (AUG-CC-PVTZ AUX)
    Blend: AUG-CC-PVTZ-JKFIT
	 Reference Energy          =   -1875.9138498307656846 [Eh]
	 Singles Energy            =      -0.0000000000000000 [Eh]
	 Same-Spin Energy          =      -0.2943932170982184 [Eh]
	 Opposite-Spin Energy      =      -0.8199133898711750 [Eh]
	 Correlation Energy        =      -1.1143066069693934 [Eh]
	 Total Energy              =   -1877.0281564377351060 [Eh]

	 ================> DF-SCS-MP2 Energies <==================
	-----------------------------------------------------------
	 SCS Same-Spin Scale       =       0.3333333333333333 [-]
	 SCS Opposite-Spin Scale   =       1.2000000000000000 [-]
	 SCS Same-Spin Energy      =      -0.0981310723660728 [Eh]
	 SCS Opposite-Spin Energy  =      -0.9838960678454099 [Eh]
	 SCS Correlation Energy    =      -1.0820271402114827 [Eh]
	 SCS Total Energy          =   -1876.9958769709771786 [Eh]
	-----------------------------------------------------------

  Dipole Moment: [D]
     X:     0.0765      Y:     0.0430      Z:     0.0081     Total:     0.0881

*** Psi4 exiting successfully. Buy a developer a beer!
