                               Psi4 1.3.2 release

  ==> Input File <==

--------------------------------------------------------------------------
#psi4
#
memory 32 gb

molecule  {
0 1
 Cl        0.0976885    -0.2932913     1.7426782
 Cl        1.4530530     0.9257540    -0.4051410
 Cl       -1.4370880     0.9451130    -0.4172060
 Cl       -0.0063540    -1.5169640    -0.9117550
  C       -0.0000080     0.0000410    -0.0000200
units angstrom
no_reorient  #important for SAPT in psi4, default
symmetry c1  #important for SAPT in psi4, default
}

set PROPERTIES_ORIGIN ["COM"]
properties('MP2/aug-cc-pvtz', properties = ['dipole'])
--------------------------------------------------------------------------

    Molecular point group: c1
  Charge       = 0
  Multiplicity = 1
  Basis Set: AUG-CC-PVTZ
    Blend: AUG-CC-PVTZ
  Basis Set: (AUG-CC-PVTZ AUX)
    Blend: AUG-CC-PVTZ-JKFIT

    Orbital Energies [Eh]
    ---------------------

    Doubly Occupied:

       1A   -104.880377     2A   -104.880369     3A   -104.878580
       4A   -104.875299     5A    -11.499657     6A    -10.604675
       7A    -10.604661     8A    -10.603031     9A    -10.600011
      10A     -8.071445    11A     -8.071436    12A     -8.069795
      13A     -8.069155    14A     -8.069152    15A     -8.069146
      16A     -8.069143    17A     -8.067505    18A     -8.067501
      19A     -8.066766    20A     -8.064481    21A     -8.064479
      22A     -1.282648    23A     -1.132196    24A     -1.129013
      25A     -1.123493    26A     -0.834242    27A     -0.660846
      28A     -0.658646    29A     -0.654987    30A     -0.535532
      31A     -0.529354    32A     -0.492009    33A     -0.490515
      34A     -0.485614    35A     -0.462930    36A     -0.460610
      37A     -0.457503

  @DF-RHF Final Energy: -1875.91518867785021

   => Energetics <=

    Nuclear Repulsion Energy =            439.5920876447068508
    One-Electron Energy =               -3467.7409528748594312
    Two-Electron Energy =                1152.2336765523025406
    Total Energy =                      -1875.9151886778502103
  Basis Set: (AUG-CC-PVTZ AUX)
    Blend: AUG-CC-PVTZ-RI
    Molecular point group: c1

    Geometry (in Angstrom), charge = 0, multiplicity = 1:

       Center              X                  Y                   Z               Mass
    ------------   -----------------  -----------------  -----------------  -----------------
         CL           0.072983747661    -0.307250199587     1.740705136204    34.968852682000
         CL           1.428348247661     0.911795100413    -0.407114063796    34.968852682000
         CL          -1.461792752339     0.931154100413    -0.419179063796    34.968852682000
         CL          -0.031058752339    -1.530922899587    -0.913728063796    34.968852682000
         C           -0.024712752339    -0.013917899587    -0.001993063796    12.000000000000

  Basis Set: AUG-CC-PVTZ
    Blend: AUG-CC-PVTZ
  Basis Set: (AUG-CC-PVTZ AUX)
    Blend: AUG-CC-PVTZ-JKFIT
	 Reference Energy          =   -1875.9151886778502103 [Eh]
	 Singles Energy            =      -0.0000000000000000 [Eh]
	 Same-Spin Energy          =      -0.2943333075433766 [Eh]
	 Opposite-Spin Energy      =      -0.8198142998366470 [Eh]
	 Correlation Energy        =      -1.1141476073800236 [Eh]
	 Total Energy              =   -1877.0293362852303289 [Eh]

	 ================> DF-SCS-MP2 Energies <==================
	-----------------------------------------------------------
	 SCS Same-Spin Scale       =       0.3333333333333333 [-]
	 SCS Opposite-Spin Scale   =       1.2000000000000000 [-]
	 SCS Same-Spin Energy      =      -0.0981111025144589 [Eh]
	 SCS Opposite-Spin Energy  =      -0.9837771598039764 [Eh]
	 SCS Correlation Energy    =      -1.0818882623184352 [Eh]
	 SCS Total Energy          =   -1876.9970769401686539 [Eh]
	-----------------------------------------------------------

  Dipole Moment: [D]
     X:    -0.0510      Y:    -0.0281      Z:    -0.0065     Total:     0.0586

*** Psi4 exiting successfully. Buy a developer a beer!
