                               Psi4 1.3.2 release

  ==> Input File <==

--------------------------------------------------------------------------
#psi4
#
memory 32 gb

molecule  {
0 1
 Cl       -0.0364465    -0.3688154     1.7306453
 Cl        1.4530530     0.9257540    -0.4051410
 Cl       -1.4370880     0.9451130    -0.4172060
 Cl       -0.0063540    -1.5169640    -0.9117550
  C       -0.0000080     0.0000410    -0.0000200
units angstrom
no_reorient  #important for SAPT in psi4, default
symmetry c1  #important for SAPT in psi4, default
}

set PROPERTIES_ORIGIN ["COM"]
properties('MP2/aug-cc-pvtz', properties = ['dipole'])
--------------------------------------------------------------------------

    Molecular point group: c1
  Charge       = 0
  Multiplicity = 1
  Basis Set: AUG-CC-PVTZ
    Blend: AUG-CC-PVTZ
  Basis Set: (AUG-CC-PVTZ AUX)
    Blend: AUG-CC-PVTZ-JKFIT

    Orbital Energies [Eh]
    ---------------------

    Doubly Occupied:

       1A   -104.879549     2A   -104.878699     3A   -104.878295
       4A   -104.878287     5A    -11.499710     6A    -10.603909
       7A    -10.603126     8A    -10.602757     9A    -10.602744
      10A     -8.070679    11A     -8.069893    12A     -8.069521
      13A     -8.069512    14A     -8.068389    15A     -8.068388
      16A     -8.067605    17A     -8.067604    18A     -8.067233
      19A     -8.067233    20A     -8.067224    21A     -8.067223
      22A     -1.282476    23A     -1.129422    24A     -1.128099
      25A     -1.127302    26A     -0.834213    27A     -0.658964
      28A     -0.658079    29A     -0.657509    30A     -0.533070
      31A     -0.531559    32A     -0.490146    33A     -0.488850
      34A     -0.488492    35A     -0.461295    36A     -0.460840
      37A     -0.460235

  @DF-RHF Final Energy: -1875.91630423486095

   => Energetics <=

    Nuclear Repulsion Energy =            439.4772008389169855
    One-Electron Energy =               -3467.5107496456689660
    Two-Electron Energy =                1152.1172445718912059
    Total Energy =                      -1875.9163042348609451
  Basis Set: (AUG-CC-PVTZ AUX)
    Blend: AUG-CC-PVTZ-RI
    Molecular point group: c1

    Geometry (in Angstrom), charge = 0, multiplicity = 1:

       Center              X                  Y                   Z               Mass
    ------------   -----------------  -----------------  -----------------  -----------------
         CL          -0.030267075420    -0.365385104627     1.731442774933    34.968852682000
         CL           1.459232424580     0.929184295373    -0.404343525067    34.968852682000
         CL          -1.430908575420     0.948543295373    -0.416408525067    34.968852682000
         CL          -0.000174575420    -1.513533704627    -0.910957525067    34.968852682000
         C            0.006171424580     0.003471295373     0.000777474933    12.000000000000

  Basis Set: AUG-CC-PVTZ
    Blend: AUG-CC-PVTZ
  Basis Set: (AUG-CC-PVTZ AUX)
    Blend: AUG-CC-PVTZ-JKFIT
	 Reference Energy          =   -1875.9163042348609451 [Eh]
	 Singles Energy            =      -0.0000000000000000 [Eh]
	 Same-Spin Energy          =      -0.2942855316805518 [Eh]
	 Opposite-Spin Energy      =      -0.8197367396908189 [Eh]
	 Correlation Energy        =      -1.1140222713713708 [Eh]
	 Total Energy              =   -1877.0303265062323135 [Eh]

	 ================> DF-SCS-MP2 Energies <==================
	-----------------------------------------------------------
	 SCS Same-Spin Scale       =       0.3333333333333333 [-]
	 SCS Opposite-Spin Scale   =       1.2000000000000000 [-]
	 SCS Same-Spin Energy      =      -0.0980951772268506 [Eh]
	 SCS Opposite-Spin Energy  =      -0.9836840876289827 [Eh]
	 SCS Correlation Energy    =      -1.0817792648558333 [Eh]
	 SCS Total Energy          =   -1876.9980834997168131 [Eh]
	-----------------------------------------------------------

  Dipole Moment: [D]
     X:     0.0127      Y:     0.0074      Z:     0.0014     Total:     0.0148

*** Psi4 exiting successfully. Buy a developer a beer!
