                               Psi4 1.4a3.dev225

  ==> Input File <==

--------------------------------------------------------------------------
#psi4
#
memory 32 gb

molecule  {
0 1
 Cl       -1.5892520     0.7716130    -0.1188620
 Cl        0.1752270    -1.1932030    -1.2964360
 Cl        0.1483700    -0.8071130     1.5689890
 Cl        1.2656550     1.2287070    -0.1536930
  C        0.0179509    -0.0087266     0.0013466
units angstrom
no_reorient  #important for SAPT in psi4, default
symmetry c1  #important for SAPT in psi4, default
}

set PROPERTIES_ORIGIN ["COM"]
properties('MP2/aug-cc-pvtz', properties = ['dipole'])
--------------------------------------------------------------------------

    Molecular point group: c1
  Charge       = 0
  Multiplicity = 1
  Basis Set: AUG-CC-PVTZ
    Blend: AUG-CC-PVTZ
  Basis Set: (AUG-CC-PVTZ AUX)
    Blend: AUG-CC-PVTZ-JKFIT

    Orbital Energies [Eh]
    ---------------------

    Doubly Occupied:

       1A   -104.879696     2A   -104.879695     3A   -104.879693
       4A   -104.876012     5A    -11.499972     6A    -10.604185
       7A    -10.604183     8A    -10.604170     9A    -10.600182
      10A     -8.070960    11A     -8.070960    12A     -8.070957
      13A     -8.068658    14A     -8.068657    15A     -8.068656
      16A     -8.068655    17A     -8.068653    18A     -8.068653
      19A     -8.066908    20A     -8.064669    21A     -8.064669
      22A     -1.282211    23A     -1.130292    24A     -1.130288
      25A     -1.123861    26A     -0.834252    27A     -0.659043
      28A     -0.659041    29A     -0.656006    30A     -0.532226
      31A     -0.532226    32A     -0.490497    33A     -0.490494
      34A     -0.486337    35A     -0.461909    36A     -0.460300
      37A     -0.460299

  @DF-RHF Final Energy: -1875.91614266550141

   => Energetics <=

    Nuclear Repulsion Energy =            439.2808350309242087
    One-Electron Energy =               -3467.1177102468755038
    Two-Electron Energy =                1151.9207325504498840
    Total Energy =                      -1875.9161426655014111
  Basis Set: (AUG-CC-PVTZ AUX)
    Blend: AUG-CC-PVTZ-RI
    Molecular point group: c1

    Geometry (in Angstrom), charge = 0, multiplicity = 1:

       Center              X                  Y                   Z               Mass
    ------------   -----------------  -----------------  -----------------  -----------------
         CL          -1.590670338880     0.772301586283    -0.118967937243    34.968852682000
         CL           0.173808661120    -1.192514413717    -1.296541937243    34.968852682000
         CL           0.146951661120    -0.806424413717     1.568883062757    34.968852682000
         CL           1.264236661120     1.229395586283    -0.153798937243    34.968852682000
         C            0.016532561120    -0.008038013717     0.001240662757    12.000000000000

  Basis Set: AUG-CC-PVTZ
    Blend: AUG-CC-PVTZ
  Basis Set: (AUG-CC-PVTZ AUX)
    Blend: AUG-CC-PVTZ-JKFIT
	 Reference Energy          =   -1875.9161426655014111 [Eh]
	 Singles Energy            =      -0.0000000000000000 [Eh]
	 Same-Spin Energy          =      -0.2942695822616949 [Eh]
	 Opposite-Spin Energy      =      -0.8197622887607389 [Eh]
	 Correlation Energy        =      -1.1140318710224337 [Eh]
	 Total Energy              =   -1877.0301745365238730 [Eh]

	 ================> DF-SCS-MP2 Energies <==================
	-----------------------------------------------------------
	 SCS Same-Spin Scale       =       0.3333333333333333 [-]
	 SCS Opposite-Spin Scale   =       1.2000000000000000 [-]
	 SCS Same-Spin Energy      =      -0.0980898607538983 [Eh]
	 SCS Opposite-Spin Energy  =      -0.9837147465128866 [Eh]
	 SCS Correlation Energy    =      -1.0818046072667848 [Eh]
	 SCS Total Energy          =   -1876.9979472727682150 [Eh]
	-----------------------------------------------------------

  Dipole Moment: [D]
     X:     0.1027      Y:    -0.0499      Z:     0.0077     Total:     0.1144

*** Psi4 exiting successfully. Buy a developer a beer!
