                               Psi4 1.3.2 release

  ==> Input File <==

--------------------------------------------------------------------------
#psi4
#
memory 32 gb

molecule  {
0 1
 Cl        0.1511913    -0.2624238     1.7437794
 Cl        1.4530530     0.9257540    -0.4051410
 Cl       -1.4370880     0.9451130    -0.4172060
 Cl       -0.0063540    -1.5169640    -0.9117550
  C       -0.0000080     0.0000410    -0.0000200
units angstrom
no_reorient  #important for SAPT in psi4, default
symmetry c1  #important for SAPT in psi4, default
}

set PROPERTIES_ORIGIN ["COM"]
properties('MP2/aug-cc-pvtz', properties = ['dipole'])
--------------------------------------------------------------------------

    Molecular point group: c1
  Charge       = 0
  Multiplicity = 1
  Basis Set: AUG-CC-PVTZ
    Blend: AUG-CC-PVTZ
  Basis Set: (AUG-CC-PVTZ AUX)
    Blend: AUG-CC-PVTZ-JKFIT

    Orbital Energies [Eh]
    ---------------------

    Doubly Occupied:

       1A   -104.881195     2A   -104.881186     3A   -104.878421
       4A   -104.873548     5A    -11.499583     6A    -10.605430
       7A    -10.605416     8A    -10.602904     9A    -10.598418
      10A     -8.072202    11A     -8.072192    12A     -8.069911
      13A     -8.069906    14A     -8.069902    15A     -8.069897
      16A     -8.069664    17A     -8.067370    18A     -8.067366
      19A     -8.065165    20A     -8.062880    21A     -8.062879
      22A     -1.282884    23A     -1.134193    24A     -1.129388
      25A     -1.120961    26A     -0.834285    27A     -0.662149
      28A     -0.658898    29A     -0.653334    30A     -0.537313
      31A     -0.527937    32A     -0.493552    33A     -0.491298
      34A     -0.484152    35A     -0.463875    36A     -0.460413
      37A     -0.454966

  @DF-RHF Final Energy: -1875.91366125061222

   => Energetics <=

    Nuclear Repulsion Energy =            439.7471182821865909
    One-Electron Energy =               -3468.0514953515112211
    Two-Electron Energy =                1152.3907158187125788
    Total Energy =                      -1875.9136612506122219
  Basis Set: (AUG-CC-PVTZ AUX)
    Blend: AUG-CC-PVTZ-RI
    Molecular point group: c1

    Geometry (in Angstrom), charge = 0, multiplicity = 1:

       Center              X                  Y                   Z               Mass
    ------------   -----------------  -----------------  -----------------  -----------------
         CL           0.114167690235    -0.283489847841     1.741552788244    34.968852682000
         CL           1.416029390235     0.904687952159    -0.407367611756    34.968852682000
         CL          -1.474111609765     0.924046952159    -0.419432611756    34.968852682000
         CL          -0.043377609765    -1.538030047841    -0.913981611756    34.968852682000
         C           -0.037031609765    -0.021025047841    -0.002246611756    12.000000000000

  Basis Set: AUG-CC-PVTZ
    Blend: AUG-CC-PVTZ
  Basis Set: (AUG-CC-PVTZ AUX)
    Blend: AUG-CC-PVTZ-JKFIT
	 Reference Energy          =   -1875.9136612506122219 [Eh]
	 Singles Energy            =      -0.0000000000000000 [Eh]
	 Same-Spin Energy          =      -0.2943983582087633 [Eh]
	 Opposite-Spin Energy      =      -0.8199191429551429 [Eh]
	 Correlation Energy        =      -1.1143175011639062 [Eh]
	 Total Energy              =   -1877.0279787517761179 [Eh]

	 ================> DF-SCS-MP2 Energies <==================
	-----------------------------------------------------------
	 SCS Same-Spin Scale       =       0.3333333333333333 [-]
	 SCS Opposite-Spin Scale   =       1.2000000000000000 [-]
	 SCS Same-Spin Energy      =      -0.0981327860695878 [Eh]
	 SCS Opposite-Spin Energy  =      -0.9839029715461715 [Eh]
	 SCS Correlation Energy    =      -1.0820357576157593 [Eh]
	 SCS Total Energy          =   -1876.9956970082280350 [Eh]
	-----------------------------------------------------------

  Dipole Moment: [D]
     X:    -0.0761      Y:    -0.0420      Z:    -0.0099     Total:     0.0875

*** Psi4 exiting successfully. Buy a developer a beer!
