                               Psi4 1.3.2 release

  ==> Input File <==

--------------------------------------------------------------------------
#psi4
#
memory 32 gb

molecule  {
0 1
 Cl       -0.0096090    -0.3539170     1.7341100
 Cl        1.4530530     0.9257540    -0.4051410
 Cl       -1.4370880     0.9451130    -0.4172060
 Cl       -0.0063540    -1.5169640    -0.9117550
  C       -0.0000080     0.0000410    -0.0000200
units angstrom
no_reorient  #important for SAPT in psi4, default
symmetry c1  #important for SAPT in psi4, default
}

set PROPERTIES_ORIGIN ["COM"]
properties('MP2/aug-cc-pvtz', properties = ['dipole'])
--------------------------------------------------------------------------

    Molecular point group: c1
  Charge       = 0
  Multiplicity = 1
  Basis Set: AUG-CC-PVTZ
    Blend: AUG-CC-PVTZ
  Basis Set: (AUG-CC-PVTZ AUX)
    Blend: AUG-CC-PVTZ-JKFIT

    Orbital Energies [Eh]
    ---------------------

    Doubly Occupied:

       1A   -104.878716     2A   -104.878714     3A   -104.878707
       4A   -104.878707     5A    -11.499713     6A    -10.603146
       7A    -10.603142     8A    -10.603137     9A    -10.603121
      10A     -8.069909    11A     -8.069907    12A     -8.069900
      13A     -8.069900    14A     -8.067621    15A     -8.067621
      16A     -8.067618    17A     -8.067618    18A     -8.067612
      19A     -8.067611    20A     -8.067611    21A     -8.067610
      22A     -1.282466    23A     -1.128286    24A     -1.128277
      25A     -1.128269    26A     -0.834212    27A     -0.658190
      28A     -0.658185    29A     -0.658181    30A     -0.532307
      31A     -0.532307    32A     -0.489154    33A     -0.489148
      34A     -0.489143    35A     -0.460821    36A     -0.460819
      37A     -0.460816

  @DF-RHF Final Energy: -1875.91637613170542

   => Energetics <=

    Nuclear Repulsion Energy =            439.4696557496091600
    One-Electron Energy =               -3467.4956257963240205
    Two-Electron Energy =                1152.1095939150095546
    Total Energy =                      -1875.9163761317054195
  Basis Set: (AUG-CC-PVTZ AUX)
    Blend: AUG-CC-PVTZ-RI
    Molecular point group: c1

    Geometry (in Angstrom), charge = 0, multiplicity = 1:

       Center              X                  Y                   Z               Mass
    ------------   -----------------  -----------------  -----------------  -----------------
         CL          -0.009608828397    -0.353917016040     1.734109738267    34.968852682000
         CL           1.453053171603     0.925753983960    -0.405141261733    34.968852682000
         CL          -1.437087828397     0.945112983960    -0.417206261733    34.968852682000
         CL          -0.006353828397    -1.516964016040    -0.911755261733    34.968852682000
         C           -0.000007828397     0.000040983960    -0.000020261733    12.000000000000

  Basis Set: AUG-CC-PVTZ
    Blend: AUG-CC-PVTZ
  Basis Set: (AUG-CC-PVTZ AUX)
    Blend: AUG-CC-PVTZ-JKFIT
	 Reference Energy          =   -1875.9163761317054195 [Eh]
	 Singles Energy            =      -0.0000000000000000 [Eh]
	 Same-Spin Energy          =      -0.2942824144972973 [Eh]
	 Opposite-Spin Energy      =      -0.8197316417804247 [Eh]
	 Correlation Energy        =      -1.1140140562777221 [Eh]
	 Total Energy              =   -1877.0303901879831301 [Eh]

	 ================> DF-SCS-MP2 Energies <==================
	-----------------------------------------------------------
	 SCS Same-Spin Scale       =       0.3333333333333333 [-]
	 SCS Opposite-Spin Scale   =       1.2000000000000000 [-]
	 SCS Same-Spin Energy      =      -0.0980941381657658 [Eh]
	 SCS Opposite-Spin Energy  =      -0.9836779701365096 [Eh]
	 SCS Correlation Energy    =      -1.0817721083022753 [Eh]
	 SCS Total Energy          =   -1876.9981482400075947 [Eh]
	-----------------------------------------------------------

  Dipole Moment: [D]
     X:    -0.0000      Y:     0.0002      Z:    -0.0001     Total:     0.0003

*** Psi4 exiting successfully. Buy a developer a beer!
