                               Psi4 1.4a2.dev612

  ==> Input File <==

--------------------------------------------------------------------------
#psi4
#
memory 32 gb

molecule  {
0 1
  O        3.0005300    -1.5493530     0.0754490
  N        0.8317470    -1.1153310    -0.4215630
  C        0.1960040     1.9504030    -0.2395030
  C        1.6857700     1.6448450    -0.3508570
  C       -0.7674710     0.7851500    -0.1025020
  C        2.1896661     0.6794632     0.5636688
  C       -0.4596220    -0.5879500    -0.1790540
  C        2.0510250    -0.7686880     0.1361100
  C       -2.1103850     1.1321340     0.1249900
  C       -1.4919760    -1.5397800    -0.0852490
  C       -3.1313420     0.1920050     0.2149350
  C       -2.8150140    -1.1632860     0.1069400
  H       -0.1141940     2.5504580    -1.1051150
  H        0.0480080     2.5950730     0.6372840
  H        1.9308140     1.2745600    -1.3520490
  H        2.2359360     2.5841340    -0.2253410
  H        1.5370720     0.7103830     1.6057590
  H        3.1934550     0.7649280     0.9813470
  H        0.8461440    -2.0798130    -0.7458600
  H       -2.3558010     2.1909910     0.2008090
  H       -1.2325710    -2.5958500    -0.1409630
  H       -4.1571650     0.5114050     0.3790120
  H       -3.5892060    -1.9233590     0.1747080
units angstrom
no_reorient  #important for SAPT in psi4, default
symmetry c1  #important for SAPT in psi4, default
}

set PROPERTIES_ORIGIN ["COM"]
properties('MP2/aug-cc-pvtz', properties = ['dipole'])
--------------------------------------------------------------------------

    Molecular point group: c1
  Charge       = 0
  Multiplicity = 1
  Basis Set: AUG-CC-PVTZ
    Blend: AUG-CC-PVTZ
  Basis Set: (AUG-CC-PVTZ AUX)
    Blend: AUG-CC-PVTZ-JKFIT

    Orbital Energies [Eh]
    ---------------------

    Doubly Occupied:

       1A    -20.526644     2A    -15.596842     3A    -11.357866
       4A    -11.297347     5A    -11.255716     6A    -11.250461
       7A    -11.246651     8A    -11.246476     9A    -11.245149
      10A    -11.244570    11A    -11.240081    12A    -11.236601
      13A     -1.380784    14A     -1.253578    15A     -1.151808
      16A     -1.115115    17A     -1.043473    18A     -1.016569
      19A     -0.954382    20A     -0.884936    21A     -0.843273
      22A     -0.807336    23A     -0.767132    24A     -0.721189
      25A     -0.678462    26A     -0.672835    27A     -0.650168
      28A     -0.632870    29A     -0.617420    30A     -0.604840
      31A     -0.595249    32A     -0.581311    33A     -0.562602
      34A     -0.542155    35A     -0.526719    36A     -0.504535
      37A     -0.498780    38A     -0.493757    39A     -0.468938
      40A     -0.436011    41A     -0.421867    42A     -0.340701
      43A     -0.316354

  @DF-RHF Final Energy:  -514.57240041586419

   => Energetics <=

    Nuclear Repulsion Energy =            675.7388032269116138
    One-Electron Energy =               -2038.9632998687616237
    Two-Electron Energy =                 848.6520962259858152
    Total Energy =                       -514.5724004158641947
  Basis Set: (AUG-CC-PVTZ AUX)
    Blend: AUG-CC-PVTZ-RI
    Molecular point group: c1

    Geometry (in Angstrom), charge = 0, multiplicity = 1:

       Center              X                  Y                   Z               Mass
    ------------   -----------------  -----------------  -----------------  -----------------
         O            2.987309455079    -1.512888464310     0.087925938196    15.994914619570
         N            0.818526455079    -1.078866464310    -0.409086061804    14.003074004430
         C            0.182783455079     1.986867535690    -0.227026061804    12.000000000000
         C            1.672549455079     1.681309535690    -0.338380061804    12.000000000000
         C           -0.780691544921     0.821614535690    -0.090025061804    12.000000000000
         C            2.176445555079     0.715927735690     0.576145738196    12.000000000000
         C           -0.472842544921    -0.551485464310    -0.166577061804    12.000000000000
         C            2.037804455079    -0.732223464310     0.148586938196    12.000000000000
         C           -2.123605544921     1.168598535690     0.137466938196    12.000000000000
         C           -1.505196544921    -1.503315464310    -0.072772061804    12.000000000000
         C           -3.144562544921     0.228469535690     0.227411938196    12.000000000000
         C           -2.828234544921    -1.126821464310     0.119416938196    12.000000000000
         H           -0.127414544921     2.586922535690    -1.092638061804     1.007825032230
         H            0.034787455079     2.631537535690     0.649760938196     1.007825032230
         H            1.917593455079     1.311024535690    -1.339572061804     1.007825032230
         H            2.222715455079     2.620598535690    -0.212864061804     1.007825032230
         H            1.523851455079     0.746847535690     1.618235938196     1.007825032230
         H            3.180234455079     0.801392535690     0.993823938196     1.007825032230
         H            0.832923455079    -2.043348464310    -0.733383061804     1.007825032230
         H           -2.369021544921     2.227455535690     0.213285938196     1.007825032230
         H           -1.245791544921    -2.559385464310    -0.128486061804     1.007825032230
         H           -4.170385544921     0.547869535690     0.391488938196     1.007825032230
         H           -3.602426544921    -1.886894464310     0.187184938196     1.007825032230

  Basis Set: AUG-CC-PVTZ
    Blend: AUG-CC-PVTZ
  Basis Set: (AUG-CC-PVTZ AUX)
    Blend: AUG-CC-PVTZ-JKFIT
	 Reference Energy          =    -514.5724004158641947 [Eh]
	 Singles Energy            =      -0.0000000000000000 [Eh]
	 Same-Spin Energy          =      -0.5591929313683892 [Eh]
	 Opposite-Spin Energy      =      -1.7448424568625174 [Eh]
	 Correlation Energy        =      -2.3040353882309068 [Eh]
	 Total Energy              =    -516.8764358040950810 [Eh]

	 ================> DF-SCS-MP2 Energies <==================
	-----------------------------------------------------------
	 SCS Same-Spin Scale       =       0.3333333333333333 [-]
	 SCS Opposite-Spin Scale   =       1.2000000000000000 [-]
	 SCS Same-Spin Energy      =      -0.1863976437894631 [Eh]
	 SCS Opposite-Spin Energy  =      -2.0938109482350207 [Eh]
	 SCS Correlation Energy    =      -2.2802085920244837 [Eh]
	 SCS Total Energy          =    -516.8526090078886455 [Eh]
	-----------------------------------------------------------

  Dipole Moment: [D]
     X:    -2.7231      Y:     2.0621      Z:    -0.0549     Total:     3.4162

*** Psi4 exiting successfully. Buy a developer a beer!
