                               Psi4 1.4a2.dev612

  ==> Input File <==

--------------------------------------------------------------------------
#psi4
#
memory 32 gb

molecule  {
0 1
  O        3.0005300    -1.5493530     0.0754490
  N        0.8317470    -1.1153310    -0.4215630
  C        0.1960040     1.9504030    -0.2395030
  C        1.6857700     1.6448450    -0.3508570
  C       -0.7674710     0.7851500    -0.1025020
  C        2.2311472     0.7338883     0.4301877
  C       -0.4596220    -0.5879500    -0.1790540
  C        2.0510250    -0.7686880     0.1361100
  C       -2.1103850     1.1321340     0.1249900
  C       -1.4919760    -1.5397800    -0.0852490
  C       -3.1313420     0.1920050     0.2149350
  C       -2.8150140    -1.1632860     0.1069400
  H       -0.1141940     2.5504580    -1.1051150
  H        0.0480080     2.5950730     0.6372840
  H        1.9308140     1.2745600    -1.3520490
  H        2.2359360     2.5841340    -0.2253410
  H        1.5370720     0.7103830     1.6057590
  H        3.1934550     0.7649280     0.9813470
  H        0.8461440    -2.0798130    -0.7458600
  H       -2.3558010     2.1909910     0.2008090
  H       -1.2325710    -2.5958500    -0.1409630
  H       -4.1571650     0.5114050     0.3790120
  H       -3.5892060    -1.9233590     0.1747080
units angstrom
no_reorient  #important for SAPT in psi4, default
symmetry c1  #important for SAPT in psi4, default
}

set PROPERTIES_ORIGIN ["COM"]
properties('MP2/aug-cc-pvtz', properties = ['dipole'])
--------------------------------------------------------------------------

    Molecular point group: c1
  Charge       = 0
  Multiplicity = 1
  Basis Set: AUG-CC-PVTZ
    Blend: AUG-CC-PVTZ
  Basis Set: (AUG-CC-PVTZ AUX)
    Blend: AUG-CC-PVTZ-JKFIT

    Orbital Energies [Eh]
    ---------------------

    Doubly Occupied:

       1A    -20.527961     2A    -15.597555     3A    -11.360951
       4A    -11.297496     5A    -11.262688     6A    -11.256468
       7A    -11.249891     8A    -11.246541     9A    -11.245443
      10A    -11.244706    11A    -11.240360    12A    -11.232646
      13A     -1.381586    14A     -1.254223    15A     -1.152555
      16A     -1.135582    17A     -1.048448    18A     -1.016906
      19A     -0.952541    20A     -0.889257    21A     -0.843820
      22A     -0.807747    23A     -0.768139    24A     -0.721370
      25A     -0.680306    26A     -0.676590    27A     -0.656626
      28A     -0.637619    29A     -0.622162    30A     -0.605734
      31A     -0.594252    32A     -0.584135    33A     -0.565095
      34A     -0.548430    35A     -0.530264    36A     -0.503862
      37A     -0.500238    38A     -0.491546    39A     -0.444476
      40A     -0.436076    41A     -0.405773    42A     -0.340883
      43A     -0.316750

  @DF-RHF Final Energy:  -514.51140764455636

   => Energetics <=

    Nuclear Repulsion Energy =            676.2498000184826878
    One-Electron Energy =               -2039.7710147941245395
    Two-Electron Energy =                 849.0098071310856085
    Total Energy =                       -514.5114076445563569
  Basis Set: (AUG-CC-PVTZ AUX)
    Blend: AUG-CC-PVTZ-RI
    Molecular point group: c1

    Geometry (in Angstrom), charge = 0, multiplicity = 1:

       Center              X                  Y                   Z               Mass
    ------------   -----------------  -----------------  -----------------  -----------------
         O            2.984219309551    -1.516942876546     0.097869648085    15.994914619570
         N            0.815436309551    -1.082920876546    -0.399142351915    14.003074004430
         C            0.179693309551     1.982813123454    -0.217082351915    12.000000000000
         C            1.669459309551     1.677255123454    -0.328436351915    12.000000000000
         C           -0.783781690449     0.817560123454    -0.080081351915    12.000000000000
         C            2.214836509551     0.766298423454     0.452608348085    12.000000000000
         C           -0.475932690449    -0.555539876546    -0.156633351915    12.000000000000
         C            2.034714309551    -0.736277876546     0.158530648085    12.000000000000
         C           -2.126695690449     1.164544123454     0.147410648085    12.000000000000
         C           -1.508286690449    -1.507369876546    -0.062828351915    12.000000000000
         C           -3.147652690449     0.224415123454     0.237355648085    12.000000000000
         C           -2.831324690449    -1.130875876546     0.129360648085    12.000000000000
         H           -0.130504690449     2.582868123454    -1.082694351915     1.007825032230
         H            0.031697309551     2.627483123454     0.659704648085     1.007825032230
         H            1.914503309551     1.306970123454    -1.329628351915     1.007825032230
         H            2.219625309551     2.616544123454    -0.202920351915     1.007825032230
         H            1.520761309551     0.742793123454     1.628179648085     1.007825032230
         H            3.177144309551     0.797338123454     1.003767648085     1.007825032230
         H            0.829833309551    -2.047402876546    -0.723439351915     1.007825032230
         H           -2.372111690449     2.223401123454     0.223229648085     1.007825032230
         H           -1.248881690449    -2.563439876546    -0.118542351915     1.007825032230
         H           -4.173475690449     0.543815123454     0.401432648085     1.007825032230
         H           -3.605516690449    -1.890948876546     0.197128648085     1.007825032230

  Basis Set: AUG-CC-PVTZ
    Blend: AUG-CC-PVTZ
  Basis Set: (AUG-CC-PVTZ AUX)
    Blend: AUG-CC-PVTZ-JKFIT
	 Reference Energy          =    -514.5114076445563569 [Eh]
	 Singles Energy            =      -0.0000000000000000 [Eh]
	 Same-Spin Energy          =      -0.5618119266439821 [Eh]
	 Opposite-Spin Energy      =      -1.7490870478850213 [Eh]
	 Correlation Energy        =      -2.3108989745290032 [Eh]
	 Total Energy              =    -516.8223066190853388 [Eh]

	 ================> DF-SCS-MP2 Energies <==================
	-----------------------------------------------------------
	 SCS Same-Spin Scale       =       0.3333333333333333 [-]
	 SCS Opposite-Spin Scale   =       1.2000000000000000 [-]
	 SCS Same-Spin Energy      =      -0.1872706422146607 [Eh]
	 SCS Opposite-Spin Energy  =      -2.0989044574620257 [Eh]
	 SCS Correlation Energy    =      -2.2861750996766865 [Eh]
	 SCS Total Energy          =    -516.7975827442330683 [Eh]
	-----------------------------------------------------------

  Dipole Moment: [D]
     X:    -2.7121      Y:     2.1000      Z:    -0.2390     Total:     3.4384

*** Psi4 exiting successfully. Buy a developer a beer!
