                               Psi4 1.4a2.dev612

  ==> Input File <==

--------------------------------------------------------------------------
#psi4
#
memory 32 gb

molecule  {
0 1
  O        3.0005300    -1.5493530     0.0754490
  N        0.8317470    -1.1153310    -0.4215630
  C        0.1960040     1.9504030    -0.2395030
  C        1.6857700     1.6448450    -0.3508570
  C       -0.7674710     0.7851500    -0.1025020
  C        2.1758391     0.6613214     0.6081626
  C       -0.4596220    -0.5879500    -0.1790540
  C        2.0510250    -0.7686880     0.1361100
  C       -2.1103850     1.1321340     0.1249900
  C       -1.4919760    -1.5397800    -0.0852490
  C       -3.1313420     0.1920050     0.2149350
  C       -2.8150140    -1.1632860     0.1069400
  H       -0.1141940     2.5504580    -1.1051150
  H        0.0480080     2.5950730     0.6372840
  H        1.9308140     1.2745600    -1.3520490
  H        2.2359360     2.5841340    -0.2253410
  H        1.5370720     0.7103830     1.6057590
  H        3.1934550     0.7649280     0.9813470
  H        0.8461440    -2.0798130    -0.7458600
  H       -2.3558010     2.1909910     0.2008090
  H       -1.2325710    -2.5958500    -0.1409630
  H       -4.1571650     0.5114050     0.3790120
  H       -3.5892060    -1.9233590     0.1747080
units angstrom
no_reorient  #important for SAPT in psi4, default
symmetry c1  #important for SAPT in psi4, default
}

set PROPERTIES_ORIGIN ["COM"]
properties('MP2/aug-cc-pvtz', properties = ['dipole'])
--------------------------------------------------------------------------

    Molecular point group: c1
  Charge       = 0
  Multiplicity = 1
  Basis Set: AUG-CC-PVTZ
    Blend: AUG-CC-PVTZ
  Basis Set: (AUG-CC-PVTZ AUX)
    Blend: AUG-CC-PVTZ-JKFIT

    Orbital Energies [Eh]
    ---------------------

    Doubly Occupied:

       1A    -20.526256     2A    -15.596599     3A    -11.357283
       4A    -11.297327     5A    -11.255527     6A    -11.247354
       7A    -11.246472     8A    -11.245941     9A    -11.245097
      10A    -11.244531    11A    -11.240003    12A    -11.238363
      13A     -1.380521    14A     -1.253381    15A     -1.151692
      16A     -1.109972    17A     -1.041895    18A     -1.016431
      19A     -0.955249    20A     -0.883374    21A     -0.843119
      22A     -0.807546    23A     -0.766634    24A     -0.721275
      25A     -0.678878    26A     -0.672066    27A     -0.648520
      28A     -0.631378    29A     -0.615432    30A     -0.604385
      31A     -0.596687    32A     -0.580419    33A     -0.562688
      34A     -0.541414    35A     -0.523442    36A     -0.505482
      37A     -0.497729    38A     -0.495425    39A     -0.476069
      40A     -0.435769    41A     -0.424083    42A     -0.340652
      43A     -0.316232

  @DF-RHF Final Energy:  -514.58419120833776

   => Energetics <=

    Nuclear Repulsion Energy =            675.5317021542932707
    One-Electron Energy =               -2038.5946031053131264
    Two-Electron Energy =                 848.4787097426820992
    Total Energy =                       -514.5841912083377565
  Basis Set: (AUG-CC-PVTZ AUX)
    Blend: AUG-CC-PVTZ-RI
    Molecular point group: c1

    Geometry (in Angstrom), charge = 0, multiplicity = 1:

       Center              X                  Y                   Z               Mass
    ------------   -----------------  -----------------  -----------------  -----------------
         O            2.988339501105    -1.511536986115     0.084611360783    15.994914619570
         N            0.819556501105    -1.077514986115    -0.412400639217    14.003074004430
         C            0.183813501105     1.988219013885    -0.230340639217    12.000000000000
         C            1.673579501105     1.682661013885    -0.341694639217    12.000000000000
         C           -0.779661498895     0.822966013885    -0.093339639217    12.000000000000
         C            2.163648601105     0.699137413885     0.617324960783    12.000000000000
         C           -0.471812498895    -0.550133986115    -0.169891639217    12.000000000000
         C            2.038834501105    -0.730871986115     0.145272360783    12.000000000000
         C           -2.122575498895     1.169950013885     0.134152360783    12.000000000000
         C           -1.504166498895    -1.501963986115    -0.076086639217    12.000000000000
         C           -3.143532498895     0.229821013885     0.224097360783    12.000000000000
         C           -2.827204498895    -1.125469986115     0.116102360783    12.000000000000
         H           -0.126384498895     2.588274013885    -1.095952639217     1.007825032230
         H            0.035817501105     2.632889013885     0.646446360783     1.007825032230
         H            1.918623501105     1.312376013885    -1.342886639217     1.007825032230
         H            2.223745501105     2.621950013885    -0.216178639217     1.007825032230
         H            1.524881501105     0.748199013885     1.614921360783     1.007825032230
         H            3.181264501105     0.802744013885     0.990509360783     1.007825032230
         H            0.833953501105    -2.041996986115    -0.736697639217     1.007825032230
         H           -2.367991498895     2.228807013885     0.209971360783     1.007825032230
         H           -1.244761498895    -2.558033986115    -0.131800639217     1.007825032230
         H           -4.169355498895     0.549221013885     0.388174360783     1.007825032230
         H           -3.601396498895    -1.885542986115     0.183870360783     1.007825032230

  Basis Set: AUG-CC-PVTZ
    Blend: AUG-CC-PVTZ
  Basis Set: (AUG-CC-PVTZ AUX)
    Blend: AUG-CC-PVTZ-JKFIT
	 Reference Energy          =    -514.5841912083377565 [Eh]
	 Singles Energy            =      -0.0000000000000000 [Eh]
	 Same-Spin Energy          =      -0.5586136362920222 [Eh]
	 Opposite-Spin Energy      =      -1.7439730809213647 [Eh]
	 Correlation Energy        =      -2.3025867172133871 [Eh]
	 Total Energy              =    -516.8867779255510868 [Eh]

	 ================> DF-SCS-MP2 Energies <==================
	-----------------------------------------------------------
	 SCS Same-Spin Scale       =       0.3333333333333333 [-]
	 SCS Opposite-Spin Scale   =       1.2000000000000000 [-]
	 SCS Same-Spin Energy      =      -0.1862045454306741 [Eh]
	 SCS Opposite-Spin Energy  =      -2.0927676971056375 [Eh]
	 SCS Correlation Energy    =      -2.2789722425363115 [Eh]
	 SCS Total Energy          =    -516.8631634508740262 [Eh]
	-----------------------------------------------------------

  Dipole Moment: [D]
     X:    -2.7291      Y:     2.0591      Z:    -0.0159     Total:     3.4188

*** Psi4 exiting successfully. Buy a developer a beer!
