                               Psi4 1.4a2.dev612

  ==> Input File <==

--------------------------------------------------------------------------
#psi4
#
memory 32 gb

molecule  {
0 1
  O        3.0005300    -1.5493530     0.0754490
  N        0.8317470    -1.1153310    -0.4215630
  C        0.1960040     1.9504030    -0.2395030
  C        1.6857700     1.6448450    -0.3508570
  C       -0.7674710     0.7851500    -0.1025020
  C        2.2034931     0.6976049     0.5191751
  C       -0.4596220    -0.5879500    -0.1790540
  C        2.0510250    -0.7686880     0.1361100
  C       -2.1103850     1.1321340     0.1249900
  C       -1.4919760    -1.5397800    -0.0852490
  C       -3.1313420     0.1920050     0.2149350
  C       -2.8150140    -1.1632860     0.1069400
  H       -0.1141940     2.5504580    -1.1051150
  H        0.0480080     2.5950730     0.6372840
  H        1.9308140     1.2745600    -1.3520490
  H        2.2359360     2.5841340    -0.2253410
  H        1.5370720     0.7103830     1.6057590
  H        3.1934550     0.7649280     0.9813470
  H        0.8461440    -2.0798130    -0.7458600
  H       -2.3558010     2.1909910     0.2008090
  H       -1.2325710    -2.5958500    -0.1409630
  H       -4.1571650     0.5114050     0.3790120
  H       -3.5892060    -1.9233590     0.1747080
units angstrom
no_reorient  #important for SAPT in psi4, default
symmetry c1  #important for SAPT in psi4, default
}

set PROPERTIES_ORIGIN ["COM"]
properties('MP2/aug-cc-pvtz', properties = ['dipole'])
--------------------------------------------------------------------------

    Molecular point group: c1
  Charge       = 0
  Multiplicity = 1
  Basis Set: AUG-CC-PVTZ
    Blend: AUG-CC-PVTZ
  Basis Set: (AUG-CC-PVTZ AUX)
    Blend: AUG-CC-PVTZ-JKFIT

    Orbital Energies [Eh]
    ---------------------

    Doubly Occupied:

       1A    -20.527067     2A    -15.597085     3A    -11.358695
       4A    -11.297379     5A    -11.255932     6A    -11.254079
       7A    -11.247531     8A    -11.246487     9A    -11.245221
      10A    -11.244611    11A    -11.240164    12A    -11.235026
      13A     -1.381058    14A     -1.253784    15A     -1.151961
      16A     -1.121074    17A     -1.045097    18A     -1.016693
      19A     -0.953609    20A     -0.886496    21A     -0.843440
      22A     -0.807333    23A     -0.767566    24A     -0.721180
      25A     -0.678608    26A     -0.673792    27A     -0.652118
      28A     -0.634475    29A     -0.619204    30A     -0.605189
      31A     -0.594346    32A     -0.582265    33A     -0.563041
      34A     -0.543788    35A     -0.528907    36A     -0.504207
      37A     -0.499370    38A     -0.492674    39A     -0.460288
      40A     -0.436231    41A     -0.418379    42A     -0.340756
      43A     -0.316480

  @DF-RHF Final Energy:  -514.55630445352574

   => Energetics <=

    Nuclear Repulsion Energy =            675.9276417358978506
    One-Electron Energy =               -2039.2825183074135111
    Two-Electron Energy =                 848.7985721179899201
    Total Energy =                       -514.5563044535257404
  Basis Set: (AUG-CC-PVTZ AUX)
    Blend: AUG-CC-PVTZ-RI
    Molecular point group: c1

    Geometry (in Angstrom), charge = 0, multiplicity = 1:

       Center              X                  Y                   Z               Mass
    ------------   -----------------  -----------------  -----------------  -----------------
         O            2.986279409053    -1.514239935055     0.091240508159    15.994914619570
         N            0.817496409053    -1.080217935055    -0.405771491841    14.003074004430
         C            0.181753409053     1.985516064945    -0.223711491841    12.000000000000
         C            1.671519409053     1.679958064945    -0.335065491841    12.000000000000
         C           -0.781721590947     0.820263064945    -0.086710491841    12.000000000000
         C            2.189242509053     0.732717964945     0.534966608159    12.000000000000
         C           -0.473872590947    -0.552836935055    -0.163262491841    12.000000000000
         C            2.036774409053    -0.733574935055     0.151901508159    12.000000000000
         C           -2.124635590947     1.167247064945     0.140781508159    12.000000000000
         C           -1.506226590947    -1.504666935055    -0.069457491841    12.000000000000
         C           -3.145592590947     0.227118064945     0.230726508159    12.000000000000
         C           -2.829264590947    -1.128172935055     0.122731508159    12.000000000000
         H           -0.128444590947     2.585571064945    -1.089323491841     1.007825032230
         H            0.033757409053     2.630186064945     0.653075508159     1.007825032230
         H            1.916563409053     1.309673064945    -1.336257491841     1.007825032230
         H            2.221685409053     2.619247064945    -0.209549491841     1.007825032230
         H            1.522821409053     0.745496064945     1.621550508159     1.007825032230
         H            3.179204409053     0.800041064945     0.997138508159     1.007825032230
         H            0.831893409053    -2.044699935055    -0.730068491841     1.007825032230
         H           -2.370051590947     2.226104064945     0.216600508159     1.007825032230
         H           -1.246821590947    -2.560736935055    -0.125171491841     1.007825032230
         H           -4.171415590947     0.546518064945     0.394803508159     1.007825032230
         H           -3.603456590947    -1.888245935055     0.190499508159     1.007825032230

  Basis Set: AUG-CC-PVTZ
    Blend: AUG-CC-PVTZ
  Basis Set: (AUG-CC-PVTZ AUX)
    Blend: AUG-CC-PVTZ-JKFIT
	 Reference Energy          =    -514.5563044535257404 [Eh]
	 Singles Energy            =      -0.0000000000000000 [Eh]
	 Same-Spin Energy          =      -0.5599172613651724 [Eh]
	 Opposite-Spin Energy      =      -1.7459811622532939 [Eh]
	 Correlation Energy        =      -2.3058984236184665 [Eh]
	 Total Energy              =    -516.8622028771442274 [Eh]

	 ================> DF-SCS-MP2 Energies <==================
	-----------------------------------------------------------
	 SCS Same-Spin Scale       =       0.3333333333333333 [-]
	 SCS Opposite-Spin Scale   =       1.2000000000000000 [-]
	 SCS Same-Spin Energy      =      -0.1866390871217241 [Eh]
	 SCS Opposite-Spin Energy  =      -2.0951773947039527 [Eh]
	 SCS Correlation Energy    =      -2.2818164818256768 [Eh]
	 SCS Total Energy          =    -516.8381209353514123 [Eh]
	-----------------------------------------------------------

  Dipole Moment: [D]
     X:    -2.7177      Y:     2.0692      Z:    -0.1044     Total:     3.4173

*** Psi4 exiting successfully. Buy a developer a beer!
