                               Psi4 1.4a2.dev612

  ==> Input File <==

--------------------------------------------------------------------------
#psi4
#
memory 32 gb

molecule  {
0 1
  O        3.0005300    -1.5493530     0.0754490
  N        0.8317470    -1.1153310    -0.4215630
  C        0.1960040     1.9504030    -0.2395030
  C        1.6857700     1.6448450    -0.3508570
  C       -0.7674710     0.7851500    -0.1025020
  C        2.1481850     0.6250380     0.6971500
  C       -0.4596220    -0.5879500    -0.1790540
  C        2.0510250    -0.7686880     0.1361100
  C       -2.1103850     1.1321340     0.1249900
  C       -1.4769575    -1.5437270     0.0135380
  C       -3.1313420     0.1920050     0.2149350
  C       -2.8150140    -1.1632860     0.1069400
  H       -0.1141940     2.5504580    -1.1051150
  H        0.0480080     2.5950730     0.6372840
  H        1.9308140     1.2745600    -1.3520490
  H        2.2359360     2.5841340    -0.2253410
  H        1.5370720     0.7103830     1.6057590
  H        3.1934550     0.7649280     0.9813470
  H        0.8461440    -2.0798130    -0.7458600
  H       -2.3558010     2.1909910     0.2008090
  H       -1.2325710    -2.5958500    -0.1409630
  H       -4.1571650     0.5114050     0.3790120
  H       -3.5892060    -1.9233590     0.1747080
units angstrom
no_reorient  #important for SAPT in psi4, default
symmetry c1  #important for SAPT in psi4, default
}

set PROPERTIES_ORIGIN ["COM"]
properties('MP2/aug-cc-pvtz', properties = ['dipole'])
--------------------------------------------------------------------------

    Molecular point group: c1
  Charge       = 0
  Multiplicity = 1
  Basis Set: AUG-CC-PVTZ
    Blend: AUG-CC-PVTZ
  Basis Set: (AUG-CC-PVTZ AUX)
    Blend: AUG-CC-PVTZ-JKFIT

    Orbital Energies [Eh]
    ---------------------

    Doubly Occupied:

       1A    -20.525526     2A    -15.595601     3A    -11.356849
       4A    -11.297403     5A    -11.255529     6A    -11.247202
       7A    -11.245421     8A    -11.245210     9A    -11.245065
      10A    -11.242785    11A    -11.242120    12A    -11.240230
      13A     -1.379907    14A     -1.252653    15A     -1.151295
      16A     -1.101647    17A     -1.038690    18A     -1.015809
      19A     -0.957107    20A     -0.879949    21A     -0.842775
      22A     -0.808500    23A     -0.766055    24A     -0.721399
      25A     -0.681232    26A     -0.670492    27A     -0.646599
      28A     -0.629326    29A     -0.611108    30A     -0.602296
      31A     -0.600491    32A     -0.578752    33A     -0.564342
      34A     -0.541841    35A     -0.517679    36A     -0.510061
      37A     -0.499077    38A     -0.490585    39A     -0.482912
      40A     -0.433205    41A     -0.425978    42A     -0.340259
      43A     -0.317506

  @DF-RHF Final Energy:  -514.59198011921205

   => Energetics <=

    Nuclear Repulsion Energy =            675.0347579024537481
    One-Electron Energy =               -2037.6565445388780518
    Two-Electron Energy =                 848.0298065172122506
    Total Energy =                       -514.5919801192120531
  Basis Set: (AUG-CC-PVTZ AUX)
    Blend: AUG-CC-PVTZ-RI
    Molecular point group: c1

    Geometry (in Angstrom), charge = 0, multiplicity = 1:

       Center              X                  Y                   Z               Mass
    ------------   -----------------  -----------------  -----------------  -----------------
         O            2.989280793473    -1.508540011814     0.070623057134    15.994914619570
         N            0.820497793473    -1.074518011814    -0.426388942866    14.003074004430
         C            0.184754793473     1.991215988186    -0.244328942866    12.000000000000
         C            1.674520793473     1.685657988186    -0.355682942866    12.000000000000
         C           -0.778720206527     0.825962988186    -0.107327942866    12.000000000000
         C            2.136935793473     0.665850988186     0.692324057134    12.000000000000
         C           -0.470871206527    -0.547137011814    -0.183879942866    12.000000000000
         C            2.039775793473    -0.727875011814     0.131284057134    12.000000000000
         C           -2.121634206527     1.172946988186     0.120164057134    12.000000000000
         C           -1.488206706527    -1.502914011814     0.008712057134    12.000000000000
         C           -3.142591206527     0.232817988186     0.210109057134    12.000000000000
         C           -2.826263206527    -1.122473011814     0.102114057134    12.000000000000
         H           -0.125443206527     2.591270988186    -1.109940942866     1.007825032230
         H            0.036758793473     2.635885988186     0.632458057134     1.007825032230
         H            1.919564793473     1.315372988186    -1.356874942866     1.007825032230
         H            2.224686793473     2.624946988186    -0.230166942866     1.007825032230
         H            1.525822793473     0.751195988186     1.600933057134     1.007825032230
         H            3.182205793473     0.805740988186     0.976521057134     1.007825032230
         H            0.834894793473    -2.039000011814    -0.750685942866     1.007825032230
         H           -2.367050206527     2.231803988186     0.195983057134     1.007825032230
         H           -1.243820206527    -2.555037011814    -0.145788942866     1.007825032230
         H           -4.168414206527     0.552217988186     0.374186057134     1.007825032230
         H           -3.600455206527    -1.882546011814     0.169882057134     1.007825032230

  Basis Set: AUG-CC-PVTZ
    Blend: AUG-CC-PVTZ
  Basis Set: (AUG-CC-PVTZ AUX)
    Blend: AUG-CC-PVTZ-JKFIT
	 Reference Energy          =    -514.5919801192120531 [Eh]
	 Singles Energy            =      -0.0000000000000000 [Eh]
	 Same-Spin Energy          =      -0.5579675718852537 [Eh]
	 Opposite-Spin Energy      =      -1.7433694850108481 [Eh]
	 Correlation Energy        =      -2.3013370568961018 [Eh]
	 Total Energy              =    -516.8933171761080985 [Eh]

	 ================> DF-SCS-MP2 Energies <==================
	-----------------------------------------------------------
	 SCS Same-Spin Scale       =       0.3333333333333333 [-]
	 SCS Opposite-Spin Scale   =       1.2000000000000000 [-]
	 SCS Same-Spin Energy      =      -0.1859891906284179 [Eh]
	 SCS Opposite-Spin Energy  =      -2.0920433820130175 [Eh]
	 SCS Correlation Energy    =      -2.2780325726414352 [Eh]
	 SCS Total Energy          =    -516.8700126918535034 [Eh]
	-----------------------------------------------------------

  Dipole Moment: [D]
     X:    -2.7662      Y:     2.0876      Z:    -0.0228     Total:     3.4656

*** Psi4 exiting successfully. Buy a developer a beer!
