                               Psi4 1.4a2.dev612

  ==> Input File <==

--------------------------------------------------------------------------
#psi4
#
memory 32 gb

molecule  {
0 1
  O        3.0005300    -1.5493530     0.0754490
  N        0.8317470    -1.1153310    -0.4215630
  C        0.1960040     1.9504030    -0.2395030
  C        1.6857700     1.6448450    -0.3508570
  C       -0.7674710     0.7851500    -0.1025020
  C        2.1481850     0.6250380     0.6971500
  C       -0.4596220    -0.5879500    -0.1790540
  C        2.0510250    -0.7686880     0.1361100
  C       -2.1103850     1.1321340     0.1249900
  C       -1.4919760    -1.5397800    -0.0852490
  C       -3.1313420     0.1920050     0.2149350
  C       -2.8150140    -1.1632860     0.1069400
  H       -0.1141940     2.5504580    -1.1051150
  H        0.0480080     2.5950730     0.6372840
  H        1.9308140     1.2745600    -1.3520490
  H        2.2359360     2.5841340    -0.2253410
  H        1.5370720     0.7103830     1.6057590
  H        3.1934550     0.7649280     0.9813470
  H        0.8461440    -2.0798130    -0.7458600
  H       -2.3558010     2.1909910     0.2008090
  H       -1.2325710    -2.5958500    -0.1409630
  H       -4.1571650     0.5114050     0.3790120
  H       -3.5892060    -1.9233590     0.1747080
units angstrom
no_reorient  #important for SAPT in psi4, default
symmetry c1  #important for SAPT in psi4, default
}

set PROPERTIES_ORIGIN ["COM"]
properties('MP2/aug-cc-pvtz', properties = ['dipole'])
--------------------------------------------------------------------------

    Molecular point group: c1
  Charge       = 0
  Multiplicity = 1
  Basis Set: AUG-CC-PVTZ
    Blend: AUG-CC-PVTZ
  Basis Set: (AUG-CC-PVTZ AUX)
    Blend: AUG-CC-PVTZ-JKFIT

    Orbital Energies [Eh]
    ---------------------

    Doubly Occupied:

       1A    -20.525634     2A    -15.596125     3A    -11.356973
       4A    -11.297314     5A    -11.255211     6A    -11.246477
       7A    -11.245044     8A    -11.244966     9A    -11.244456
      10A    -11.242890    11A    -11.242156    12A    -11.239860
      13A     -1.380069    14A     -1.253014    15A     -1.151521
      16A     -1.101811    17A     -1.038928    18A     -1.016122
      19A     -0.957169    20A     -0.880469    21A     -0.842838
      22A     -0.808771    23A     -0.765631    24A     -0.721780
      25A     -0.681658    26A     -0.670963    27A     -0.646102
      28A     -0.629008    29A     -0.611351    30A     -0.603099
      31A     -0.600903    32A     -0.578897    33A     -0.564529
      34A     -0.542097    35A     -0.517668    36A     -0.510794
      37A     -0.498218    38A     -0.491885    39A     -0.482808
      40A     -0.435317    41A     -0.425918    42A     -0.340560
      43A     -0.316003

  @DF-RHF Final Energy:  -514.59437509876034

   => Energetics <=

    Nuclear Repulsion Energy =            675.0640343295946195
    One-Electron Energy =               -2037.7108090196334160
    Two-Electron Energy =                 848.0523995912785722
    Total Energy =                       -514.5943750987603380
  Basis Set: (AUG-CC-PVTZ AUX)
    Blend: AUG-CC-PVTZ-RI
    Molecular point group: c1

    Geometry (in Angstrom), charge = 0, multiplicity = 1:

       Center              X                  Y                   Z               Mass
    ------------   -----------------  -----------------  -----------------  -----------------
         O            2.990399600607    -1.508834044624     0.077982220857    15.994914619570
         N            0.821616600607    -1.074812044624    -0.419029779143    14.003074004430
         C            0.185873600607     1.990921955376    -0.236969779143    12.000000000000
         C            1.675639600607     1.685363955376    -0.348323779143    12.000000000000
         C           -0.777601399393     0.825668955376    -0.099968779143    12.000000000000
         C            2.138054600607     0.665556955376     0.699683220857    12.000000000000
         C           -0.469752399393    -0.547431044624    -0.176520779143    12.000000000000
         C            2.040894600607    -0.728169044624     0.138643220857    12.000000000000
         C           -2.120515399393     1.172652955376     0.127523220857    12.000000000000
         C           -1.502106399393    -1.499261044624    -0.082715779143    12.000000000000
         C           -3.141472399393     0.232523955376     0.217468220857    12.000000000000
         C           -2.825144399393    -1.122767044624     0.109473220857    12.000000000000
         H           -0.124324399393     2.590976955376    -1.102581779143     1.007825032230
         H            0.037877600607     2.635591955376     0.639817220857     1.007825032230
         H            1.920683600607     1.315078955376    -1.349515779143     1.007825032230
         H            2.225805600607     2.624652955376    -0.222807779143     1.007825032230
         H            1.526941600607     0.750901955376     1.608292220857     1.007825032230
         H            3.183324600607     0.805446955376     0.983880220857     1.007825032230
         H            0.836013600607    -2.039294044624    -0.743326779143     1.007825032230
         H           -2.365931399393     2.231509955376     0.203342220857     1.007825032230
         H           -1.242701399393    -2.555331044624    -0.138429779143     1.007825032230
         H           -4.167295399393     0.551923955376     0.381545220857     1.007825032230
         H           -3.599336399393    -1.882840044624     0.177241220857     1.007825032230

  Basis Set: AUG-CC-PVTZ
    Blend: AUG-CC-PVTZ
  Basis Set: (AUG-CC-PVTZ AUX)
    Blend: AUG-CC-PVTZ-JKFIT
	 Reference Energy          =    -514.5943750987603380 [Eh]
	 Singles Energy            =      -0.0000000000000000 [Eh]
	 Same-Spin Energy          =      -0.5578750695791779 [Eh]
	 Opposite-Spin Energy      =      -1.7430456419030738 [Eh]
	 Correlation Energy        =      -2.3009207114822514 [Eh]
	 Total Energy              =    -516.8952958102426010 [Eh]

	 ================> DF-SCS-MP2 Energies <==================
	-----------------------------------------------------------
	 SCS Same-Spin Scale       =       0.3333333333333333 [-]
	 SCS Opposite-Spin Scale   =       1.2000000000000000 [-]
	 SCS Same-Spin Energy      =      -0.1859583565263926 [Eh]
	 SCS Opposite-Spin Energy  =      -2.0916547702836885 [Eh]
	 SCS Correlation Energy    =      -2.2776131268100812 [Eh]
	 SCS Total Energy          =    -516.8719882255704761 [Eh]
	-----------------------------------------------------------

  Dipole Moment: [D]
     X:    -2.7412      Y:     2.0618      Z:     0.0346     Total:     3.4303

*** Psi4 exiting successfully. Buy a developer a beer!
