                               Psi4 1.4a2.dev612

  ==> Input File <==

--------------------------------------------------------------------------
#psi4
#
memory 32 gb

molecule  {
0 1
  O        3.0005300    -1.5493530     0.0754490
  N        0.8317470    -1.1153310    -0.4215630
  C        0.1960040     1.9504030    -0.2395030
  C        1.6857700     1.6448450    -0.3508570
  C       -0.7674710     0.7851500    -0.1025020
  C        2.1481850     0.6250380     0.6971500
  C       -0.4596220    -0.5879500    -0.1790540
  C        2.0510250    -0.7686880     0.1361100
  C       -2.1266312     1.1339808     0.0263358
  C       -1.4919760    -1.5397800    -0.0852490
  C       -3.1313420     0.1920050     0.2149350
  C       -2.8150140    -1.1632860     0.1069400
  H       -0.1141940     2.5504580    -1.1051150
  H        0.0480080     2.5950730     0.6372840
  H        1.9308140     1.2745600    -1.3520490
  H        2.2359360     2.5841340    -0.2253410
  H        1.5370720     0.7103830     1.6057590
  H        3.1934550     0.7649280     0.9813470
  H        0.8461440    -2.0798130    -0.7458600
  H       -2.3558010     2.1909910     0.2008090
  H       -1.2325710    -2.5958500    -0.1409630
  H       -4.1571650     0.5114050     0.3790120
  H       -3.5892060    -1.9233590     0.1747080
units angstrom
no_reorient  #important for SAPT in psi4, default
symmetry c1  #important for SAPT in psi4, default
}

set PROPERTIES_ORIGIN ["COM"]
properties('MP2/aug-cc-pvtz', properties = ['dipole'])
--------------------------------------------------------------------------

    Molecular point group: c1
  Charge       = 0
  Multiplicity = 1
  Basis Set: AUG-CC-PVTZ
    Blend: AUG-CC-PVTZ
  Basis Set: (AUG-CC-PVTZ AUX)
    Blend: AUG-CC-PVTZ-JKFIT

    Orbital Energies [Eh]
    ---------------------

    Doubly Occupied:

       1A    -20.525629     2A    -15.596085     3A    -11.356956
       4A    -11.297229     5A    -11.255699     6A    -11.246539
       7A    -11.245533     8A    -11.244947     9A    -11.244865
      10A    -11.242987    11A    -11.242174    12A    -11.240184
      13A     -1.380078    14A     -1.253036    15A     -1.151402
      16A     -1.101830    17A     -1.038817    18A     -1.016188
      19A     -0.957074    20A     -0.880476    21A     -0.842485
      22A     -0.808702    23A     -0.765466    24A     -0.721316
      25A     -0.682010    26A     -0.671176    27A     -0.645575
      28A     -0.628665    29A     -0.610872    30A     -0.602765
      31A     -0.600011    32A     -0.578673    33A     -0.565864
      34A     -0.541793    35A     -0.516919    36A     -0.510946
      37A     -0.498149    38A     -0.492209    39A     -0.482408
      40A     -0.434837    41A     -0.425949    42A     -0.340530
      43A     -0.315935

  @DF-RHF Final Energy:  -514.59175685148455

   => Energetics <=

    Nuclear Repulsion Energy =            674.9377638928328906
    One-Electron Energy =               -2037.4570711919525365
    Two-Electron Energy =                 847.9275504476350989
    Total Energy =                       -514.5917568514845470
  Basis Set: (AUG-CC-PVTZ AUX)
    Blend: AUG-CC-PVTZ-RI
    Molecular point group: c1

    Geometry (in Angstrom), charge = 0, multiplicity = 1:

       Center              X                  Y                   Z               Mass
    ------------   -----------------  -----------------  -----------------  -----------------
         O            2.991609865578    -1.508971622479     0.085331491609    15.994914619570
         N            0.822826865578    -1.074949622479    -0.411680508391    14.003074004430
         C            0.187083865578     1.990784377521    -0.229620508391    12.000000000000
         C            1.676849865578     1.685226377521    -0.340974508391    12.000000000000
         C           -0.776391134422     0.825531377521    -0.092619508391    12.000000000000
         C            2.139264865578     0.665419377521     0.707032491609    12.000000000000
         C           -0.468542134422    -0.547568622479    -0.169171508391    12.000000000000
         C            2.042104865578    -0.728306622479     0.145992491609    12.000000000000
         C           -2.135551334422     1.174362177521     0.036218291609    12.000000000000
         C           -1.500896134422    -1.499398622479    -0.075366508391    12.000000000000
         C           -3.140262134422     0.232386377521     0.224817491609    12.000000000000
         C           -2.823934134422    -1.122904622479     0.116822491609    12.000000000000
         H           -0.123114134422     2.590839377521    -1.095232508391     1.007825032230
         H            0.039087865578     2.635454377521     0.647166491609     1.007825032230
         H            1.921893865578     1.314941377521    -1.342166508391     1.007825032230
         H            2.227015865578     2.624515377521    -0.215458508391     1.007825032230
         H            1.528151865578     0.750764377521     1.615641491609     1.007825032230
         H            3.184534865578     0.805309377521     0.991229491609     1.007825032230
         H            0.837223865578    -2.039431622479    -0.735977508391     1.007825032230
         H           -2.364721134422     2.231372377521     0.210691491609     1.007825032230
         H           -1.241491134422    -2.555468622479    -0.131080508391     1.007825032230
         H           -4.166085134422     0.551786377521     0.388894491609     1.007825032230
         H           -3.598126134422    -1.882977622479     0.184590491609     1.007825032230

  Basis Set: AUG-CC-PVTZ
    Blend: AUG-CC-PVTZ
  Basis Set: (AUG-CC-PVTZ AUX)
    Blend: AUG-CC-PVTZ-JKFIT
	 Reference Energy          =    -514.5917568514845470 [Eh]
	 Singles Energy            =      -0.0000000000000000 [Eh]
	 Same-Spin Energy          =      -0.5579969300011463 [Eh]
	 Opposite-Spin Energy      =      -1.7433555664880125 [Eh]
	 Correlation Energy        =      -2.3013524964891587 [Eh]
	 Total Energy              =    -516.8931093479736774 [Eh]

	 ================> DF-SCS-MP2 Energies <==================
	-----------------------------------------------------------
	 SCS Same-Spin Scale       =       0.3333333333333333 [-]
	 SCS Opposite-Spin Scale   =       1.2000000000000000 [-]
	 SCS Same-Spin Energy      =      -0.1859989766670487 [Eh]
	 SCS Opposite-Spin Energy  =      -2.0920266797856151 [Eh]
	 SCS Correlation Energy    =      -2.2780256564526637 [Eh]
	 SCS Total Energy          =    -516.8697825079372024 [Eh]
	-----------------------------------------------------------

  Dipole Moment: [D]
     X:    -2.7275      Y:     2.0385      Z:     0.0969     Total:     3.4064

*** Psi4 exiting successfully. Buy a developer a beer!
