                               Psi4 1.4a2.dev612

  ==> Input File <==

--------------------------------------------------------------------------
#psi4
#
memory 32 gb

molecule  {
0 1
  O        3.0005300    -1.5493530     0.0754490
  N        0.8317470    -1.1153310    -0.4215630
  C        0.1960040     1.9504030    -0.2395030
  C        1.6857700     1.6448450    -0.3508570
  C       -0.7674710     0.7851500    -0.1025020
  C        2.1620120     0.6431797     0.6526563
  C       -0.4596220    -0.5879500    -0.1790540
  C        2.0510250    -0.7686880     0.1361100
  C       -2.1103850     1.1321340     0.1249900
  C       -1.4919760    -1.5397800    -0.0852490
  C       -3.1313420     0.1920050     0.2149350
  C       -2.8150140    -1.1632860     0.1069400
  H       -0.1141940     2.5504580    -1.1051150
  H        0.0480080     2.5950730     0.6372840
  H        1.9308140     1.2745600    -1.3520490
  H        2.2359360     2.5841340    -0.2253410
  H        1.5370720     0.7103830     1.6057590
  H        3.1934550     0.7649280     0.9813470
  H        0.8461440    -2.0798130    -0.7458600
  H       -2.3558010     2.1909910     0.2008090
  H       -1.2325710    -2.5958500    -0.1409630
  H       -4.1571650     0.5114050     0.3790120
  H       -3.5892060    -1.9233590     0.1747080
units angstrom
no_reorient  #important for SAPT in psi4, default
symmetry c1  #important for SAPT in psi4, default
}

set PROPERTIES_ORIGIN ["COM"]
properties('MP2/aug-cc-pvtz', properties = ['dipole'])
--------------------------------------------------------------------------

    Molecular point group: c1
  Charge       = 0
  Multiplicity = 1
  Basis Set: AUG-CC-PVTZ
    Blend: AUG-CC-PVTZ
  Basis Set: (AUG-CC-PVTZ AUX)
    Blend: AUG-CC-PVTZ-JKFIT

    Orbital Energies [Eh]
    ---------------------

    Doubly Occupied:

       1A    -20.525915     2A    -15.596359     3A    -11.356977
       4A    -11.297317     5A    -11.255360     6A    -11.246473
       7A    -11.245386     8A    -11.245059     9A    -11.244788
      10A    -11.244493    11A    -11.240266    12A    -11.239930
      13A     -1.380280    14A     -1.253192    15A     -1.151598
      16A     -1.105566    17A     -1.040375    18A     -1.016281
      19A     -0.956182    20A     -0.881872    21A     -0.842974
      22A     -0.808008    23A     -0.766115    24A     -0.721459
      25A     -0.679922    26A     -0.671449    27A     -0.647173
      28A     -0.630080    29A     -0.613345    30A     -0.603772
      31A     -0.598641    32A     -0.579607    33A     -0.563339
      34A     -0.541483    35A     -0.519894    36A     -0.507824
      37A     -0.497205    38A     -0.495580    39A     -0.480598
      40A     -0.435533    41A     -0.425369    42A     -0.340605
      43A     -0.316115

  @DF-RHF Final Energy:  -514.59157217219763

   => Energetics <=

    Nuclear Repulsion Energy =            675.3066344085898436
    One-Electron Energy =               -2038.1769031476269447
    Two-Electron Energy =                 848.2786965668394714
    Total Energy =                       -514.5915721721976297
  Basis Set: (AUG-CC-PVTZ AUX)
    Blend: AUG-CC-PVTZ-RI
    Molecular point group: c1

    Geometry (in Angstrom), charge = 0, multiplicity = 1:

       Center              X                  Y                   Z               Mass
    ------------   -----------------  -----------------  -----------------  -----------------
         O            2.989369554581    -1.510185515370     0.081296790820    15.994914619570
         N            0.820586554581    -1.076163515370    -0.415715209180    14.003074004430
         C            0.184843554581     1.989570484630    -0.233655209180    12.000000000000
         C            1.674609554581     1.684012484630    -0.345009209180    12.000000000000
         C           -0.778631445419     0.824317484630    -0.096654209180    12.000000000000
         C            2.150851554581     0.682347184630     0.658504090820    12.000000000000
         C           -0.470782445419    -0.548782515370    -0.173206209180    12.000000000000
         C            2.039864554581    -0.729520515370     0.141957790820    12.000000000000
         C           -2.121545445419     1.171301484630     0.130837790820    12.000000000000
         C           -1.503136445419    -1.500612515370    -0.079401209180    12.000000000000
         C           -3.142502445419     0.231172484630     0.220782790820    12.000000000000
         C           -2.826174445419    -1.124118515370     0.112787790820    12.000000000000
         H           -0.125354445419     2.589625484630    -1.099267209180     1.007825032230
         H            0.036847554581     2.634240484630     0.643131790820     1.007825032230
         H            1.919653554581     1.313727484630    -1.346201209180     1.007825032230
         H            2.224775554581     2.623301484630    -0.219493209180     1.007825032230
         H            1.525911554581     0.749550484630     1.611606790820     1.007825032230
         H            3.182294554581     0.804095484630     0.987194790820     1.007825032230
         H            0.834983554581    -2.040645515370    -0.740012209180     1.007825032230
         H           -2.366961445419     2.230158484630     0.206656790820     1.007825032230
         H           -1.243731445419    -2.556682515370    -0.135115209180     1.007825032230
         H           -4.168325445419     0.550572484630     0.384859790820     1.007825032230
         H           -3.600366445419    -1.884191515370     0.180555790820     1.007825032230

  Basis Set: AUG-CC-PVTZ
    Blend: AUG-CC-PVTZ
  Basis Set: (AUG-CC-PVTZ AUX)
    Blend: AUG-CC-PVTZ-JKFIT
	 Reference Energy          =    -514.5915721721976297 [Eh]
	 Singles Energy            =      -0.0000000000000000 [Eh]
	 Same-Spin Energy          =      -0.5581754837057049 [Eh]
	 Opposite-Spin Energy      =      -1.7433720752487387 [Eh]
	 Correlation Energy        =      -2.3015475589544439 [Eh]
	 Total Energy              =    -516.8931197311520691 [Eh]

	 ================> DF-SCS-MP2 Energies <==================
	-----------------------------------------------------------
	 SCS Same-Spin Scale       =       0.3333333333333333 [-]
	 SCS Opposite-Spin Scale   =       1.2000000000000000 [-]
	 SCS Same-Spin Energy      =      -0.1860584945685683 [Eh]
	 SCS Opposite-Spin Energy  =      -2.0920464902984865 [Eh]
	 SCS Correlation Energy    =      -2.2781049848670549 [Eh]
	 SCS Total Energy          =    -516.8696771570646433 [Eh]
	-----------------------------------------------------------

  Dipole Moment: [D]
     X:    -2.7352      Y:     2.0593      Z:     0.0137     Total:     3.4238

*** Psi4 exiting successfully. Buy a developer a beer!
