                               Psi4 1.4a2.dev612

  ==> Input File <==

--------------------------------------------------------------------------
#psi4
#
memory 32 gb

molecule  {
0 1
  O        3.0005300    -1.5493530     0.0754490
  N        0.8317470    -1.1153310    -0.4215630
  C        0.1960040     1.9504030    -0.2395030
  C        1.6857700     1.6448450    -0.3508570
  C       -0.7674710     0.7851500    -0.1025020
  C        2.1481850     0.6250380     0.6971500
  C       -0.4596220    -0.5879500    -0.1790540
  C        2.0510250    -0.7686880     0.1361100
  C       -2.1185081     1.1330574     0.0756629
  C       -1.4919760    -1.5397800    -0.0852490
  C       -3.1313420     0.1920050     0.2149350
  C       -2.8150140    -1.1632860     0.1069400
  H       -0.1141940     2.5504580    -1.1051150
  H        0.0480080     2.5950730     0.6372840
  H        1.9308140     1.2745600    -1.3520490
  H        2.2359360     2.5841340    -0.2253410
  H        1.5370720     0.7103830     1.6057590
  H        3.1934550     0.7649280     0.9813470
  H        0.8461440    -2.0798130    -0.7458600
  H       -2.3558010     2.1909910     0.2008090
  H       -1.2325710    -2.5958500    -0.1409630
  H       -4.1571650     0.5114050     0.3790120
  H       -3.5892060    -1.9233590     0.1747080
units angstrom
no_reorient  #important for SAPT in psi4, default
symmetry c1  #important for SAPT in psi4, default
}

set PROPERTIES_ORIGIN ["COM"]
properties('MP2/aug-cc-pvtz', properties = ['dipole'])
--------------------------------------------------------------------------

    Molecular point group: c1
  Charge       = 0
  Multiplicity = 1
  Basis Set: AUG-CC-PVTZ
    Blend: AUG-CC-PVTZ
  Basis Set: (AUG-CC-PVTZ AUX)
    Blend: AUG-CC-PVTZ-JKFIT

    Orbital Energies [Eh]
    ---------------------

    Doubly Occupied:

       1A    -20.525632     2A    -15.596105     3A    -11.356964
       4A    -11.297294     5A    -11.255245     6A    -11.246500
       7A    -11.245082     8A    -11.244950     9A    -11.244550
      10A    -11.242934    11A    -11.242163    12A    -11.239794
      13A     -1.380073    14A     -1.253022    15A     -1.151556
      16A     -1.101812    17A     -1.038894    18A     -1.016245
      19A     -0.957126    20A     -0.880523    21A     -0.842700
      22A     -0.808761    23A     -0.765624    24A     -0.721656
      25A     -0.681858    26A     -0.671025    27A     -0.645919
      28A     -0.628925    29A     -0.611106    30A     -0.602974
      31A     -0.600648    32A     -0.578804    33A     -0.565203
      34A     -0.542004    35A     -0.517367    36A     -0.510963
      37A     -0.498215    38A     -0.492090    39A     -0.482652
      40A     -0.435121    41A     -0.425933    42A     -0.340535
      43A     -0.316030

  @DF-RHF Final Energy:  -514.59386334658154

   => Energetics <=

    Nuclear Repulsion Energy =            675.0299784376212529
    One-Electron Energy =               -2037.6425242054738192
    Two-Electron Energy =                 848.0186824212711372
    Total Energy =                       -514.5938633465815428
  Basis Set: (AUG-CC-PVTZ AUX)
    Blend: AUG-CC-PVTZ-RI
    Molecular point group: c1

    Geometry (in Angstrom), charge = 0, multiplicity = 1:

       Center              X                  Y                   Z               Mass
    ------------   -----------------  -----------------  -----------------  -----------------
         O            2.991004733093    -1.508902833552     0.081656856233    15.994914619570
         N            0.822221733093    -1.074880833552    -0.415355143767    14.003074004430
         C            0.186478733093     1.990853166448    -0.233295143767    12.000000000000
         C            1.676244733093     1.685295166448    -0.344649143767    12.000000000000
         C           -0.776996266907     0.825600166448    -0.096294143767    12.000000000000
         C            2.138659733093     0.665488166448     0.703357856233    12.000000000000
         C           -0.469147266907    -0.547499833552    -0.172846143767    12.000000000000
         C            2.041499733093    -0.728237833552     0.142317856233    12.000000000000
         C           -2.128033366907     1.173507566448     0.081870756233    12.000000000000
         C           -1.501501266907    -1.499329833552    -0.079041143767    12.000000000000
         C           -3.140867266907     0.232455166448     0.221142856233    12.000000000000
         C           -2.824539266907    -1.122835833552     0.113147856233    12.000000000000
         H           -0.123719266907     2.590908166448    -1.098907143767     1.007825032230
         H            0.038482733093     2.635523166448     0.643491856233     1.007825032230
         H            1.921288733093     1.315010166448    -1.345841143767     1.007825032230
         H            2.226410733093     2.624584166448    -0.219133143767     1.007825032230
         H            1.527546733093     0.750833166448     1.611966856233     1.007825032230
         H            3.183929733093     0.805378166448     0.987554856233     1.007825032230
         H            0.836618733093    -2.039362833552    -0.739652143767     1.007825032230
         H           -2.365326266907     2.231441166448     0.207016856233     1.007825032230
         H           -1.242096266907    -2.555399833552    -0.134755143767     1.007825032230
         H           -4.166690266907     0.551855166448     0.385219856233     1.007825032230
         H           -3.598731266907    -1.882908833552     0.180915856233     1.007825032230

  Basis Set: AUG-CC-PVTZ
    Blend: AUG-CC-PVTZ
  Basis Set: (AUG-CC-PVTZ AUX)
    Blend: AUG-CC-PVTZ-JKFIT
	 Reference Energy          =    -514.5938633465815428 [Eh]
	 Singles Energy            =      -0.0000000000000000 [Eh]
	 Same-Spin Energy          =      -0.5578919391318995 [Eh]
	 Opposite-Spin Energy      =      -1.7430978602017428 [Eh]
	 Correlation Energy        =      -2.3009897993336423 [Eh]
	 Total Energy              =    -516.8948531459151354 [Eh]

	 ================> DF-SCS-MP2 Energies <==================
	-----------------------------------------------------------
	 SCS Same-Spin Scale       =       0.3333333333333333 [-]
	 SCS Opposite-Spin Scale   =       1.2000000000000000 [-]
	 SCS Same-Spin Energy      =      -0.1859639797106332 [Eh]
	 SCS Opposite-Spin Energy  =      -2.0917174322420915 [Eh]
	 SCS Correlation Energy    =      -2.2776814119527247 [Eh]
	 SCS Total Energy          =    -516.8715447585342417 [Eh]
	-----------------------------------------------------------

  Dipole Moment: [D]
     X:    -2.7360      Y:     2.0552      Z:     0.0661     Total:     3.4226

*** Psi4 exiting successfully. Buy a developer a beer!
