                               Psi4 1.4a2.dev612

  ==> Input File <==

--------------------------------------------------------------------------
#psi4
#
memory 32 gb

molecule  {
0 1
  O        3.0005300    -1.5493530     0.0754490
  N        0.8317470    -1.1153310    -0.4215630
  C        0.1960040     1.9504030    -0.2395030
  C        1.6857700     1.6448450    -0.3508570
  C       -0.7674710     0.7851500    -0.1025020
  C        2.1481850     0.6250380     0.6971500
  C       -0.4596220    -0.5879500    -0.1790540
  C        2.0510250    -0.7686880     0.1361100
  C       -2.1103850     1.1321340     0.1249900
  C       -1.4469206    -1.5516211     0.2111119
  C       -3.1313420     0.1920050     0.2149350
  C       -2.8150140    -1.1632860     0.1069400
  H       -0.1141940     2.5504580    -1.1051150
  H        0.0480080     2.5950730     0.6372840
  H        1.9308140     1.2745600    -1.3520490
  H        2.2359360     2.5841340    -0.2253410
  H        1.5370720     0.7103830     1.6057590
  H        3.1934550     0.7649280     0.9813470
  H        0.8461440    -2.0798130    -0.7458600
  H       -2.3558010     2.1909910     0.2008090
  H       -1.2325710    -2.5958500    -0.1409630
  H       -4.1571650     0.5114050     0.3790120
  H       -3.5892060    -1.9233590     0.1747080
units angstrom
no_reorient  #important for SAPT in psi4, default
symmetry c1  #important for SAPT in psi4, default
}

set PROPERTIES_ORIGIN ["COM"]
properties('MP2/aug-cc-pvtz', properties = ['dipole'])
--------------------------------------------------------------------------

    Molecular point group: c1
  Charge       = 0
  Multiplicity = 1
  Basis Set: AUG-CC-PVTZ
    Blend: AUG-CC-PVTZ
  Basis Set: (AUG-CC-PVTZ AUX)
    Blend: AUG-CC-PVTZ-JKFIT

    Orbital Energies [Eh]
    ---------------------

    Doubly Occupied:

       1A    -20.525962     2A    -15.595403     3A    -11.357150
       4A    -11.302190     5A    -11.255805     6A    -11.253480
       7A    -11.250951     8A    -11.249487     9A    -11.245503
      10A    -11.242925    11A    -11.242330    12A    -11.240749
      13A     -1.380135    14A     -1.251998    15A     -1.150155
      16A     -1.100887    17A     -1.037829    18A     -1.012656
      19A     -0.956996    20A     -0.877949    21A     -0.841807
      22A     -0.807561    23A     -0.766488    24A     -0.719950
      25A     -0.680421    26A     -0.666505    27A     -0.646254
      28A     -0.628599    29A     -0.611123    30A     -0.602035
      31A     -0.592936    32A     -0.578757    33A     -0.561716
      34A     -0.541261    35A     -0.517142    36A     -0.506870
      37A     -0.500296    38A     -0.486396    39A     -0.481909
      40A     -0.428337    41A     -0.426066    42A     -0.340187
      43A     -0.319975

  @DF-RHF Final Energy:  -514.56876588004559

   => Energetics <=

    Nuclear Repulsion Energy =            674.2899138001715755
    One-Electron Energy =               -2036.1510947257377211
    Two-Electron Energy =                 847.2924150455206700
    Total Energy =                       -514.5687658800455893
  Basis Set: (AUG-CC-PVTZ AUX)
    Blend: AUG-CC-PVTZ-RI
    Molecular point group: c1

    Geometry (in Angstrom), charge = 0, multiplicity = 1:

       Center              X                  Y                   Z               Mass
    ------------   -----------------  -----------------  -----------------  -----------------
         O            2.987043186654    -1.507951938744     0.055904737137    15.994914619570
         N            0.818260186654    -1.073929938744    -0.441107262863    14.003074004430
         C            0.182517186654     1.991804061256    -0.259047262863    12.000000000000
         C            1.672283186654     1.686246061256    -0.370401262863    12.000000000000
         C           -0.780957813346     0.826551061256    -0.122046262863    12.000000000000
         C            2.134698186654     0.666439061256     0.677605737137    12.000000000000
         C           -0.473108813346    -0.546548938744    -0.198598262863    12.000000000000
         C            2.037538186654    -0.727286938744     0.116565737137    12.000000000000
         C           -2.123871813346     1.173535061256     0.105445737137    12.000000000000
         C           -1.460407413346    -1.510220038744     0.191567637137    12.000000000000
         C           -3.144828813346     0.233406061256     0.195390737137    12.000000000000
         C           -2.828500813346    -1.121884938744     0.087395737137    12.000000000000
         H           -0.127680813346     2.591859061256    -1.124659262863     1.007825032230
         H            0.034521186654     2.636474061256     0.617739737137     1.007825032230
         H            1.917327186654     1.315961061256    -1.371593262863     1.007825032230
         H            2.222449186654     2.625535061256    -0.244885262863     1.007825032230
         H            1.523585186654     0.751784061256     1.586214737137     1.007825032230
         H            3.179968186654     0.806329061256     0.961802737137     1.007825032230
         H            0.832657186654    -2.038411938744    -0.765404262863     1.007825032230
         H           -2.369287813346     2.232392061256     0.181264737137     1.007825032230
         H           -1.246057813346    -2.554448938744    -0.160507262863     1.007825032230
         H           -4.170651813346     0.552806061256     0.359467737137     1.007825032230
         H           -3.602692813346    -1.881957938744     0.155163737137     1.007825032230

  Basis Set: AUG-CC-PVTZ
    Blend: AUG-CC-PVTZ
  Basis Set: (AUG-CC-PVTZ AUX)
    Blend: AUG-CC-PVTZ-JKFIT
	 Reference Energy          =    -514.5687658800455893 [Eh]
	 Singles Energy            =      -0.0000000000000000 [Eh]
	 Same-Spin Energy          =      -0.5590286303197658 [Eh]
	 Opposite-Spin Energy      =      -1.7467711358091009 [Eh]
	 Correlation Energy        =      -2.3057997661288665 [Eh]
	 Total Energy              =    -516.8745656461744602 [Eh]

	 ================> DF-SCS-MP2 Energies <==================
	-----------------------------------------------------------
	 SCS Same-Spin Scale       =       0.3333333333333333 [-]
	 SCS Opposite-Spin Scale   =       1.2000000000000000 [-]
	 SCS Same-Spin Energy      =      -0.1863428767732553 [Eh]
	 SCS Opposite-Spin Energy  =      -2.0961253629709211 [Eh]
	 SCS Correlation Energy    =      -2.2824682397441762 [Eh]
	 SCS Total Energy          =    -516.8512341197897513 [Eh]
	-----------------------------------------------------------

  Dipole Moment: [D]
     X:    -2.7992      Y:     2.2684      Z:    -0.1389     Total:     3.6056

*** Psi4 exiting successfully. Buy a developer a beer!
