                               Psi4 1.4a2.dev612

  ==> Input File <==

--------------------------------------------------------------------------
#psi4
#
memory 32 gb

molecule  {
0 1
  O        3.0005300    -1.5493530     0.0754490
  N        0.8317470    -1.1153310    -0.4215630
  C        0.1960040     1.9504030    -0.2395030
  C        1.6857700     1.6448450    -0.3508570
  C       -0.7674710     0.7851500    -0.1025020
  C        2.1481850     0.6250380     0.6971500
  C       -0.4596220    -0.5879500    -0.1790540
  C        2.0510250    -0.7686880     0.1361100
  C       -2.1103850     1.1321340     0.1249900
  C       -1.4544298    -1.5496476     0.1617184
  C       -3.1313420     0.1920050     0.2149350
  C       -2.8150140    -1.1632860     0.1069400
  H       -0.1141940     2.5504580    -1.1051150
  H        0.0480080     2.5950730     0.6372840
  H        1.9308140     1.2745600    -1.3520490
  H        2.2359360     2.5841340    -0.2253410
  H        1.5370720     0.7103830     1.6057590
  H        3.1934550     0.7649280     0.9813470
  H        0.8461440    -2.0798130    -0.7458600
  H       -2.3558010     2.1909910     0.2008090
  H       -1.2325710    -2.5958500    -0.1409630
  H       -4.1571650     0.5114050     0.3790120
  H       -3.5892060    -1.9233590     0.1747080
units angstrom
no_reorient  #important for SAPT in psi4, default
symmetry c1  #important for SAPT in psi4, default
}

set PROPERTIES_ORIGIN ["COM"]
properties('MP2/aug-cc-pvtz', properties = ['dipole'])
--------------------------------------------------------------------------

    Molecular point group: c1
  Charge       = 0
  Multiplicity = 1
  Basis Set: AUG-CC-PVTZ
    Blend: AUG-CC-PVTZ
  Basis Set: (AUG-CC-PVTZ AUX)
    Blend: AUG-CC-PVTZ-JKFIT

    Orbital Energies [Eh]
    ---------------------

    Doubly Occupied:

       1A    -20.525772     2A    -15.595338     3A    -11.357005
       4A    -11.300464     5A    -11.255764     6A    -11.251357
       7A    -11.249057     8A    -11.248042     9A    -11.245355
      10A    -11.242845    11A    -11.242241    12A    -11.240635
      13A     -1.380009    14A     -1.252144    15A     -1.150489
      16A     -1.101124    17A     -1.038064    18A     -1.013796
      19A     -0.957007    20A     -0.878523    21A     -0.842153
      22A     -0.807818    23A     -0.766417    24A     -0.720319
      25A     -0.680591    26A     -0.667722    27A     -0.646501
      28A     -0.628936    29A     -0.611055    30A     -0.601963
      31A     -0.595590    32A     -0.578711    33A     -0.562657
      34A     -0.541396    35A     -0.517361    36A     -0.507889
      37A     -0.500038    38A     -0.487568    39A     -0.482494
      40A     -0.429510    41A     -0.426168    42A     -0.340076
      43A     -0.319433

  @DF-RHF Final Energy:  -514.57693887690743

   => Energetics <=

    Nuclear Repulsion Energy =            674.5577810976244564
    One-Electron Energy =               -2036.6946420067799863
    Two-Electron Energy =                 847.5599220322480960
    Total Energy =                       -514.5769388769074340
  Basis Set: (AUG-CC-PVTZ AUX)
    Blend: AUG-CC-PVTZ-RI
    Molecular point group: c1

    Geometry (in Angstrom), charge = 0, multiplicity = 1:

       Center              X                  Y                   Z               Mass
    ------------   -----------------  -----------------  -----------------  -----------------
         O            2.987602586496    -1.508098955149     0.059584318999    15.994914619570
         N            0.818819586496    -1.074076955149    -0.437427681001    14.003074004430
         C            0.183076586496     1.991657044851    -0.255367681001    12.000000000000
         C            1.672842586496     1.686099044851    -0.366721681001    12.000000000000
         C           -0.780398413504     0.826404044851    -0.118366681001    12.000000000000
         C            2.135257586496     0.666292044851     0.681285318999    12.000000000000
         C           -0.472549413504    -0.546695955149    -0.194918681001    12.000000000000
         C            2.038097586496    -0.727433955149     0.120245318999    12.000000000000
         C           -2.123312413504     1.173388044851     0.109125318999    12.000000000000
         C           -1.467357213504    -1.508393555149     0.145853718999    12.000000000000
         C           -3.144269413504     0.233259044851     0.199070318999    12.000000000000
         C           -2.827941413504    -1.122031955149     0.091075318999    12.000000000000
         H           -0.127121413504     2.591712044851    -1.120979681001     1.007825032230
         H            0.035080586496     2.636327044851     0.621419318999     1.007825032230
         H            1.917886586496     1.315814044851    -1.367913681001     1.007825032230
         H            2.223008586496     2.625388044851    -0.241205681001     1.007825032230
         H            1.524144586496     0.751637044851     1.589894318999     1.007825032230
         H            3.180527586496     0.806182044851     0.965482318999     1.007825032230
         H            0.833216586496    -2.038558955149    -0.761724681001     1.007825032230
         H           -2.368728413504     2.232245044851     0.184944318999     1.007825032230
         H           -1.245498413504    -2.554595955149    -0.156827681001     1.007825032230
         H           -4.170092413504     0.552659044851     0.363147318999     1.007825032230
         H           -3.602133413504    -1.882104955149     0.158843318999     1.007825032230

  Basis Set: AUG-CC-PVTZ
    Blend: AUG-CC-PVTZ
  Basis Set: (AUG-CC-PVTZ AUX)
    Blend: AUG-CC-PVTZ-JKFIT
	 Reference Energy          =    -514.5769388769074340 [Eh]
	 Singles Energy            =      -0.0000000000000000 [Eh]
	 Same-Spin Energy          =      -0.5586640448255209 [Eh]
	 Opposite-Spin Energy      =      -1.7455928050322633 [Eh]
	 Correlation Energy        =      -2.3042568498577842 [Eh]
	 Total Energy              =    -516.8811957267652133 [Eh]

	 ================> DF-SCS-MP2 Energies <==================
	-----------------------------------------------------------
	 SCS Same-Spin Scale       =       0.3333333333333333 [-]
	 SCS Opposite-Spin Scale   =       1.2000000000000000 [-]
	 SCS Same-Spin Energy      =      -0.1862213482751736 [Eh]
	 SCS Opposite-Spin Energy  =      -2.0947113660387160 [Eh]
	 SCS Correlation Energy    =      -2.2809327143138898 [Eh]
	 SCS Total Energy          =    -516.8578715912212829 [Eh]
	-----------------------------------------------------------

  Dipole Moment: [D]
     X:    -2.7935      Y:     2.2078      Z:    -0.1093     Total:     3.5623

*** Psi4 exiting successfully. Buy a developer a beer!
