                               Psi4 1.4a2.dev612

  ==> Input File <==

--------------------------------------------------------------------------
#psi4
#
memory 32 gb

molecule  {
0 1
  O        3.0005300    -1.5493530     0.0754490
  N        0.8317470    -1.1153310    -0.4215630
  C        0.1960040     1.9504030    -0.2395030
  C        1.6857700     1.6448450    -0.3508570
  C       -0.7674710     0.7851500    -0.1025020
  C        2.1481850     0.6250380     0.6971500
  C       -0.4596220    -0.5879500    -0.1790540
  C        2.0510250    -0.7686880     0.1361100
  C       -2.1103850     1.1321340     0.1249900
  C       -1.4844668    -1.5417535    -0.0358555
  C       -3.1313420     0.1920050     0.2149350
  C       -2.8150140    -1.1632860     0.1069400
  H       -0.1141940     2.5504580    -1.1051150
  H        0.0480080     2.5950730     0.6372840
  H        1.9308140     1.2745600    -1.3520490
  H        2.2359360     2.5841340    -0.2253410
  H        1.5370720     0.7103830     1.6057590
  H        3.1934550     0.7649280     0.9813470
  H        0.8461440    -2.0798130    -0.7458600
  H       -2.3558010     2.1909910     0.2008090
  H       -1.2325710    -2.5958500    -0.1409630
  H       -4.1571650     0.5114050     0.3790120
  H       -3.5892060    -1.9233590     0.1747080
units angstrom
no_reorient  #important for SAPT in psi4, default
symmetry c1  #important for SAPT in psi4, default
}

set PROPERTIES_ORIGIN ["COM"]
properties('MP2/aug-cc-pvtz', properties = ['dipole'])
--------------------------------------------------------------------------

    Molecular point group: c1
  Charge       = 0
  Multiplicity = 1
  Basis Set: AUG-CC-PVTZ
    Blend: AUG-CC-PVTZ
  Basis Set: (AUG-CC-PVTZ AUX)
    Blend: AUG-CC-PVTZ-JKFIT

    Orbital Energies [Eh]
    ---------------------

    Doubly Occupied:

       1A    -20.525553     2A    -15.595830     3A    -11.356888
       4A    -11.297158     5A    -11.255389     6A    -11.246628
       7A    -11.245100     8A    -11.245005     9A    -11.244643
      10A    -11.242823    11A    -11.242126    12A    -11.240057
      13A     -1.379966    14A     -1.252834    15A     -1.151446
      16A     -1.101749    17A     -1.038832    18A     -1.016062
      19A     -0.957141    20A     -0.880261    21A     -0.842843
      22A     -0.808658    23A     -0.765863    24A     -0.721639
      25A     -0.681451    26A     -0.670893    27A     -0.646400
      28A     -0.629233    29A     -0.611212    30A     -0.602756
      31A     -0.600868    32A     -0.578814    33A     -0.564529
      34A     -0.541980    35A     -0.517696    36A     -0.510496
      37A     -0.498674    38A     -0.491300    39A     -0.482888
      40A     -0.434305    41A     -0.425935    42A     -0.340403
      43A     -0.316774

  @DF-RHF Final Energy:  -514.59392654696535

   => Energetics <=

    Nuclear Repulsion Energy =            675.0789486024341386
    One-Electron Energy =               -2037.7435500947940454
    Two-Electron Energy =                 848.0706749453945577
    Total Energy =                       -514.5939265469653492
  Basis Set: (AUG-CC-PVTZ AUX)
    Blend: AUG-CC-PVTZ-RI
    Molecular point group: c1

    Geometry (in Angstrom), charge = 0, multiplicity = 1:

       Center              X                  Y                   Z               Mass
    ------------   -----------------  -----------------  -----------------  -----------------
         O            2.989840200765    -1.508687028219     0.074302638996    15.994914619570
         N            0.821057200765    -1.074665028219    -0.422709361004    14.003074004430
         C            0.185314200765     1.991068971781    -0.240649361004    12.000000000000
         C            1.675080200765     1.685510971781    -0.352003361004    12.000000000000
         C           -0.778160799235     0.825815971781    -0.103648361004    12.000000000000
         C            2.137495200765     0.665703971781     0.696003638996    12.000000000000
         C           -0.470311799235    -0.547284028219    -0.180200361004    12.000000000000
         C            2.040335200765    -0.728022028219     0.134963638996    12.000000000000
         C           -2.121074799235     1.172799971781     0.123843638996    12.000000000000
         C           -1.495156599235    -1.501087528219    -0.037001861004    12.000000000000
         C           -3.142031799235     0.232670971781     0.213788638996    12.000000000000
         C           -2.825703799235    -1.122620028219     0.105793638996    12.000000000000
         H           -0.124883799235     2.591123971781    -1.106261361004     1.007825032230
         H            0.037318200765     2.635738971781     0.636137638996     1.007825032230
         H            1.920124200765     1.315225971781    -1.353195361004     1.007825032230
         H            2.225246200765     2.624799971781    -0.226487361004     1.007825032230
         H            1.526382200765     0.751048971781     1.604612638996     1.007825032230
         H            3.182765200765     0.805593971781     0.980200638996     1.007825032230
         H            0.835454200765    -2.039147028219    -0.747006361004     1.007825032230
         H           -2.366490799235     2.231656971781     0.199662638996     1.007825032230
         H           -1.243260799235    -2.555184028219    -0.142109361004     1.007825032230
         H           -4.167854799235     0.552070971781     0.377865638996     1.007825032230
         H           -3.599895799235    -1.882693028219     0.173561638996     1.007825032230

  Basis Set: AUG-CC-PVTZ
    Blend: AUG-CC-PVTZ
  Basis Set: (AUG-CC-PVTZ AUX)
    Blend: AUG-CC-PVTZ-JKFIT
	 Reference Energy          =    -514.5939265469653492 [Eh]
	 Singles Energy            =      -0.0000000000000000 [Eh]
	 Same-Spin Energy          =      -0.5578825392880347 [Eh]
	 Opposite-Spin Energy      =      -1.7431059987575468 [Eh]
	 Correlation Energy        =      -2.3009885380455817 [Eh]
	 Total Energy              =    -516.8949150850108936 [Eh]

	 ================> DF-SCS-MP2 Energies <==================
	-----------------------------------------------------------
	 SCS Same-Spin Scale       =       0.3333333333333333 [-]
	 SCS Opposite-Spin Scale   =       1.2000000000000000 [-]
	 SCS Same-Spin Energy      =      -0.1859608464293449 [Eh]
	 SCS Opposite-Spin Energy  =      -2.0917271985090560 [Eh]
	 SCS Correlation Energy    =      -2.2776880449384009 [Eh]
	 SCS Total Energy          =    -516.8716145919037217 [Eh]
	-----------------------------------------------------------

  Dipole Moment: [D]
     X:    -2.7543      Y:     2.0692      Z:     0.0057     Total:     3.4449

*** Psi4 exiting successfully. Buy a developer a beer!
