                               Psi4 1.4a2.dev612

  ==> Input File <==

--------------------------------------------------------------------------
#psi4
#
memory 32 gb

molecule  {
0 1
  O        3.0005300    -1.5493530     0.0754490
  N        0.8317470    -1.1153310    -0.4215630
  C        0.1960040     1.9504030    -0.2395030
  C        1.6857700     1.6448450    -0.3508570
  C       -0.7674710     0.7851500    -0.1025020
  C        2.1481850     0.6250380     0.6971500
  C       -0.4596220    -0.5879500    -0.1790540
  C        2.0510250    -0.7686880     0.1361100
  C       -2.1103850     1.1321340     0.1249900
  C       -1.4619391    -1.5476741     0.1123250
  C       -3.1313420     0.1920050     0.2149350
  C       -2.8150140    -1.1632860     0.1069400
  H       -0.1141940     2.5504580    -1.1051150
  H        0.0480080     2.5950730     0.6372840
  H        1.9308140     1.2745600    -1.3520490
  H        2.2359360     2.5841340    -0.2253410
  H        1.5370720     0.7103830     1.6057590
  H        3.1934550     0.7649280     0.9813470
  H        0.8461440    -2.0798130    -0.7458600
  H       -2.3558010     2.1909910     0.2008090
  H       -1.2325710    -2.5958500    -0.1409630
  H       -4.1571650     0.5114050     0.3790120
  H       -3.5892060    -1.9233590     0.1747080
units angstrom
no_reorient  #important for SAPT in psi4, default
symmetry c1  #important for SAPT in psi4, default
}

set PROPERTIES_ORIGIN ["COM"]
properties('MP2/aug-cc-pvtz', properties = ['dipole'])
--------------------------------------------------------------------------

    Molecular point group: c1
  Charge       = 0
  Multiplicity = 1
  Basis Set: AUG-CC-PVTZ
    Blend: AUG-CC-PVTZ
  Basis Set: (AUG-CC-PVTZ AUX)
    Blend: AUG-CC-PVTZ-JKFIT

    Orbital Energies [Eh]
    ---------------------

    Doubly Occupied:

       1A    -20.525636     2A    -15.595351     3A    -11.356907
       4A    -11.299074     5A    -11.255711     6A    -11.249585
       7A    -11.247448     8A    -11.246884     9A    -11.245235
      10A    -11.242795    11A    -11.242176    12A    -11.240516
      13A     -1.379929    14A     -1.252305    15A     -1.150803
      16A     -1.101333    17A     -1.038295    18A     -1.014690
      19A     -0.957034    20A     -0.879062    21A     -0.842430
      22A     -0.808070    23A     -0.766326    24A     -0.720708
      25A     -0.680792    26A     -0.668845    27A     -0.646650
      28A     -0.629171    29A     -0.611029    30A     -0.601939
      31A     -0.597800    32A     -0.578698    33A     -0.563409
      34A     -0.541541    35A     -0.517519    36A     -0.508760
      37A     -0.499753    38A     -0.488713    39A     -0.482761
      40A     -0.430783    41A     -0.426118    42A     -0.340072
      43A     -0.318839

  @DF-RHF Final Energy:  -514.58351379643261

   => Energetics <=

    Nuclear Repulsion Energy =            674.7726266969639255
    One-Electron Energy =               -2037.1292961185392869
    Two-Electron Energy =                 847.7731556251427492
    Total Energy =                       -514.5835137964326123
  Basis Set: (AUG-CC-PVTZ AUX)
    Blend: AUG-CC-PVTZ-RI
    Molecular point group: c1

    Geometry (in Angstrom), charge = 0, multiplicity = 1:

       Center              X                  Y                   Z               Mass
    ------------   -----------------  -----------------  -----------------  -----------------
         O            2.988161993788    -1.508245971554     0.063263893411    15.994914619570
         N            0.819378993788    -1.074223971554    -0.433748106589    14.003074004430
         C            0.183635993788     1.991510028446    -0.251688106589    12.000000000000
         C            1.673401993788     1.685952028446    -0.363042106589    12.000000000000
         C           -0.779839006212     0.826257028446    -0.114687106589    12.000000000000
         C            2.135816993788     0.666145028446     0.684964893411    12.000000000000
         C           -0.471990006212    -0.546842971554    -0.191239106589    12.000000000000
         C            2.038656993788    -0.727580971554     0.123924893411    12.000000000000
         C           -2.122753006212     1.173241028446     0.112804893411    12.000000000000
         C           -1.474307106212    -1.506567071554     0.100139893411    12.000000000000
         C           -3.143710006212     0.233112028446     0.202749893411    12.000000000000
         C           -2.827382006212    -1.122178971554     0.094754893411    12.000000000000
         H           -0.126562006212     2.591565028446    -1.117300106589     1.007825032230
         H            0.035639993788     2.636180028446     0.625098893411     1.007825032230
         H            1.918445993788     1.315667028446    -1.364234106589     1.007825032230
         H            2.223567993788     2.625241028446    -0.237526106589     1.007825032230
         H            1.524703993788     0.751490028446     1.593573893411     1.007825032230
         H            3.181086993788     0.806035028446     0.969161893411     1.007825032230
         H            0.833775993788    -2.038705971554    -0.758045106589     1.007825032230
         H           -2.368169006212     2.232098028446     0.188623893411     1.007825032230
         H           -1.244939006212    -2.554742971554    -0.153148106589     1.007825032230
         H           -4.169533006212     0.552512028446     0.366826893411     1.007825032230
         H           -3.601574006212    -1.882251971554     0.162522893411     1.007825032230

  Basis Set: AUG-CC-PVTZ
    Blend: AUG-CC-PVTZ
  Basis Set: (AUG-CC-PVTZ AUX)
    Blend: AUG-CC-PVTZ-JKFIT
	 Reference Energy          =    -514.5835137964326123 [Eh]
	 Singles Energy            =      -0.0000000000000000 [Eh]
	 Same-Spin Energy          =      -0.5583620316169333 [Eh]
	 Opposite-Spin Energy      =      -1.7446226003115051 [Eh]
	 Correlation Energy        =      -2.3029846319284384 [Eh]
	 Total Energy              =    -516.8864984283610511 [Eh]

	 ================> DF-SCS-MP2 Energies <==================
	-----------------------------------------------------------
	 SCS Same-Spin Scale       =       0.3333333333333333 [-]
	 SCS Opposite-Spin Scale   =       1.2000000000000000 [-]
	 SCS Same-Spin Energy      =      -0.1861206772056444 [Eh]
	 SCS Opposite-Spin Energy  =      -2.0935471203738061 [Eh]
	 SCS Correlation Energy    =      -2.2796677975794504 [Eh]
	 SCS Total Energy          =    -516.8631815940120759 [Eh]
	-----------------------------------------------------------

  Dipole Moment: [D]
     X:    -2.7860      Y:     2.1572      Z:    -0.0801     Total:     3.5244

*** Psi4 exiting successfully. Buy a developer a beer!
