                               Psi4 1.4a2.dev612

  ==> Input File <==

--------------------------------------------------------------------------
#psi4
#
memory 32 gb

molecule  {
0 1
  O        3.0005300    -1.5493530     0.0754490
  N        0.8317470    -1.1153310    -0.4215630
  C        0.1960040     1.9504030    -0.2395030
  C        1.6857700     1.6448450    -0.3508570
  C       -0.7674710     0.7851500    -0.1025020
  C        2.1481850     0.6250380     0.6971500
  C       -0.4596220    -0.5879500    -0.1790540
  C        2.0510250    -0.7686880     0.1361100
  C       -2.1428773     1.1358276    -0.0723184
  C       -1.4919760    -1.5397800    -0.0852490
  C       -3.1313420     0.1920050     0.2149350
  C       -2.8150140    -1.1632860     0.1069400
  H       -0.1141940     2.5504580    -1.1051150
  H        0.0480080     2.5950730     0.6372840
  H        1.9308140     1.2745600    -1.3520490
  H        2.2359360     2.5841340    -0.2253410
  H        1.5370720     0.7103830     1.6057590
  H        3.1934550     0.7649280     0.9813470
  H        0.8461440    -2.0798130    -0.7458600
  H       -2.3558010     2.1909910     0.2008090
  H       -1.2325710    -2.5958500    -0.1409630
  H       -4.1571650     0.5114050     0.3790120
  H       -3.5892060    -1.9233590     0.1747080
units angstrom
no_reorient  #important for SAPT in psi4, default
symmetry c1  #important for SAPT in psi4, default
}

set PROPERTIES_ORIGIN ["COM"]
properties('MP2/aug-cc-pvtz', properties = ['dipole'])
--------------------------------------------------------------------------

    Molecular point group: c1
  Charge       = 0
  Multiplicity = 1
  Basis Set: AUG-CC-PVTZ
    Blend: AUG-CC-PVTZ
  Basis Set: (AUG-CC-PVTZ AUX)
    Blend: AUG-CC-PVTZ-JKFIT

    Orbital Energies [Eh]
    ---------------------

    Doubly Occupied:

       1A    -20.525633     2A    -15.596056     3A    -11.356955
       4A    -11.297000     5A    -11.257836     6A    -11.247654
       7A    -11.247108     8A    -11.245763     9A    -11.244982
      10A    -11.243129    11A    -11.242305    12A    -11.242206
      13A     -1.380106    14A     -1.253099    15A     -1.150560
      16A     -1.101921    17A     -1.038562    18A     -1.015537
      19A     -0.956950    20A     -0.880108    21A     -0.841861
      22A     -0.808469    23A     -0.764732    24A     -0.720121
      25A     -0.682166    26A     -0.671755    27A     -0.644464
      28A     -0.627627    29A     -0.610483    30A     -0.602602
      31A     -0.597297    32A     -0.578238    33A     -0.567136
      34A     -0.541034    35A     -0.515671    36A     -0.510308
      37A     -0.497783    38A     -0.492091    39A     -0.481664
      40A     -0.434008    41A     -0.425992    42A     -0.340632
      43A     -0.315394

  @DF-RHF Final Energy:  -514.58269481207822

   => Energetics <=

    Nuclear Repulsion Energy =            674.5819196990446471
    One-Electron Energy =               -2036.7392315242273071
    Two-Electron Energy =                 847.5746170131044437
    Total Energy =                       -514.5826948120782163
  Basis Set: (AUG-CC-PVTZ AUX)
    Blend: AUG-CC-PVTZ-RI
    Molecular point group: c1

    Geometry (in Angstrom), charge = 0, multiplicity = 1:

       Center              X                  Y                   Z               Mass
    ------------   -----------------  -----------------  -----------------  -----------------
         O            2.992820123100    -1.509109200334     0.092680762361    15.994914619570
         N            0.824037123100    -1.075087200334    -0.404331237639    14.003074004430
         C            0.188294123100     1.990646799666    -0.222271237639    12.000000000000
         C            1.678060123100     1.685088799666    -0.333625237639    12.000000000000
         C           -0.775180876900     0.825393799666    -0.085270237639    12.000000000000
         C            2.140475123100     0.665281799666     0.714381762361    12.000000000000
         C           -0.467331876900    -0.547706200334    -0.161822237639    12.000000000000
         C            2.043315123100    -0.728444200334     0.153341762361    12.000000000000
         C           -2.150587176900     1.176071399666    -0.055086637639    12.000000000000
         C           -1.499685876900    -1.499536200334    -0.068017237639    12.000000000000
         C           -3.139051876900     0.232248799666     0.232166762361    12.000000000000
         C           -2.822723876900    -1.123042200334     0.124171762361    12.000000000000
         H           -0.121903876900     2.590701799666    -1.087883237639     1.007825032230
         H            0.040298123100     2.635316799666     0.654515762361     1.007825032230
         H            1.923104123100     1.314803799666    -1.334817237639     1.007825032230
         H            2.228226123100     2.624377799666    -0.208109237639     1.007825032230
         H            1.529362123100     0.750626799666     1.622990762361     1.007825032230
         H            3.185745123100     0.805171799666     0.998578762361     1.007825032230
         H            0.838434123100    -2.039569200334    -0.728628237639     1.007825032230
         H           -2.363510876900     2.231234799666     0.218040762361     1.007825032230
         H           -1.240280876900    -2.555606200334    -0.123731237639     1.007825032230
         H           -4.164874876900     0.551648799666     0.396243762361     1.007825032230
         H           -3.596915876900    -1.883115200334     0.191939762361     1.007825032230

  Basis Set: AUG-CC-PVTZ
    Blend: AUG-CC-PVTZ
  Basis Set: (AUG-CC-PVTZ AUX)
    Blend: AUG-CC-PVTZ-JKFIT
	 Reference Energy          =    -514.5826948120782163 [Eh]
	 Singles Energy            =      -0.0000000000000000 [Eh]
	 Same-Spin Energy          =      -0.5584617926102633 [Eh]
	 Opposite-Spin Energy      =      -1.7446457738040104 [Eh]
	 Correlation Energy        =      -2.3031075664142735 [Eh]
	 Total Energy              =    -516.8858023784924853 [Eh]

	 ================> DF-SCS-MP2 Energies <==================
	-----------------------------------------------------------
	 SCS Same-Spin Scale       =       0.3333333333333333 [-]
	 SCS Opposite-Spin Scale   =       1.2000000000000000 [-]
	 SCS Same-Spin Energy      =      -0.1861539308700877 [Eh]
	 SCS Opposite-Spin Energy  =      -2.0935749285648124 [Eh]
	 SCS Correlation Energy    =      -2.2797288594349001 [Eh]
	 SCS Total Energy          =    -516.8624236715131701 [Eh]
	-----------------------------------------------------------

  Dipole Moment: [D]
     X:    -2.7000      Y:     1.9749      Z:     0.1586     Total:     3.3489

*** Psi4 exiting successfully. Buy a developer a beer!
