                               Psi4 1.4a2.dev612

  ==> Input File <==

--------------------------------------------------------------------------
#psi4
#
memory 32 gb

molecule  {
0 1
  O        3.0005300    -1.5493530     0.0754490
  N        0.8317470    -1.1153310    -0.4215630
  C        0.1960040     1.9504030    -0.2395030
  C        1.6857700     1.6448450    -0.3508570
  C       -0.7674710     0.7851500    -0.1025020
  C        2.1481850     0.6250380     0.6971500
  C       -0.4596220    -0.5879500    -0.1790540
  C        2.0510250    -0.7686880     0.1361100
  C       -2.1591235     1.1376744    -0.1709726
  C       -1.4919760    -1.5397800    -0.0852490
  C       -3.1313420     0.1920050     0.2149350
  C       -2.8150140    -1.1632860     0.1069400
  H       -0.1141940     2.5504580    -1.1051150
  H        0.0480080     2.5950730     0.6372840
  H        1.9308140     1.2745600    -1.3520490
  H        2.2359360     2.5841340    -0.2253410
  H        1.5370720     0.7103830     1.6057590
  H        3.1934550     0.7649280     0.9813470
  H        0.8461440    -2.0798130    -0.7458600
  H       -2.3558010     2.1909910     0.2008090
  H       -1.2325710    -2.5958500    -0.1409630
  H       -4.1571650     0.5114050     0.3790120
  H       -3.5892060    -1.9233590     0.1747080
units angstrom
no_reorient  #important for SAPT in psi4, default
symmetry c1  #important for SAPT in psi4, default
}

set PROPERTIES_ORIGIN ["COM"]
properties('MP2/aug-cc-pvtz', properties = ['dipole'])
--------------------------------------------------------------------------

    Molecular point group: c1
  Charge       = 0
  Multiplicity = 1
  Basis Set: AUG-CC-PVTZ
    Blend: AUG-CC-PVTZ
  Basis Set: (AUG-CC-PVTZ AUX)
    Blend: AUG-CC-PVTZ-JKFIT

    Orbital Energies [Eh]
    ---------------------

    Doubly Occupied:

       1A    -20.525669     2A    -15.596073     3A    -11.356995
       4A    -11.296691     5A    -11.261477     6A    -11.251188
       7A    -11.249472     8A    -11.246683     9A    -11.245414
      10A    -11.245080    11A    -11.243329    12A    -11.242254
      13A     -1.380176    14A     -1.253241    15A     -1.149091
      16A     -1.102098    17A     -1.038224    18A     -1.014158
      19A     -0.956795    20A     -0.879453    21A     -0.841018
      22A     -0.808153    23A     -0.763545    24A     -0.718547
      25A     -0.682143    26A     -0.672709    27A     -0.643008
      28A     -0.625886    29A     -0.610176    30A     -0.602736
      31A     -0.593480    32A     -0.577348    33A     -0.568332
      34A     -0.539816    35A     -0.514193    36A     -0.508819
      37A     -0.497172    38A     -0.490911    39A     -0.480527
      40A     -0.432852    41A     -0.426063    42A     -0.341009
      43A     -0.314431

  @DF-RHF Final Energy:  -514.56702143201233

   => Energetics <=

    Nuclear Repulsion Energy =            674.0077616835185381
    One-Electron Energy =               -2035.5766957812154487
    Two-Electron Energy =                 847.0019126656845856
    Total Energy =                       -514.5670214320123250
  Basis Set: (AUG-CC-PVTZ AUX)
    Blend: AUG-CC-PVTZ-RI
    Molecular point group: c1

    Geometry (in Angstrom), charge = 0, multiplicity = 1:

       Center              X                  Y                   Z               Mass
    ------------   -----------------  -----------------  -----------------  -----------------
         O            2.994030388070    -1.509246778189     0.100030033113    15.994914619570
         N            0.825247388070    -1.075224778189    -0.396981966887    14.003074004430
         C            0.189504388070     1.990509221811    -0.214921966887    12.000000000000
         C            1.679270388070     1.684951221811    -0.326275966887    12.000000000000
         C           -0.773970611930     0.825256221811    -0.077920966887    12.000000000000
         C            2.141685388070     0.665144221811     0.721731033113    12.000000000000
         C           -0.466121611930    -0.547843778189    -0.154472966887    12.000000000000
         C            2.044525388070    -0.728581778189     0.160691033113    12.000000000000
         C           -2.165623111930     1.177780621811    -0.146391566887    12.000000000000
         C           -1.498475611930    -1.499673778189    -0.060667966887    12.000000000000
         C           -3.137841611930     0.232111221811     0.239516033113    12.000000000000
         C           -2.821513611930    -1.123179778189     0.131521033113    12.000000000000
         H           -0.120693611930     2.590564221811    -1.080533966887     1.007825032230
         H            0.041508388070     2.635179221811     0.661865033113     1.007825032230
         H            1.924314388070     1.314666221811    -1.327467966887     1.007825032230
         H            2.229436388070     2.624240221811    -0.200759966887     1.007825032230
         H            1.530572388070     0.750489221811     1.630340033113     1.007825032230
         H            3.186955388070     0.805034221811     1.005928033113     1.007825032230
         H            0.839644388070    -2.039706778189    -0.721278966887     1.007825032230
         H           -2.362300611930     2.231097221811     0.225390033113     1.007825032230
         H           -1.239070611930    -2.555743778189    -0.116381966887     1.007825032230
         H           -4.163664611930     0.551511221811     0.403593033113     1.007825032230
         H           -3.595705611930    -1.883252778189     0.199289033113     1.007825032230

  Basis Set: AUG-CC-PVTZ
    Blend: AUG-CC-PVTZ
  Basis Set: (AUG-CC-PVTZ AUX)
    Blend: AUG-CC-PVTZ-JKFIT
	 Reference Energy          =    -514.5670214320123250 [Eh]
	 Singles Energy            =      -0.0000000000000000 [Eh]
	 Same-Spin Energy          =      -0.5592337274829930 [Eh]
	 Opposite-Spin Energy      =      -1.7469138128050097 [Eh]
	 Correlation Energy        =      -2.3061475402880030 [Eh]
	 Total Energy              =    -516.8731689723002773 [Eh]

	 ================> DF-SCS-MP2 Energies <==================
	-----------------------------------------------------------
	 SCS Same-Spin Scale       =       0.3333333333333333 [-]
	 SCS Opposite-Spin Scale   =       1.2000000000000000 [-]
	 SCS Same-Spin Energy      =      -0.1864112424943310 [Eh]
	 SCS Opposite-Spin Energy  =      -2.0962965753660114 [Eh]
	 SCS Correlation Energy    =      -2.2827078178603424 [Eh]
	 SCS Total Energy          =    -516.8497292498726665 [Eh]
	-----------------------------------------------------------

  Dipole Moment: [D]
     X:    -2.6584      Y:     1.8726      Z:     0.2220     Total:     3.2593

*** Psi4 exiting successfully. Buy a developer a beer!
