                               Psi4 1.4a2.dev612

  ==> Input File <==

--------------------------------------------------------------------------
#psi4
#
memory 32 gb

molecule  {
0 1
  O        3.0005300    -1.5493530     0.0754490
  N        0.8317470    -1.1153310    -0.4215630
  C        0.1960040     1.9504030    -0.2395030
  C        1.6857700     1.6448450    -0.3508570
  C       -0.7674710     0.7851500    -0.1025020
  C        2.1481850     0.6250380     0.6971500
  C       -0.4596220    -0.5879500    -0.1790540
  C        2.0510250    -0.7686880     0.1361100
  C       -2.1103850     1.1321340     0.1249900
  C       -1.4694483    -1.5457006     0.0629315
  C       -3.1313420     0.1920050     0.2149350
  C       -2.8150140    -1.1632860     0.1069400
  H       -0.1141940     2.5504580    -1.1051150
  H        0.0480080     2.5950730     0.6372840
  H        1.9308140     1.2745600    -1.3520490
  H        2.2359360     2.5841340    -0.2253410
  H        1.5370720     0.7103830     1.6057590
  H        3.1934550     0.7649280     0.9813470
  H        0.8461440    -2.0798130    -0.7458600
  H       -2.3558010     2.1909910     0.2008090
  H       -1.2325710    -2.5958500    -0.1409630
  H       -4.1571650     0.5114050     0.3790120
  H       -3.5892060    -1.9233590     0.1747080
units angstrom
no_reorient  #important for SAPT in psi4, default
symmetry c1  #important for SAPT in psi4, default
}

set PROPERTIES_ORIGIN ["COM"]
properties('MP2/aug-cc-pvtz', properties = ['dipole'])
--------------------------------------------------------------------------

    Molecular point group: c1
  Charge       = 0
  Multiplicity = 1
  Basis Set: AUG-CC-PVTZ
    Blend: AUG-CC-PVTZ
  Basis Set: (AUG-CC-PVTZ AUX)
    Blend: AUG-CC-PVTZ-JKFIT

    Orbital Energies [Eh]
    ---------------------

    Doubly Occupied:

       1A    -20.525554     2A    -15.595440     3A    -11.356855
       4A    -11.298046     5A    -11.255635     6A    -11.248192
       7A    -11.246162     8A    -11.246006     9A    -11.245139
      10A    -11.242776    11A    -11.242136    12A    -11.240382
      13A     -1.379895    14A     -1.252476    15A     -1.151076
      16A     -1.101508    17A     -1.038508    18A     -1.015355
      19A     -0.957070    20A     -0.879544    21A     -0.842637
      22A     -0.808301    23A     -0.766208    24A     -0.721079
      25A     -0.681009    26A     -0.669791    27A     -0.646685
      28A     -0.629303    29A     -0.611047    30A     -0.602013
      31A     -0.599477    32A     -0.578713    33A     -0.563970
      34A     -0.541692    35A     -0.517622    36A     -0.509484
      37A     -0.499434    38A     -0.489726    39A     -0.482878
      40A     -0.432026    41A     -0.426043    42A     -0.340142
      43A     -0.318195

  @DF-RHF Final Energy:  -514.58851774292248

   => Energetics <=

    Nuclear Repulsion Energy =            674.9322168267174220
    One-Electron Energy =               -2037.4510102819863278
    Two-Electron Energy =                 847.9302757123464289
    Total Energy =                       -514.5885177429224768
  Basis Set: (AUG-CC-PVTZ AUX)
    Blend: AUG-CC-PVTZ-RI
    Molecular point group: c1

    Geometry (in Angstrom), charge = 0, multiplicity = 1:

       Center              X                  Y                   Z               Mass
    ------------   -----------------  -----------------  -----------------  -----------------
         O            2.988721393631    -1.508392987960     0.066943475272    15.994914619570
         N            0.819938393631    -1.074370987960    -0.430068524728    14.003074004430
         C            0.184195393631     1.991363012040    -0.248008524728    12.000000000000
         C            1.673961393631     1.685805012040    -0.359362524728    12.000000000000
         C           -0.779279606369     0.826110012040    -0.111007524728    12.000000000000
         C            2.136376393631     0.665998012040     0.688644475272    12.000000000000
         C           -0.471430606369    -0.546989987960    -0.187559524728    12.000000000000
         C            2.039216393631    -0.727727987960     0.127604475272    12.000000000000
         C           -2.122193606369     1.173094012040     0.116484475272    12.000000000000
         C           -1.481256906369    -1.504740587960     0.054425975272    12.000000000000
         C           -3.143150606369     0.232965012040     0.206429475272    12.000000000000
         C           -2.826822606369    -1.122325987960     0.098434475272    12.000000000000
         H           -0.126002606369     2.591418012040    -1.113620524728     1.007825032230
         H            0.036199393631     2.636033012040     0.628778475272     1.007825032230
         H            1.919005393631     1.315520012040    -1.360554524728     1.007825032230
         H            2.224127393631     2.625094012040    -0.233846524728     1.007825032230
         H            1.525263393631     0.751343012040     1.597253475272     1.007825032230
         H            3.181646393631     0.805888012040     0.972841475272     1.007825032230
         H            0.834335393631    -2.038852987960    -0.754365524728     1.007825032230
         H           -2.367609606369     2.231951012040     0.192303475272     1.007825032230
         H           -1.244379606369    -2.554889987960    -0.149468524728     1.007825032230
         H           -4.168973606369     0.552365012040     0.370506475272     1.007825032230
         H           -3.601014606369    -1.882398987960     0.166202475272     1.007825032230

  Basis Set: AUG-CC-PVTZ
    Blend: AUG-CC-PVTZ
  Basis Set: (AUG-CC-PVTZ AUX)
    Blend: AUG-CC-PVTZ-JKFIT
	 Reference Energy          =    -514.5885177429224768 [Eh]
	 Singles Energy            =      -0.0000000000000000 [Eh]
	 Same-Spin Energy          =      -0.5581285650815191 [Eh]
	 Opposite-Spin Energy      =      -1.7438757699538012 [Eh]
	 Correlation Energy        =      -2.3020043350353205 [Eh]
	 Total Energy              =    -516.8905220779578258 [Eh]

	 ================> DF-SCS-MP2 Energies <==================
	-----------------------------------------------------------
	 SCS Same-Spin Scale       =       0.3333333333333333 [-]
	 SCS Opposite-Spin Scale   =       1.2000000000000000 [-]
	 SCS Same-Spin Energy      =      -0.1860428550271730 [Eh]
	 SCS Opposite-Spin Energy  =      -2.0926509239445612 [Eh]
	 SCS Correlation Energy    =      -2.2786937789717343 [Eh]
	 SCS Total Energy          =    -516.8672115218942054 [Eh]
	-----------------------------------------------------------

  Dipole Moment: [D]
     X:    -2.7768      Y:     2.1171      Z:    -0.0513     Total:     3.4921

*** Psi4 exiting successfully. Buy a developer a beer!
