                               Psi4 1.4a2.dev612

  ==> Input File <==

--------------------------------------------------------------------------
#psi4
#
memory 32 gb

molecule  {
0 1
  O        3.0005300    -1.5493530     0.0754490
  N        0.8317470    -1.1153310    -0.4215630
  C        0.1960040     1.9504030    -0.2395030
  C        1.6857700     1.6448450    -0.3508570
  C       -0.7674710     0.7851500    -0.1025020
  C        2.2173201     0.7157466     0.4746814
  C       -0.4596220    -0.5879500    -0.1790540
  C        2.0510250    -0.7686880     0.1361100
  C       -2.1103850     1.1321340     0.1249900
  C       -1.4919760    -1.5397800    -0.0852490
  C       -3.1313420     0.1920050     0.2149350
  C       -2.8150140    -1.1632860     0.1069400
  H       -0.1141940     2.5504580    -1.1051150
  H        0.0480080     2.5950730     0.6372840
  H        1.9308140     1.2745600    -1.3520490
  H        2.2359360     2.5841340    -0.2253410
  H        1.5370720     0.7103830     1.6057590
  H        3.1934550     0.7649280     0.9813470
  H        0.8461440    -2.0798130    -0.7458600
  H       -2.3558010     2.1909910     0.2008090
  H       -1.2325710    -2.5958500    -0.1409630
  H       -4.1571650     0.5114050     0.3790120
  H       -3.5892060    -1.9233590     0.1747080
units angstrom
no_reorient  #important for SAPT in psi4, default
symmetry c1  #important for SAPT in psi4, default
}

set PROPERTIES_ORIGIN ["COM"]
properties('MP2/aug-cc-pvtz', properties = ['dipole'])
--------------------------------------------------------------------------

    Molecular point group: c1
  Charge       = 0
  Multiplicity = 1
  Basis Set: AUG-CC-PVTZ
    Blend: AUG-CC-PVTZ
  Basis Set: (AUG-CC-PVTZ AUX)
    Blend: AUG-CC-PVTZ-JKFIT

    Orbital Energies [Eh]
    ---------------------

    Doubly Occupied:

       1A    -20.527512     2A    -15.597324     3A    -11.359736
       4A    -11.297428     5A    -11.258172     6A    -11.256180
       7A    -11.248602     8A    -11.246508     9A    -11.245317
      10A    -11.244656    11A    -11.240256    12A    -11.233689
      13A     -1.381330    14A     -1.253999    15A     -1.152181
      16A     -1.127904    17A     -1.046758    18A     -1.016805
      19A     -0.952974    20A     -0.887971    21A     -0.843621
      22A     -0.807489    23A     -0.767907    24A     -0.721239
      25A     -0.679250    26A     -0.675005    27A     -0.654312
      28A     -0.636085    29A     -0.620770    30A     -0.605477
      31A     -0.594000    32A     -0.583235    33A     -0.563918
      34A     -0.546018    35A     -0.529962    36A     -0.504028
      37A     -0.499811    38A     -0.492017    39A     -0.451682
      40A     -0.436353    41A     -0.413139    42A     -0.340816
      43A     -0.316613

  @DF-RHF Final Energy:  -514.53596211421370

   => Energetics <=

    Nuclear Repulsion Energy =            676.0980248052489969
    One-Electron Energy =               -2039.5518789280483816
    Two-Electron Energy =                 848.9178920085856817
    Total Energy =                       -514.5359621142137030
  Basis Set: (AUG-CC-PVTZ AUX)
    Blend: AUG-CC-PVTZ-RI
    Molecular point group: c1

    Geometry (in Angstrom), charge = 0, multiplicity = 1:

       Center              X                  Y                   Z               Mass
    ------------   -----------------  -----------------  -----------------  -----------------
         O            2.985249363026    -1.515591405800     0.094555078122    15.994914619570
         N            0.816466363026    -1.081569405800    -0.402456921878    14.003074004430
         C            0.180723363026     1.984164594200    -0.220396921878    12.000000000000
         C            1.670489363026     1.678606594200    -0.331750921878    12.000000000000
         C           -0.782751636974     0.818911594200    -0.083395921878    12.000000000000
         C            2.202039463026     0.749508194200     0.493787478122    12.000000000000
         C           -0.474902636974    -0.554188405800    -0.159947921878    12.000000000000
         C            2.035744363026    -0.734926405800     0.155216078122    12.000000000000
         C           -2.125665636974     1.165895594200     0.144096078122    12.000000000000
         C           -1.507256636974    -1.506018405800    -0.066142921878    12.000000000000
         C           -3.146622636974     0.225766594200     0.234041078122    12.000000000000
         C           -2.830294636974    -1.129524405800     0.126046078122    12.000000000000
         H           -0.129474636974     2.584219594200    -1.086008921878     1.007825032230
         H            0.032727363026     2.628834594200     0.656390078122     1.007825032230
         H            1.915533363026     1.308321594200    -1.332942921878     1.007825032230
         H            2.220655363026     2.617895594200    -0.206234921878     1.007825032230
         H            1.521791363026     0.744144594200     1.624865078122     1.007825032230
         H            3.178174363026     0.798689594200     1.000453078122     1.007825032230
         H            0.830863363026    -2.046051405800    -0.726753921878     1.007825032230
         H           -2.371081636974     2.224752594200     0.219915078122     1.007825032230
         H           -1.247851636974    -2.562088405800    -0.121856921878     1.007825032230
         H           -4.172445636974     0.545166594200     0.398118078122     1.007825032230
         H           -3.604486636974    -1.889597405800     0.193814078122     1.007825032230

  Basis Set: AUG-CC-PVTZ
    Blend: AUG-CC-PVTZ
  Basis Set: (AUG-CC-PVTZ AUX)
    Blend: AUG-CC-PVTZ-JKFIT
	 Reference Energy          =    -514.5359621142137030 [Eh]
	 Singles Energy            =      -0.0000000000000000 [Eh]
	 Same-Spin Energy          =      -0.5607899063893818 [Eh]
	 Opposite-Spin Energy      =      -1.7473944568611810 [Eh]
	 Correlation Energy        =      -2.3081843632505628 [Eh]
	 Total Energy              =    -516.8441464774642782 [Eh]

	 ================> DF-SCS-MP2 Energies <==================
	-----------------------------------------------------------
	 SCS Same-Spin Scale       =       0.3333333333333333 [-]
	 SCS Opposite-Spin Scale   =       1.2000000000000000 [-]
	 SCS Same-Spin Energy      =      -0.1869299687964606 [Eh]
	 SCS Opposite-Spin Energy  =      -2.0968733482334172 [Eh]
	 SCS Correlation Energy    =      -2.2838033170298777 [Eh]
	 SCS Total Energy          =    -516.8197654312435816 [Eh]
	-----------------------------------------------------------

  Dipole Moment: [D]
     X:    -2.7137      Y:     2.0814      Z:    -0.1653     Total:     3.4240

*** Psi4 exiting successfully. Buy a developer a beer!
