                               Psi4 1.4a2.dev612

  ==> Input File <==

--------------------------------------------------------------------------
#psi4
#
memory 32 gb

molecule  {
0 1
  O        3.0005300    -1.5493530     0.0754490
  N        0.8317470    -1.1153310    -0.4215630
  C        0.1960040     1.9504030    -0.2395030
  C        1.6857700     1.6448450    -0.3508570
  C       -0.7674710     0.7851500    -0.1025020
  C        2.1481850     0.6250380     0.6971500
  C       -0.4596220    -0.5879500    -0.1790540
  C        2.0510250    -0.7686880     0.1361100
  C       -2.1347542     1.1349042    -0.0229913
  C       -1.4919760    -1.5397800    -0.0852490
  C       -3.1313420     0.1920050     0.2149350
  C       -2.8150140    -1.1632860     0.1069400
  H       -0.1141940     2.5504580    -1.1051150
  H        0.0480080     2.5950730     0.6372840
  H        1.9308140     1.2745600    -1.3520490
  H        2.2359360     2.5841340    -0.2253410
  H        1.5370720     0.7103830     1.6057590
  H        3.1934550     0.7649280     0.9813470
  H        0.8461440    -2.0798130    -0.7458600
  H       -2.3558010     2.1909910     0.2008090
  H       -1.2325710    -2.5958500    -0.1409630
  H       -4.1571650     0.5114050     0.3790120
  H       -3.5892060    -1.9233590     0.1747080
units angstrom
no_reorient  #important for SAPT in psi4, default
symmetry c1  #important for SAPT in psi4, default
}

set PROPERTIES_ORIGIN ["COM"]
properties('MP2/aug-cc-pvtz', properties = ['dipole'])
--------------------------------------------------------------------------

    Molecular point group: c1
  Charge       = 0
  Multiplicity = 1
  Basis Set: AUG-CC-PVTZ
    Blend: AUG-CC-PVTZ
  Basis Set: (AUG-CC-PVTZ AUX)
    Blend: AUG-CC-PVTZ-JKFIT

    Orbital Energies [Eh]
    ---------------------

    Doubly Occupied:

       1A    -20.525628     2A    -15.596067     3A    -11.356953
       4A    -11.297129     5A    -11.256568     6A    -11.246671
       7A    -11.246392     8A    -11.245339     9A    -11.244957
      10A    -11.243052    11A    -11.242188    12A    -11.241027
      13A     -1.380088    14A     -1.253061    15A     -1.151067
      16A     -1.101866    17A     -1.038704    18A     -1.015952
      19A     -0.957016    20A     -0.880335    21A     -0.842204
      22A     -0.808602    23A     -0.765165    24A     -0.720791
      25A     -0.682113    26A     -0.671419    27A     -0.645082
      28A     -0.628232    29A     -0.610664    30A     -0.602631
      31A     -0.598876    32A     -0.578492    33A     -0.566509
      34A     -0.541470    35A     -0.516344    36A     -0.510732
      37A     -0.498007    38A     -0.492225    39A     -0.482080
      40A     -0.434465    41A     -0.425968    42A     -0.340557
      43A     -0.315722

  @DF-RHF Final Energy:  -514.58804109661048

   => Energetics <=

    Nuclear Repulsion Energy =            674.7880221152508966
    One-Electron Energy =               -2037.1553063486824158
    Two-Electron Energy =                 847.7792431368210373
    Total Energy =                       -514.5880410966104819
  Basis Set: (AUG-CC-PVTZ AUX)
    Blend: AUG-CC-PVTZ-RI
    Molecular point group: c1

    Geometry (in Angstrom), charge = 0, multiplicity = 1:

       Center              X                  Y                   Z               Mass
    ------------   -----------------  -----------------  -----------------  -----------------
         O            2.992214990614    -1.509040411407     0.089006126985    15.994914619570
         N            0.823431990614    -1.075018411407    -0.408005873015    14.003074004430
         C            0.187688990614     1.990715588593    -0.225945873015    12.000000000000
         C            1.677454990614     1.685157588593    -0.337299873015    12.000000000000
         C           -0.775786009386     0.825462588593    -0.088944873015    12.000000000000
         C            2.139869990614     0.665350588593     0.710707126985    12.000000000000
         C           -0.467937009386    -0.547637411407    -0.165496873015    12.000000000000
         C            2.042709990614    -0.728375411407     0.149667126985    12.000000000000
         C           -2.143069209386     1.175216788593    -0.009434173015    12.000000000000
         C           -1.500291009386    -1.499467411407    -0.071691873015    12.000000000000
         C           -3.139657009386     0.232317588593     0.228492126985    12.000000000000
         C           -2.823329009386    -1.122973411407     0.120497126985    12.000000000000
         H           -0.122509009386     2.590770588593    -1.091557873015     1.007825032230
         H            0.039692990614     2.635385588593     0.650841126985     1.007825032230
         H            1.922498990614     1.314872588593    -1.338491873015     1.007825032230
         H            2.227620990614     2.624446588593    -0.211783873015     1.007825032230
         H            1.528756990614     0.750695588593     1.619316126985     1.007825032230
         H            3.185139990614     0.805240588593     0.994904126985     1.007825032230
         H            0.837828990614    -2.039500411407    -0.732302873015     1.007825032230
         H           -2.364116009386     2.231303588593     0.214366126985     1.007825032230
         H           -1.240886009386    -2.555537411407    -0.127405873015     1.007825032230
         H           -4.165480009386     0.551717588593     0.392569126985     1.007825032230
         H           -3.597521009386    -1.883046411407     0.188265126985     1.007825032230

  Basis Set: AUG-CC-PVTZ
    Blend: AUG-CC-PVTZ
  Basis Set: (AUG-CC-PVTZ AUX)
    Blend: AUG-CC-PVTZ-JKFIT
	 Reference Energy          =    -514.5880410966104819 [Eh]
	 Singles Energy            =      -0.0000000000000000 [Eh]
	 Same-Spin Energy          =      -0.5581883357059463 [Eh]
	 Opposite-Spin Energy      =      -1.7438720727817016 [Eh]
	 Correlation Energy        =      -2.3020604084876481 [Eh]
	 Total Energy              =    -516.8901015050980732 [Eh]

	 ================> DF-SCS-MP2 Energies <==================
	-----------------------------------------------------------
	 SCS Same-Spin Scale       =       0.3333333333333333 [-]
	 SCS Opposite-Spin Scale   =       1.2000000000000000 [-]
	 SCS Same-Spin Energy      =      -0.1860627785686488 [Eh]
	 SCS Opposite-Spin Energy  =      -2.0926464873380417 [Eh]
	 SCS Correlation Energy    =      -2.2787092659066905 [Eh]
	 SCS Total Energy          =    -516.8667503625172230 [Eh]
	-----------------------------------------------------------

  Dipole Moment: [D]
     X:    -2.7155      Y:     2.0116      Z:     0.1276     Total:     3.3818

*** Psi4 exiting successfully. Buy a developer a beer!
