                               Psi4 1.4a2.dev612

  ==> Input File <==

--------------------------------------------------------------------------
#psi4
#
memory 32 gb

molecule  {
0 1
  O        3.0005300    -1.5493530     0.0754490
  N        0.8317470    -1.1153310    -0.4215630
  C        0.1960040     1.9504030    -0.2395030
  C        1.6857700     1.6448450    -0.3508570
  C       -0.7674710     0.7851500    -0.1025020
  C        2.1481850     0.6250380     0.6971500
  C       -0.4596220    -0.5879500    -0.1790540
  C        2.0510250    -0.7686880     0.1361100
  C       -2.1510004     1.1367510    -0.1216455
  C       -1.4919760    -1.5397800    -0.0852490
  C       -3.1313420     0.1920050     0.2149350
  C       -2.8150140    -1.1632860     0.1069400
  H       -0.1141940     2.5504580    -1.1051150
  H        0.0480080     2.5950730     0.6372840
  H        1.9308140     1.2745600    -1.3520490
  H        2.2359360     2.5841340    -0.2253410
  H        1.5370720     0.7103830     1.6057590
  H        3.1934550     0.7649280     0.9813470
  H        0.8461440    -2.0798130    -0.7458600
  H       -2.3558010     2.1909910     0.2008090
  H       -1.2325710    -2.5958500    -0.1409630
  H       -4.1571650     0.5114050     0.3790120
  H       -3.5892060    -1.9233590     0.1747080
units angstrom
no_reorient  #important for SAPT in psi4, default
symmetry c1  #important for SAPT in psi4, default
}

set PROPERTIES_ORIGIN ["COM"]
properties('MP2/aug-cc-pvtz', properties = ['dipole'])
--------------------------------------------------------------------------

    Molecular point group: c1
  Charge       = 0
  Multiplicity = 1
  Basis Set: AUG-CC-PVTZ
    Blend: AUG-CC-PVTZ
  Basis Set: (AUG-CC-PVTZ AUX)
    Blend: AUG-CC-PVTZ-JKFIT

    Orbital Energies [Eh]
    ---------------------

    Doubly Occupied:

       1A    -20.525645     2A    -15.596056     3A    -11.356968
       4A    -11.296850     5A    -11.259482     6A    -11.249260
       7A    -11.248082     8A    -11.245991     9A    -11.245023
      10A    -11.243953    11A    -11.243221    12A    -11.242228
      13A     -1.380134    14A     -1.253157    15A     -1.149895
      16A     -1.101998    17A     -1.038398    18A     -1.014939
      19A     -0.956877    20A     -0.879810    21A     -0.841464
      22A     -0.808314    23A     -0.764184    24A     -0.719355
      25A     -0.682174    26A     -0.672185    27A     -0.643757
      28A     -0.626846    29A     -0.610324    30A     -0.602646
      31A     -0.595434    32A     -0.577873    33A     -0.567743
      34A     -0.540484    35A     -0.514939    36A     -0.509666
      37A     -0.497488    38A     -0.491711    39A     -0.481151
      40A     -0.433469    41A     -0.426023    42A     -0.340775
      43A     -0.314960

  @DF-RHF Final Energy:  -514.57569469860005

   => Energetics <=

    Nuclear Repulsion Energy =            674.3211271879063133
    One-Electron Energy =               -2036.2117789923267992
    Two-Electron Energy =                 847.3149571058204401
    Total Energy =                       -514.5756946986000457
  Basis Set: (AUG-CC-PVTZ AUX)
    Blend: AUG-CC-PVTZ-RI
    Molecular point group: c1

    Geometry (in Angstrom), charge = 0, multiplicity = 1:

       Center              X                  Y                   Z               Mass
    ------------   -----------------  -----------------  -----------------  -----------------
         O            2.993425255585    -1.509177989262     0.096355397737    15.994914619570
         N            0.824642255585    -1.075155989262    -0.400656602263    14.003074004430
         C            0.188899255585     1.990578010738    -0.218596602263    12.000000000000
         C            1.678665255585     1.685020010738    -0.329950602263    12.000000000000
         C           -0.774575744415     0.825325010738    -0.081595602263    12.000000000000
         C            2.141080255585     0.665213010738     0.718056397737    12.000000000000
         C           -0.466726744415    -0.547774989262    -0.158147602263    12.000000000000
         C            2.043920255585    -0.728512989262     0.157016397737    12.000000000000
         C           -2.158105144415     1.176926010738    -0.100739102263    12.000000000000
         C           -1.499080744415    -1.499604989262    -0.064342602263    12.000000000000
         C           -3.138446744415     0.232180010738     0.235841397737    12.000000000000
         C           -2.822118744415    -1.123110989262     0.127846397737    12.000000000000
         H           -0.121298744415     2.590633010738    -1.084208602263     1.007825032230
         H            0.040903255585     2.635248010738     0.658190397737     1.007825032230
         H            1.923709255585     1.314735010738    -1.331142602263     1.007825032230
         H            2.228831255585     2.624309010738    -0.204434602263     1.007825032230
         H            1.529967255585     0.750558010738     1.626665397737     1.007825032230
         H            3.186350255585     0.805103010738     1.002253397737     1.007825032230
         H            0.839039255585    -2.039637989262    -0.724953602263     1.007825032230
         H           -2.362905744415     2.231166010738     0.221715397737     1.007825032230
         H           -1.239675744415    -2.555674989262    -0.120056602263     1.007825032230
         H           -4.164269744415     0.551580010738     0.399918397737     1.007825032230
         H           -3.596310744415    -1.883183989262     0.195614397737     1.007825032230

  Basis Set: AUG-CC-PVTZ
    Blend: AUG-CC-PVTZ
  Basis Set: (AUG-CC-PVTZ AUX)
    Blend: AUG-CC-PVTZ-JKFIT
	 Reference Energy          =    -514.5756946986000457 [Eh]
	 Singles Energy            =      -0.0000000000000000 [Eh]
	 Same-Spin Energy          =      -0.5588124725811396 [Eh]
	 Opposite-Spin Energy      =      -1.7456635970654926 [Eh]
	 Correlation Energy        =      -2.3044760696466322 [Eh]
	 Total Energy              =    -516.8801707682466713 [Eh]

	 ================> DF-SCS-MP2 Energies <==================
	-----------------------------------------------------------
	 SCS Same-Spin Scale       =       0.3333333333333333 [-]
	 SCS Opposite-Spin Scale   =       1.2000000000000000 [-]
	 SCS Same-Spin Energy      =      -0.1862708241937132 [Eh]
	 SCS Opposite-Spin Energy  =      -2.0947963164785910 [Eh]
	 SCS Correlation Energy    =      -2.2810671406723042 [Eh]
	 SCS Total Energy          =    -516.8567618392723944 [Eh]
	-----------------------------------------------------------

  Dipole Moment: [D]
     X:    -2.6810      Y:     1.9284      Z:     0.1901     Total:     3.3080

*** Psi4 exiting successfully. Buy a developer a beer!
