                               Psi4 1.3.2 release

  ==> Input File <==

--------------------------------------------------------------------------
#psi4
#
memory 32 gb

molecule  {
0 1
  O        1.0008990     1.1197090    -0.0959030
  O       -1.6140900    -1.2902895    -0.1181773
  O       -1.2230690     1.6022640    -0.0675910
  C        0.8143200    -1.2427870    -0.1986520
  C       -0.4577570    -0.6687040     0.3963640
  C        1.7925350    -0.0950530     0.0479070
  C       -0.3121170     0.8099600     0.0626390
  H        0.6529500    -1.3959670    -1.2698370
  H        1.1362240    -2.1837260     0.2527190
  H       -0.4482060    -0.7692910     1.4955050
  H        2.2087130    -0.1135160     1.0603560
  H        2.6064290    -0.0309800    -0.6748690
  H       -2.2893650    -0.4737730    -0.1440310
units angstrom
no_reorient  #important for SAPT in psi4, default
symmetry c1  #important for SAPT in psi4, default
}

set PROPERTIES_ORIGIN ["COM"]
properties('MP2/aug-cc-pvtz', properties = ['dipole'])
--------------------------------------------------------------------------

    Molecular point group: c1
  Charge       = 0
  Multiplicity = 1
  Basis Set: AUG-CC-PVTZ
    Blend: AUG-CC-PVTZ
  Basis Set: (AUG-CC-PVTZ AUX)
    Blend: AUG-CC-PVTZ-JKFIT

    Orbital Energies [Eh]
    ---------------------

    Doubly Occupied:

       1A    -20.621917     2A    -20.589340     3A    -20.562371
       4A    -11.395333     5A    -11.317178     6A    -11.316635
       7A    -11.257067     8A     -1.470832     9A     -1.381965
      10A     -1.367448    11A     -1.090641    12A     -0.986781
      13A     -0.862211    14A     -0.791621    15A     -0.735080
      16A     -0.705665    17A     -0.683180    18A     -0.657300
      19A     -0.623529    20A     -0.604356    21A     -0.579320
      22A     -0.561293    23A     -0.533548    24A     -0.525015
      25A     -0.471766    26A     -0.468908    27A     -0.448462

  @DF-RHF Final Energy:  -379.68902114633352

   => Energetics <=

    Nuclear Repulsion Energy =            316.6092978821409361
    One-Electron Energy =               -1147.3791107973672752
    Two-Electron Energy =                 451.0807917688928228
    Total Energy =                       -379.6890211463335163
  Basis Set: (AUG-CC-PVTZ AUX)
    Blend: AUG-CC-PVTZ-RI
    Molecular point group: c1

    Geometry (in Angstrom), charge = 0, multiplicity = 1:

       Center              X                  Y                   Z               Mass
    ------------   -----------------  -----------------  -----------------  -----------------
         O            1.034516470992     1.085067553901    -0.095111710584    15.994914619570
         O           -1.580472529008    -1.324930946099    -0.117386010584    15.994914619570
         O           -1.189451529008     1.567622553901    -0.066799710584    15.994914619570
         C            0.847937470992    -1.277428446099    -0.197860710584    12.000000000000
         C           -0.424139529008    -0.703345446099     0.397155289416    12.000000000000
         C            1.826152470992    -0.129694446099     0.048698289416    12.000000000000
         C           -0.278499529008     0.775318553901     0.063430289416    12.000000000000
         H            0.686567470992    -1.430608446099    -1.269045710584     1.007825032230
         H            1.169841470992    -2.218367446099     0.253510289416     1.007825032230
         H           -0.414588529008    -0.803932446099     1.496296289416     1.007825032230
         H            2.242330470992    -0.148157446099     1.061147289416     1.007825032230
         H            2.640046470992    -0.065621446099    -0.674077710584     1.007825032230
         H           -2.255747529008    -0.508414446099    -0.143239710584     1.007825032230

  Basis Set: AUG-CC-PVTZ
    Blend: AUG-CC-PVTZ
  Basis Set: (AUG-CC-PVTZ AUX)
    Blend: AUG-CC-PVTZ-JKFIT
	 Reference Energy          =    -379.6890211463335163 [Eh]
	 Singles Energy            =      -0.0000000000000000 [Eh]
	 Same-Spin Energy          =      -0.3696688930899364 [Eh]
	 Opposite-Spin Energy      =      -1.1396040747230067 [Eh]
	 Correlation Energy        =      -1.5092729678129433 [Eh]
	 Total Energy              =    -381.1982941141464494 [Eh]

	 ================> DF-SCS-MP2 Energies <==================
	-----------------------------------------------------------
	 SCS Same-Spin Scale       =       0.3333333333333333 [-]
	 SCS Opposite-Spin Scale   =       1.2000000000000000 [-]
	 SCS Same-Spin Energy      =      -0.1232229643633121 [Eh]
	 SCS Opposite-Spin Energy  =      -1.3675248896676080 [Eh]
	 SCS Correlation Energy    =      -1.4907478540309200 [Eh]
	 SCS Total Energy          =    -381.1797690003644448 [Eh]
	-----------------------------------------------------------

  Dipole Moment: [D]
     X:     2.6611      Y:    -2.1515      Z:     0.8871     Total:     3.5352

*** Psi4 exiting successfully. Buy a developer a beer!
