                               Psi4 1.3.2 release

  ==> Input File <==

--------------------------------------------------------------------------
#psi4
#
memory 32 gb

molecule  {
0 1
  O        1.0008990     1.1197090    -0.0959030
  O       -1.6389080    -1.2036290    -0.1576800
  O       -1.2230690     1.6022640    -0.0675910
  C        0.8069791    -1.2668881    -0.1905036
  C       -0.4577570    -0.6687040     0.3963640
  C        1.7925350    -0.0950530     0.0479070
  C       -0.3121170     0.8099600     0.0626390
  H        0.6529500    -1.3959670    -1.2698370
  H        1.1362240    -2.1837260     0.2527190
  H       -0.4482060    -0.7692910     1.4955050
  H        2.2087130    -0.1135160     1.0603560
  H        2.6064290    -0.0309800    -0.6748690
  H       -2.2893650    -0.4737730    -0.1440310
units angstrom
no_reorient  #important for SAPT in psi4, default
symmetry c1  #important for SAPT in psi4, default
}

set PROPERTIES_ORIGIN ["COM"]
properties('MP2/aug-cc-pvtz', properties = ['dipole'])
--------------------------------------------------------------------------

    Molecular point group: c1
  Charge       = 0
  Multiplicity = 1
  Basis Set: AUG-CC-PVTZ
    Blend: AUG-CC-PVTZ
  Basis Set: (AUG-CC-PVTZ AUX)
    Blend: AUG-CC-PVTZ-JKFIT

    Orbital Energies [Eh]
    ---------------------

    Doubly Occupied:

       1A    -20.620866     2A    -20.580609     3A    -20.560396
       4A    -11.393212     5A    -11.318721     6A    -11.317882
       7A    -11.258697     8A     -1.469576     9A     -1.388258
      10A     -1.370766    11A     -1.091377    12A     -0.986606
      13A     -0.864154    14A     -0.797068    15A     -0.734008
      16A     -0.713939    17A     -0.689639    18A     -0.657867
      19A     -0.621729    20A     -0.604048    21A     -0.584510
      22A     -0.562555    23A     -0.530797    24A     -0.524385
      25A     -0.474617    26A     -0.467925    27A     -0.447843

  @DF-RHF Final Energy:  -379.70018017647271

   => Energetics <=

    Nuclear Repulsion Energy =            317.1554630359135558
    One-Electron Energy =               -1148.4471822864709338
    Two-Electron Energy =                 451.5915390740847215
    Total Energy =                       -379.7001801764727134
  Basis Set: (AUG-CC-PVTZ AUX)
    Blend: AUG-CC-PVTZ-RI
    Molecular point group: c1

    Geometry (in Angstrom), charge = 0, multiplicity = 1:

       Center              X                  Y                   Z               Mass
    ------------   -----------------  -----------------  -----------------  -----------------
         O            1.039270411378     1.074316834641    -0.089877439814    15.994914619570
         O           -1.600536588622    -1.249021165359    -0.151654439814    15.994914619570
         O           -1.184697588622     1.556871834641    -0.061565439814    15.994914619570
         C            0.845350511378    -1.312280265359    -0.184478039814    12.000000000000
         C           -0.419385588622    -0.714096165359     0.402389560186    12.000000000000
         C            1.830906411378    -0.140445165359     0.053932560186    12.000000000000
         C           -0.273745588622     0.764567834641     0.068664560186    12.000000000000
         H            0.691321411378    -1.441359165359    -1.263811439814     1.007825032230
         H            1.174595411378    -2.229118165359     0.258744560186     1.007825032230
         H           -0.409834588622    -0.814683165359     1.501530560186     1.007825032230
         H            2.247084411378    -0.158908165359     1.066381560186     1.007825032230
         H            2.644800411378    -0.076372165359    -0.668843439814     1.007825032230
         H           -2.250993588622    -0.519165165359    -0.138005439814     1.007825032230

  Basis Set: AUG-CC-PVTZ
    Blend: AUG-CC-PVTZ
  Basis Set: (AUG-CC-PVTZ AUX)
    Blend: AUG-CC-PVTZ-JKFIT
	 Reference Energy          =    -379.7001801764727134 [Eh]
	 Singles Energy            =      -0.0000000000000000 [Eh]
	 Same-Spin Energy          =      -0.3683531416685540 [Eh]
	 Opposite-Spin Energy      =      -1.1364839236506734 [Eh]
	 Correlation Energy        =      -1.5048370653192276 [Eh]
	 Total Energy              =    -381.2050172417919498 [Eh]

	 ================> DF-SCS-MP2 Energies <==================
	-----------------------------------------------------------
	 SCS Same-Spin Scale       =       0.3333333333333333 [-]
	 SCS Opposite-Spin Scale   =       1.2000000000000000 [-]
	 SCS Same-Spin Energy      =      -0.1227843805561847 [Eh]
	 SCS Opposite-Spin Energy  =      -1.3637807083808080 [Eh]
	 SCS Correlation Energy    =      -1.4865650889369926 [Eh]
	 SCS Total Energy          =    -381.1867452654096837 [Eh]
	-----------------------------------------------------------

  Dipole Moment: [D]
     X:     2.6978      Y:    -2.2877      Z:     0.9850     Total:     3.6718

*** Psi4 exiting successfully. Buy a developer a beer!
