                               Psi4 1.4a3.dev225

  ==> Input File <==

--------------------------------------------------------------------------
#psi4
#
memory 32 gb

molecule  {
0 1
  O        1.0008990     1.1197090    -0.0959030
  O       -1.6389080    -1.2036290    -0.1576800
  O       -1.2230690     1.6022640    -0.0675910
  C        0.8143200    -1.2427870    -0.1986520
  C       -0.4577570    -0.6687040     0.3963640
  C        1.7925350    -0.0950530     0.0479070
  C       -0.3168989     0.7614103     0.0735963
  H        0.6529500    -1.3959670    -1.2698370
  H        1.1362240    -2.1837260     0.2527190
  H       -0.4482060    -0.7692910     1.4955050
  H        2.2087130    -0.1135160     1.0603560
  H        2.6064290    -0.0309800    -0.6748690
  H       -2.2893650    -0.4737730    -0.1440310
units angstrom
no_reorient  #important for SAPT in psi4, default
symmetry c1  #important for SAPT in psi4, default
}

set PROPERTIES_ORIGIN ["COM"]
properties('MP2/aug-cc-pvtz', properties = ['dipole'])
--------------------------------------------------------------------------

    Molecular point group: c1
  Charge       = 0
  Multiplicity = 1
  Basis Set: AUG-CC-PVTZ
    Blend: AUG-CC-PVTZ
  Basis Set: (AUG-CC-PVTZ AUX)
    Blend: AUG-CC-PVTZ-JKFIT

    Orbital Energies [Eh]
    ---------------------

    Doubly Occupied:

       1A    -20.621030     2A    -20.584273     3A    -20.558983
       4A    -11.396742     5A    -11.321133     6A    -11.316482
       7A    -11.261754     8A     -1.463082     9A     -1.390283
      10A     -1.355212    11A     -1.100064    12A     -0.994488
      13A     -0.867778    14A     -0.800018    15A     -0.735523
      16A     -0.713271    17A     -0.690314    18A     -0.656902
      19A     -0.616189    20A     -0.601673    21A     -0.584408
      22A     -0.559860    23A     -0.534547    24A     -0.522060
      25A     -0.477858    26A     -0.462597    27A     -0.454247

  @DF-RHF Final Energy:  -379.69266844421861

   => Energetics <=

    Nuclear Repulsion Energy =            317.5959082366285884
    One-Electron Energy =               -1149.2956135433403233
    Two-Electron Energy =                 452.0070368624931234
    Total Energy =                       -379.6926684442186115
  Basis Set: (AUG-CC-PVTZ AUX)
    Blend: AUG-CC-PVTZ-RI
    Molecular point group: c1

    Geometry (in Angstrom), charge = 0, multiplicity = 1:

       Center              X                  Y                   Z               Mass
    ------------   -----------------  -----------------  -----------------  -----------------
         O            1.038969446073     1.077192247058    -0.090207795988    15.994914619570
         O           -1.600837553927    -1.246145752942    -0.151984795988    15.994914619570
         O           -1.184998553927     1.559747247058    -0.061895795988    15.994914619570
         C            0.852390446073    -1.285303752942    -0.192956795988    12.000000000000
         C           -0.419686553927    -0.711220752942     0.402059204012    12.000000000000
         C            1.830605446073    -0.137569752942     0.053602204012    12.000000000000
         C           -0.278828453927     0.718893547058     0.079291504012    12.000000000000
         H            0.691020446073    -1.438483752942    -1.264141795988     1.007825032230
         H            1.174294446073    -2.226242752942     0.258414204012     1.007825032230
         H           -0.410135553927    -0.811807752942     1.501200204012     1.007825032230
         H            2.246783446073    -0.156032752942     1.066051204012     1.007825032230
         H            2.644499446073    -0.073496752942    -0.669173795988     1.007825032230
         H           -2.251294553927    -0.516289752942    -0.138335795988     1.007825032230

  Basis Set: AUG-CC-PVTZ
    Blend: AUG-CC-PVTZ
  Basis Set: (AUG-CC-PVTZ AUX)
    Blend: AUG-CC-PVTZ-JKFIT
	 Reference Energy          =    -379.6926684442186115 [Eh]
	 Singles Energy            =      -0.0000000000000000 [Eh]
	 Same-Spin Energy          =      -0.3697737124810383 [Eh]
	 Opposite-Spin Energy      =      -1.1392504516142556 [Eh]
	 Correlation Energy        =      -1.5090241640952939 [Eh]
	 Total Energy              =    -381.2016926083139197 [Eh]

	 ================> DF-SCS-MP2 Energies <==================
	-----------------------------------------------------------
	 SCS Same-Spin Scale       =       0.3333333333333333 [-]
	 SCS Opposite-Spin Scale   =       1.2000000000000000 [-]
	 SCS Same-Spin Energy      =      -0.1232579041603461 [Eh]
	 SCS Opposite-Spin Energy  =      -1.3671005419371067 [Eh]
	 SCS Correlation Energy    =      -1.4903584460974528 [Eh]
	 SCS Total Energy          =    -381.1830268903160572 [Eh]
	-----------------------------------------------------------

  Dipole Moment: [D]
     X:     2.6810      Y:    -2.4922      Z:     1.0237     Total:     3.8009

*** Psi4 exiting successfully. Buy a developer a beer!
