                               Psi4 1.3.2 release

  ==> Input File <==

--------------------------------------------------------------------------
#psi4
#
memory 32 gb

molecule  {
0 1
  O        1.0008990     1.1197090    -0.0959030
  O       -1.6389080    -1.2036290    -0.1576800
  O       -1.2230690     1.6022640    -0.0675910
  C        0.8143200    -1.2427870    -0.1986520
  C       -0.4445799    -0.6466065     0.4026259
  C        1.7925350    -0.0950530     0.0479070
  C       -0.3121170     0.8099600     0.0626390
  H        0.6529500    -1.3959670    -1.2698370
  H        1.1362240    -2.1837260     0.2527190
  H       -0.4482060    -0.7692910     1.4955050
  H        2.2087130    -0.1135160     1.0603560
  H        2.6064290    -0.0309800    -0.6748690
  H       -2.2893650    -0.4737730    -0.1440310
units angstrom
no_reorient  #important for SAPT in psi4, default
symmetry c1  #important for SAPT in psi4, default
}

set PROPERTIES_ORIGIN ["COM"]
properties('MP2/aug-cc-pvtz', properties = ['dipole'])
--------------------------------------------------------------------------

    Molecular point group: c1
  Charge       = 0
  Multiplicity = 1
  Basis Set: AUG-CC-PVTZ
    Blend: AUG-CC-PVTZ
  Basis Set: (AUG-CC-PVTZ AUX)
    Blend: AUG-CC-PVTZ-JKFIT

    Orbital Energies [Eh]
    ---------------------

    Doubly Occupied:

       1A    -20.620625     2A    -20.579574     3A    -20.560677
       4A    -11.393259     5A    -11.317973     6A    -11.317341
       7A    -11.259636     8A     -1.470973     9A     -1.383771
      10A     -1.367983    11A     -1.095489    12A     -0.991403
      13A     -0.864674    14A     -0.796239    15A     -0.735698
      16A     -0.711616    17A     -0.688484    18A     -0.658028
      19A     -0.621538    20A     -0.605510    21A     -0.578180
      22A     -0.560494    23A     -0.535385    24A     -0.522940
      25A     -0.475729    26A     -0.468777    27A     -0.451219

  @DF-RHF Final Energy:  -379.69949773199562

   => Energetics <=

    Nuclear Repulsion Energy =            317.6014347777486364
    One-Electron Energy =               -1149.3354337589262286
    Two-Electron Energy =                 452.0345012491819716
    Total Energy =                       -379.6994977319956206
  Basis Set: (AUG-CC-PVTZ AUX)
    Blend: AUG-CC-PVTZ-RI
    Molecular point group: c1

    Geometry (in Angstrom), charge = 0, multiplicity = 1:

       Center              X                  Y                   Z               Mass
    ------------   -----------------  -----------------  -----------------  -----------------
         O            1.036857278849     1.068883393540    -0.089655567579    15.994914619570
         O           -1.602949721152    -1.254454606460    -0.151432567579    15.994914619570
         O           -1.187110721151     1.551438393540    -0.061343567579    15.994914619570
         C            0.850278278849    -1.293612606460    -0.192404567579    12.000000000000
         C           -0.408621621151    -0.697432106460     0.408873332421    12.000000000000
         C            1.828493278849    -0.145878606460     0.054154432421    12.000000000000
         C           -0.276158721151     0.759134393540     0.068886432421    12.000000000000
         H            0.688908278849    -1.446792606460    -1.263589567579     1.007825032230
         H            1.172182278849    -2.234551606460     0.258966432421     1.007825032230
         H           -0.412247721151    -0.820116606460     1.501752432421     1.007825032230
         H            2.244671278849    -0.164341606460     1.066603432421     1.007825032230
         H            2.642387278849    -0.081805606460    -0.668621567579     1.007825032230
         H           -2.253406721151    -0.524598606460    -0.137783567579     1.007825032230

  Basis Set: AUG-CC-PVTZ
    Blend: AUG-CC-PVTZ
  Basis Set: (AUG-CC-PVTZ AUX)
    Blend: AUG-CC-PVTZ-JKFIT
	 Reference Energy          =    -379.6994977319956206 [Eh]
	 Singles Energy            =      -0.0000000000000000 [Eh]
	 Same-Spin Energy          =      -0.3685901968032187 [Eh]
	 Opposite-Spin Energy      =      -1.1370352445859355 [Eh]
	 Correlation Energy        =      -1.5056254413891543 [Eh]
	 Total Energy              =    -381.2051231733847771 [Eh]

	 ================> DF-SCS-MP2 Energies <==================
	-----------------------------------------------------------
	 SCS Same-Spin Scale       =       0.3333333333333333 [-]
	 SCS Opposite-Spin Scale   =       1.2000000000000000 [-]
	 SCS Same-Spin Energy      =      -0.1228633989344062 [Eh]
	 SCS Opposite-Spin Energy  =      -1.3644422935031226 [Eh]
	 SCS Correlation Energy    =      -1.4873056924375287 [Eh]
	 SCS Total Energy          =    -381.1868034244331511 [Eh]
	-----------------------------------------------------------

  Dipole Moment: [D]
     X:     2.7525      Y:    -2.2752      Z:     1.0103     Total:     3.7112

*** Psi4 exiting successfully. Buy a developer a beer!
