                               Psi4 1.3.2 release

  ==> Input File <==

--------------------------------------------------------------------------
#psi4
#
memory 32 gb

molecule  {
0 1
  O        1.0008990     1.1197090    -0.0959030
  O       -1.6389080    -1.2036290    -0.1576800
  O       -1.2230690     1.6022640    -0.0675910
  C        0.8143200    -1.2427870    -0.1986520
  C       -0.4577570    -0.6687040     0.3963640
  C        1.7925350    -0.0950530     0.0479070
  C       -0.1187906     0.8555669     0.0392955
  H        0.6529500    -1.3959670    -1.2698370
  H        1.1362240    -2.1837260     0.2527190
  H       -0.4482060    -0.7692910     1.4955050
  H        2.2087130    -0.1135160     1.0603560
  H        2.6064290    -0.0309800    -0.6748690
  H       -2.2893650    -0.4737730    -0.1440310
units angstrom
no_reorient  #important for SAPT in psi4, default
symmetry c1  #important for SAPT in psi4, default
}

set PROPERTIES_ORIGIN ["COM"]
properties('MP2/aug-cc-pvtz', properties = ['dipole'])
--------------------------------------------------------------------------

    Molecular point group: c1
  Charge       = 0
  Multiplicity = 1
  Basis Set: AUG-CC-PVTZ
    Blend: AUG-CC-PVTZ
  Basis Set: (AUG-CC-PVTZ AUX)
    Blend: AUG-CC-PVTZ-JKFIT

    Orbital Energies [Eh]
    ---------------------

    Doubly Occupied:

       1A    -20.668403     2A    -20.575176     3A    -20.516603
       4A    -11.389363     5A    -11.343274     6A    -11.317095
       7A    -11.264614     8A     -1.584236     9A     -1.377284
      10A     -1.286028    11A     -1.115350    12A     -1.008681
      13A     -0.873040    14A     -0.823027    15A     -0.769901
      16A     -0.734618    17A     -0.694593    18A     -0.673614
      19A     -0.626935    20A     -0.595868    21A     -0.591739
      22A     -0.565153    23A     -0.540487    24A     -0.497308
      25A     -0.469263    26A     -0.430999    27A     -0.410759

  @DF-RHF Final Energy:  -379.63970304002902

   => Energetics <=

    Nuclear Repulsion Energy =            318.3303806878707292
    One-Electron Energy =               -1150.4533433389219681
    Two-Electron Energy =                 452.4832596110222198
    Total Energy =                       -379.6397030400290191
  Basis Set: (AUG-CC-PVTZ AUX)
    Blend: AUG-CC-PVTZ-RI
    Molecular point group: c1

    Geometry (in Angstrom), charge = 0, multiplicity = 1:

       Center              X                  Y                   Z               Mass
    ------------   -----------------  -----------------  -----------------  -----------------
         O            1.015669827047     1.066118440918    -0.086173661263    15.994914619570
         O           -1.624137172953    -1.257219559082    -0.147950661263    15.994914619570
         O           -1.208298172953     1.548673440918    -0.057861661263    15.994914619570
         C            0.829090827047    -1.296377559082    -0.188922661263    12.000000000000
         C           -0.442986172953    -0.722294559082     0.406093338737    12.000000000000
         C            1.807305827047    -0.148643559082     0.057636338737    12.000000000000
         C           -0.104019772953     0.801976340918     0.049024838737    12.000000000000
         H            0.667720827047    -1.449557559082    -1.260107661263     1.007825032230
         H            1.150994827047    -2.237316559082     0.262448338737     1.007825032230
         H           -0.433435172953    -0.822881559082     1.505234338737     1.007825032230
         H            2.223483827047    -0.167106559082     1.070085338737     1.007825032230
         H            2.621199827047    -0.084570559082    -0.665139661263     1.007825032230
         H           -2.274594172953    -0.527363559082    -0.134301661263     1.007825032230

  Basis Set: AUG-CC-PVTZ
    Blend: AUG-CC-PVTZ
  Basis Set: (AUG-CC-PVTZ AUX)
    Blend: AUG-CC-PVTZ-JKFIT
	 Reference Energy          =    -379.6397030400290191 [Eh]
	 Singles Energy            =      -0.0000000000000000 [Eh]
	 Same-Spin Energy          =      -0.3695841676210496 [Eh]
	 Opposite-Spin Energy      =      -1.1374704682130399 [Eh]
	 Correlation Energy        =      -1.5070546358340895 [Eh]
	 Total Energy              =    -381.1467576758631139 [Eh]

	 ================> DF-SCS-MP2 Energies <==================
	-----------------------------------------------------------
	 SCS Same-Spin Scale       =       0.3333333333333333 [-]
	 SCS Opposite-Spin Scale   =       1.2000000000000000 [-]
	 SCS Same-Spin Energy      =      -0.1231947225403499 [Eh]
	 SCS Opposite-Spin Energy  =      -1.3649645618556479 [Eh]
	 SCS Correlation Energy    =      -1.4881592843959977 [Eh]
	 SCS Total Energy          =    -381.1278623244249957 [Eh]
	-----------------------------------------------------------

  Dipole Moment: [D]
     X:     4.4094      Y:    -2.5500      Z:     0.8973     Total:     5.1721

*** Psi4 exiting successfully. Buy a developer a beer!
