                               Psi4 1.4a3.dev225

  ==> Input File <==

--------------------------------------------------------------------------
#psi4
#
memory 32 gb

molecule  {
0 1
  O        1.0008990     1.1197090    -0.0959030
  O       -1.6389080    -1.2036290    -0.1576800
  O       -1.2230690     1.6022640    -0.0675910
  C        0.8143200    -1.2427870    -0.1986520
  C       -0.4158736    -0.6497356     0.4160103
  C        1.7925350    -0.0950530     0.0479070
  C       -0.3121170     0.8099600     0.0626390
  H        0.6529500    -1.3959670    -1.2698370
  H        1.1362240    -2.1837260     0.2527190
  H       -0.4482060    -0.7692910     1.4955050
  H        2.2087130    -0.1135160     1.0603560
  H        2.6064290    -0.0309800    -0.6748690
  H       -2.2893650    -0.4737730    -0.1440310
units angstrom
no_reorient  #important for SAPT in psi4, default
symmetry c1  #important for SAPT in psi4, default
}

set PROPERTIES_ORIGIN ["COM"]
properties('MP2/aug-cc-pvtz', properties = ['dipole'])
--------------------------------------------------------------------------

    Molecular point group: c1
  Charge       = 0
  Multiplicity = 1
  Basis Set: AUG-CC-PVTZ
    Blend: AUG-CC-PVTZ
  Basis Set: (AUG-CC-PVTZ AUX)
    Blend: AUG-CC-PVTZ-JKFIT

    Orbital Energies [Eh]
    ---------------------

    Doubly Occupied:

       1A    -20.620581     2A    -20.576347     3A    -20.561647
       4A    -11.394248     5A    -11.318056     6A    -11.317826
       7A    -11.259937     8A     -1.471414     9A     -1.380376
      10A     -1.360773    11A     -1.100349    12A     -0.992060
      13A     -0.865544    14A     -0.795672    15A     -0.736732
      16A     -0.709875    17A     -0.686425    18A     -0.658610
      19A     -0.621080    20A     -0.606502    21A     -0.576775
      22A     -0.556114    23A     -0.535457    24A     -0.522224
      25A     -0.479518    26A     -0.469221    27A     -0.452137

  @DF-RHF Final Energy:  -379.69689667015695

   => Energetics <=

    Nuclear Repulsion Energy =            317.5186300267125148
    One-Electron Energy =               -1149.1800508165736119
    Two-Electron Energy =                 451.9645241197040946
    Total Energy =                       -379.6968966701569457
  Basis Set: (AUG-CC-PVTZ AUX)
    Blend: AUG-CC-PVTZ-RI
    Molecular point group: c1

    Geometry (in Angstrom), charge = 0, multiplicity = 1:

       Center              X                  Y                   Z               Mass
    ------------   -----------------  -----------------  -----------------  -----------------
         O            1.033481116145     1.069251408600    -0.091229713745    15.994914619570
         O           -1.606325883855    -1.254086591400    -0.153006713745    15.994914619570
         O           -1.190486883855     1.551806408600    -0.062917713745    15.994914619570
         C            0.846902116145    -1.293244591400    -0.193978713745    12.000000000000
         C           -0.383291483855    -0.700193191400     0.420683586255    12.000000000000
         C            1.825117116145    -0.145510591400     0.052580286255    12.000000000000
         C           -0.279534883855     0.759502408600     0.067312286255    12.000000000000
         H            0.685532116145    -1.446424591400    -1.265163713745     1.007825032230
         H            1.168806116145    -2.234183591400     0.257392286255     1.007825032230
         H           -0.415623883855    -0.819748591400     1.500178286255     1.007825032230
         H            2.241295116145    -0.163973591400     1.065029286255     1.007825032230
         H            2.639011116145    -0.081437591400    -0.670195713745     1.007825032230
         H           -2.256782883855    -0.524230591400    -0.139357713745     1.007825032230

  Basis Set: AUG-CC-PVTZ
    Blend: AUG-CC-PVTZ
  Basis Set: (AUG-CC-PVTZ AUX)
    Blend: AUG-CC-PVTZ-JKFIT
	 Reference Energy          =    -379.6968966701569457 [Eh]
	 Singles Energy            =      -0.0000000000000000 [Eh]
	 Same-Spin Energy          =      -0.3688161826795548 [Eh]
	 Opposite-Spin Energy      =      -1.1376868393475710 [Eh]
	 Correlation Energy        =      -1.5065030220271258 [Eh]
	 Total Energy              =    -381.2033996921840640 [Eh]

	 ================> DF-SCS-MP2 Energies <==================
	-----------------------------------------------------------
	 SCS Same-Spin Scale       =       0.3333333333333333 [-]
	 SCS Opposite-Spin Scale   =       1.2000000000000000 [-]
	 SCS Same-Spin Energy      =      -0.1229387275598516 [Eh]
	 SCS Opposite-Spin Energy  =      -1.3652242072170850 [Eh]
	 SCS Correlation Energy    =      -1.4881629347769367 [Eh]
	 SCS Total Energy          =    -381.1850596049338833 [Eh]
	-----------------------------------------------------------

  Dipole Moment: [D]
     X:     2.8474      Y:    -2.2440      Z:     1.0452     Total:     3.7730

*** Psi4 exiting successfully. Buy a developer a beer!
