                               Psi4 1.3.2 release

  ==> Input File <==

--------------------------------------------------------------------------
#psi4
#
memory 32 gb

molecule  {
0 1
  O        1.0008990     1.1197090    -0.0959030
  O       -1.6389080    -1.2036290    -0.1576800
  O       -1.2230690     1.6022640    -0.0675910
  C        0.8143200    -1.2427870    -0.1986520
  C       -0.5065523    -0.7587748     0.3695239
  C        1.7925350    -0.0950530     0.0479070
  C       -0.3121170     0.8099600     0.0626390
  H        0.6529500    -1.3959670    -1.2698370
  H        1.1362240    -2.1837260     0.2527190
  H       -0.4482060    -0.7692910     1.4955050
  H        2.2087130    -0.1135160     1.0603560
  H        2.6064290    -0.0309800    -0.6748690
  H       -2.2893650    -0.4737730    -0.1440310
units angstrom
no_reorient  #important for SAPT in psi4, default
symmetry c1  #important for SAPT in psi4, default
}

set PROPERTIES_ORIGIN ["COM"]
properties('MP2/aug-cc-pvtz', properties = ['dipole'])
--------------------------------------------------------------------------

    Molecular point group: c1
  Charge       = 0
  Multiplicity = 1
  Basis Set: AUG-CC-PVTZ
    Blend: AUG-CC-PVTZ
  Basis Set: (AUG-CC-PVTZ AUX)
    Blend: AUG-CC-PVTZ-JKFIT

    Orbital Energies [Eh]
    ---------------------

    Doubly Occupied:

       1A    -20.618956     2A    -20.587435     3A    -20.557104
       4A    -11.388472     5A    -11.323019     6A    -11.316883
       7A    -11.256882     8A     -1.465852     9A     -1.420395
      10A     -1.370697    11A     -1.087049    12A     -0.977055
      13A     -0.852389    14A     -0.806570    15A     -0.731316
      16A     -0.726115    17A     -0.687670    18A     -0.660378
      19A     -0.629534    20A     -0.605462    21A     -0.595032
      22A     -0.554993    23A     -0.536645    24A     -0.524318
      25A     -0.469624    26A     -0.466580    27A     -0.425720

  @DF-RHF Final Energy:  -379.69188859679582

   => Energetics <=

    Nuclear Repulsion Energy =            316.9934747092925136
    One-Electron Energy =               -1148.0864385944485093
    Two-Electron Energy =                 451.4010752883601754
    Total Energy =                       -379.6918885967958204
  Basis Set: (AUG-CC-PVTZ AUX)
    Blend: AUG-CC-PVTZ-RI
    Molecular point group: c1

    Geometry (in Angstrom), charge = 0, multiplicity = 1:

       Center              X                  Y                   Z               Mass
    ------------   -----------------  -----------------  -----------------  -----------------
         O            1.044145884677     1.082075564978    -0.085762424339    15.994914619570
         O           -1.595661115323    -1.241262435022    -0.147539424339    15.994914619570
         O           -1.179822115323     1.564630564978    -0.057450424339    15.994914619570
         C            0.857566884677    -1.280420435022    -0.188511424339    12.000000000000
         C           -0.463305415323    -0.796408235022     0.379664475661    12.000000000000
         C            1.835781884677    -0.132686435022     0.058047575661    12.000000000000
         C           -0.268870115323     0.772326564978     0.072779575661    12.000000000000
         H            0.696196884677    -1.433600435022    -1.259696424339     1.007825032230
         H            1.179470884677    -2.221359435022     0.262859575661     1.007825032230
         H           -0.404959115323    -0.806924435022     1.505645575661     1.007825032230
         H            2.251959884677    -0.151149435022     1.070496575661     1.007825032230
         H            2.649675884677    -0.068613435022    -0.664728424339     1.007825032230
         H           -2.246118115323    -0.511406435022    -0.133890424339     1.007825032230

  Basis Set: AUG-CC-PVTZ
    Blend: AUG-CC-PVTZ
  Basis Set: (AUG-CC-PVTZ AUX)
    Blend: AUG-CC-PVTZ-JKFIT
	 Reference Energy          =    -379.6918885967958204 [Eh]
	 Singles Energy            =      -0.0000000000000000 [Eh]
	 Same-Spin Energy          =      -0.3684798051102565 [Eh]
	 Opposite-Spin Energy      =      -1.1352680415371412 [Eh]
	 Correlation Energy        =      -1.5037478466473977 [Eh]
	 Total Energy              =    -381.1956364434432203 [Eh]

	 ================> DF-SCS-MP2 Energies <==================
	-----------------------------------------------------------
	 SCS Same-Spin Scale       =       0.3333333333333333 [-]
	 SCS Opposite-Spin Scale   =       1.2000000000000000 [-]
	 SCS Same-Spin Energy      =      -0.1228266017034188 [Eh]
	 SCS Opposite-Spin Energy  =      -1.3623216498445694 [Eh]
	 SCS Correlation Energy    =      -1.4851482515479881 [Eh]
	 SCS Total Energy          =    -381.1770368483437892 [Eh]
	-----------------------------------------------------------

  Dipole Moment: [D]
     X:     2.4491      Y:    -2.3658      Z:     0.8395     Total:     3.5071

*** Psi4 exiting successfully. Buy a developer a beer!
