                               Psi4 1.3.2 release

  ==> Input File <==

--------------------------------------------------------------------------
#psi4
#
memory 32 gb

molecule  {
0 1
  O        1.0008990     1.1197090    -0.0959030
  O       -1.6389080    -1.2036290    -0.1576800
  O       -1.2230690     1.6022640    -0.0675910
  C        0.8143200    -1.2427870    -0.1986520
  C       -0.4577570    -0.6687040     0.3963640
  C        1.8345537    -0.0675617     0.0398307
  C       -0.3121170     0.8099600     0.0626390
  H        0.6529500    -1.3959670    -1.2698370
  H        1.1362240    -2.1837260     0.2527190
  H       -0.4482060    -0.7692910     1.4955050
  H        2.2087130    -0.1135160     1.0603560
  H        2.6064290    -0.0309800    -0.6748690
  H       -2.2893650    -0.4737730    -0.1440310
units angstrom
no_reorient  #important for SAPT in psi4, default
symmetry c1  #important for SAPT in psi4, default
}

set PROPERTIES_ORIGIN ["COM"]
properties('MP2/aug-cc-pvtz', properties = ['dipole'])
--------------------------------------------------------------------------

    Molecular point group: c1
  Charge       = 0
  Multiplicity = 1
  Basis Set: AUG-CC-PVTZ
    Blend: AUG-CC-PVTZ
  Basis Set: (AUG-CC-PVTZ AUX)
    Blend: AUG-CC-PVTZ-JKFIT

    Orbital Energies [Eh]
    ---------------------

    Doubly Occupied:

       1A    -20.619238     2A    -20.580674     3A    -20.559987
       4A    -11.392885     5A    -11.317794     6A    -11.316768
       7A    -11.260016     8A     -1.468074     9A     -1.387813
      10A     -1.370156    11A     -1.085541    12A     -0.990886
      13A     -0.862329    14A     -0.796138    15A     -0.733229
      16A     -0.717748    17A     -0.687544    18A     -0.662315
      19A     -0.621885    20A     -0.603640    21A     -0.584570
      22A     -0.559376    23A     -0.528737    24A     -0.520648
      25A     -0.476301    26A     -0.468115    27A     -0.446678

  @DF-RHF Final Energy:  -379.69882213278248

   => Energetics <=

    Nuclear Repulsion Energy =            316.7397810434880512
    One-Electron Energy =               -1147.6390339763356678
    Two-Electron Energy =                 451.2004308000651349
    Total Energy =                       -379.6988221327824817
  Basis Set: (AUG-CC-PVTZ AUX)
    Blend: AUG-CC-PVTZ-RI
    Molecular point group: c1

    Geometry (in Angstrom), charge = 0, multiplicity = 1:

       Center              X                  Y                   Z               Mass
    ------------   -----------------  -----------------  -----------------  -----------------
         O            1.033465203443     1.068249025949    -0.087969244505    15.994914619570
         O           -1.606341796557    -1.255088974051    -0.149746244505    15.994914619570
         O           -1.190502796557     1.550804025949    -0.059657244505    15.994914619570
         C            0.846886203443    -1.294246974051    -0.190718244505    12.000000000000
         C           -0.425190796557    -0.720163974051     0.404297755495    12.000000000000
         C            1.867119903443    -0.119021674051     0.047764455495    12.000000000000
         C           -0.279550796557     0.758500025949     0.070572755495    12.000000000000
         H            0.685516203443    -1.447426974051    -1.261903244505     1.007825032230
         H            1.168790203443    -2.235185974051     0.260652755495     1.007825032230
         H           -0.415639796557    -0.820750974051     1.503438755495     1.007825032230
         H            2.241279203443    -0.164975974051     1.068289755495     1.007825032230
         H            2.638995203443    -0.082439974051    -0.666935244505     1.007825032230
         H           -2.256798796557    -0.525232974051    -0.136097244505     1.007825032230

  Basis Set: AUG-CC-PVTZ
    Blend: AUG-CC-PVTZ
  Basis Set: (AUG-CC-PVTZ AUX)
    Blend: AUG-CC-PVTZ-JKFIT
	 Reference Energy          =    -379.6988221327824817 [Eh]
	 Singles Energy            =      -0.0000000000000000 [Eh]
	 Same-Spin Energy          =      -0.3680771856921479 [Eh]
	 Opposite-Spin Energy      =      -1.1361457952681178 [Eh]
	 Correlation Energy        =      -1.5042229809602656 [Eh]
	 Total Energy              =    -381.2030451137427463 [Eh]

	 ================> DF-SCS-MP2 Energies <==================
	-----------------------------------------------------------
	 SCS Same-Spin Scale       =       0.3333333333333333 [-]
	 SCS Opposite-Spin Scale   =       1.2000000000000000 [-]
	 SCS Same-Spin Energy      =      -0.1226923952307160 [Eh]
	 SCS Opposite-Spin Energy  =      -1.3633749543217413 [Eh]
	 SCS Correlation Energy    =      -1.4860673495524572 [Eh]
	 SCS Total Energy          =    -381.1848894823349383 [Eh]
	-----------------------------------------------------------

  Dipole Moment: [D]
     X:     2.7543      Y:    -2.2509      Z:     0.9719     Total:     3.6874

*** Psi4 exiting successfully. Buy a developer a beer!
