                               Psi4 1.3.2 release

  ==> Input File <==

--------------------------------------------------------------------------
#psi4
#
memory 32 gb

molecule  {
0 1
  O        1.0008990     1.1197090    -0.0959030
  O       -1.6252874    -1.2178620    -0.1724290
  O       -1.2230690     1.6022640    -0.0675910
  C        0.8143200    -1.2427870    -0.1986520
  C       -0.4577570    -0.6687040     0.3963640
  C        1.7925350    -0.0950530     0.0479070
  C       -0.3121170     0.8099600     0.0626390
  H        0.6529500    -1.3959670    -1.2698370
  H        1.1362240    -2.1837260     0.2527190
  H       -0.4482060    -0.7692910     1.4955050
  H        2.2087130    -0.1135160     1.0603560
  H        2.6064290    -0.0309800    -0.6748690
  H       -2.2893650    -0.4737730    -0.1440310
units angstrom
no_reorient  #important for SAPT in psi4, default
symmetry c1  #important for SAPT in psi4, default
}

set PROPERTIES_ORIGIN ["COM"]
properties('MP2/aug-cc-pvtz', properties = ['dipole'])
--------------------------------------------------------------------------

    Molecular point group: c1
  Charge       = 0
  Multiplicity = 1
  Basis Set: AUG-CC-PVTZ
    Blend: AUG-CC-PVTZ
  Basis Set: (AUG-CC-PVTZ AUX)
    Blend: AUG-CC-PVTZ-JKFIT

    Orbital Energies [Eh]
    ---------------------

    Doubly Occupied:

       1A    -20.620445     2A    -20.583382     3A    -20.560264
       4A    -11.392855     5A    -11.318247     6A    -11.316822
       7A    -11.258133     8A     -1.469757     9A     -1.386175
      10A     -1.370160    11A     -1.092560    12A     -0.987574
      13A     -0.862090    14A     -0.795354    15A     -0.734358
      16A     -0.711729    17A     -0.688172    18A     -0.658575
      19A     -0.622277    20A     -0.604209    21A     -0.581058
      22A     -0.560383    23A     -0.534955    24A     -0.523063
      25A     -0.475412    26A     -0.468414    27A     -0.446786

  @DF-RHF Final Energy:  -379.69892329690867

   => Energetics <=

    Nuclear Repulsion Energy =            317.3919090707391319
    One-Electron Energy =               -1148.9352469591196950
    Two-Electron Energy =                 451.8444145914719456
    Total Energy =                       -379.6989232969086743
  Basis Set: (AUG-CC-PVTZ AUX)
    Blend: AUG-CC-PVTZ-RI
    Molecular point group: c1

    Geometry (in Angstrom), charge = 0, multiplicity = 1:

       Center              X                  Y                   Z               Mass
    ------------   -----------------  -----------------  -----------------  -----------------
         O            1.036271822196     1.073713516419    -0.086606987443    15.994914619570
         O           -1.589914577804    -1.263857483581    -0.163132987443    15.994914619570
         O           -1.187696177804     1.556268516419    -0.058294987443    15.994914619570
         C            0.849692822196    -1.288782483581    -0.189355987443    12.000000000000
         C           -0.422384177804    -0.714699483581     0.405660012557    12.000000000000
         C            1.827907822196    -0.141048483581     0.057203012557    12.000000000000
         C           -0.276744177804     0.763964516419     0.071935012557    12.000000000000
         H            0.688322822196    -1.441962483581    -1.260540987443     1.007825032230
         H            1.171596822196    -2.229721483581     0.262015012557     1.007825032230
         H           -0.412833177804    -0.815286483581     1.504801012557     1.007825032230
         H            2.244085822196    -0.159511483581     1.069652012557     1.007825032230
         H            2.641801822196    -0.076975483581    -0.665572987443     1.007825032230
         H           -2.253992177804    -0.519768483581    -0.134734987443     1.007825032230

  Basis Set: AUG-CC-PVTZ
    Blend: AUG-CC-PVTZ
  Basis Set: (AUG-CC-PVTZ AUX)
    Blend: AUG-CC-PVTZ-JKFIT
	 Reference Energy          =    -379.6989232969086743 [Eh]
	 Singles Energy            =      -0.0000000000000000 [Eh]
	 Same-Spin Energy          =      -0.3687433595926040 [Eh]
	 Opposite-Spin Energy      =      -1.1372052912534905 [Eh]
	 Correlation Energy        =      -1.5059486508460944 [Eh]
	 Total Energy              =    -381.2048719477547820 [Eh]

	 ================> DF-SCS-MP2 Energies <==================
	-----------------------------------------------------------
	 SCS Same-Spin Scale       =       0.3333333333333333 [-]
	 SCS Opposite-Spin Scale   =       1.2000000000000000 [-]
	 SCS Same-Spin Energy      =      -0.1229144531975347 [Eh]
	 SCS Opposite-Spin Energy  =      -1.3646463495041885 [Eh]
	 SCS Correlation Energy    =      -1.4875608027017231 [Eh]
	 SCS Total Energy          =    -381.1864840996104249 [Eh]
	-----------------------------------------------------------

  Dipole Moment: [D]
     X:     2.6633      Y:    -2.2741      Z:     1.0068     Total:     3.6440

*** Psi4 exiting successfully. Buy a developer a beer!
