                               Psi4 1.3.2 release

  ==> Input File <==

--------------------------------------------------------------------------
#psi4
#
memory 32 gb

molecule  {
0 1
  O        1.0008990     1.1197090    -0.0959030
  O       -1.6389080    -1.2036290    -0.1576800
  O       -1.2230690     1.6022640    -0.0675910
  C        0.8143200    -1.2427870    -0.1986520
  C       -0.4577570    -0.6687040     0.3963640
  C        1.7925350    -0.0950530     0.0479070
  C       -0.3121170     0.8099600     0.0626390
  H        0.6430894    -1.3592042    -1.2729279
  H        1.1362240    -2.1837260     0.2527190
  H       -0.4482060    -0.7692910     1.4955050
  H        2.2087130    -0.1135160     1.0603560
  H        2.6064290    -0.0309800    -0.6748690
  H       -2.2893650    -0.4737730    -0.1440310
units angstrom
no_reorient  #important for SAPT in psi4, default
symmetry c1  #important for SAPT in psi4, default
}

set PROPERTIES_ORIGIN ["COM"]
properties('MP2/aug-cc-pvtz', properties = ['dipole'])
--------------------------------------------------------------------------

    Molecular point group: c1
  Charge       = 0
  Multiplicity = 1
  Basis Set: AUG-CC-PVTZ
    Blend: AUG-CC-PVTZ
  Basis Set: (AUG-CC-PVTZ AUX)
    Blend: AUG-CC-PVTZ-JKFIT

    Orbital Energies [Eh]
    ---------------------

    Doubly Occupied:

       1A    -20.620470     2A    -20.581069     3A    -20.560044
       4A    -11.392693     5A    -11.318402     6A    -11.317079
       7A    -11.259122     8A     -1.469831     9A     -1.388408
      10A     -1.370789    11A     -1.093973    12A     -0.988149
      13A     -0.861607    14A     -0.797541    15A     -0.735351
      16A     -0.714223    17A     -0.688257    18A     -0.658485
      19A     -0.621984    20A     -0.604668    21A     -0.582706
      22A     -0.561439    23A     -0.534479    24A     -0.524114
      25A     -0.474733    26A     -0.468410    27A     -0.446983

  @DF-RHF Final Energy:  -379.70059316489011

   => Energetics <=

    Nuclear Repulsion Energy =            317.5305755583135578
    One-Electron Energy =               -1149.1923164293802984
    Two-Electron Energy =                 451.9611477061766323
    Total Energy =                       -379.7005931648901083
  Basis Set: (AUG-CC-PVTZ AUX)
    Blend: AUG-CC-PVTZ-RI
    Molecular point group: c1

    Geometry (in Angstrom), charge = 0, multiplicity = 1:

       Center              X                  Y                   Z               Mass
    ------------   -----------------  -----------------  -----------------  -----------------
         O            1.038504443105     1.071119164807    -0.088888571725    15.994914619570
         O           -1.601302556895    -1.252218835193    -0.150665571725    15.994914619570
         O           -1.185463556895     1.553674164807    -0.060576571725    15.994914619570
         C            0.851925443105    -1.291376835193    -0.191637571725    12.000000000000
         C           -0.420151556895    -0.717293835193     0.403378428275    12.000000000000
         C            1.830140443105    -0.143642835193     0.054921428275    12.000000000000
         C           -0.274511556895     0.761370164807     0.069653428275    12.000000000000
         H            0.680694843105    -1.407794035193    -1.265913471725     1.007825032230
         H            1.173829443105    -2.232315835193     0.259733428275     1.007825032230
         H           -0.410600556895    -0.817880835193     1.502519428275     1.007825032230
         H            2.246318443105    -0.162105835193     1.067370428275     1.007825032230
         H            2.644034443105    -0.079569835193    -0.667854571725     1.007825032230
         H           -2.251759556895    -0.522362835193    -0.137016571725     1.007825032230

  Basis Set: AUG-CC-PVTZ
    Blend: AUG-CC-PVTZ
  Basis Set: (AUG-CC-PVTZ AUX)
    Blend: AUG-CC-PVTZ-JKFIT
	 Reference Energy          =    -379.7005931648901083 [Eh]
	 Singles Energy            =      -0.0000000000000000 [Eh]
	 Same-Spin Energy          =      -0.3684791542934082 [Eh]
	 Opposite-Spin Energy      =      -1.1365235624758037 [Eh]
	 Correlation Energy        =      -1.5050027167692119 [Eh]
	 Total Energy              =    -381.2055958816592920 [Eh]

	 ================> DF-SCS-MP2 Energies <==================
	-----------------------------------------------------------
	 SCS Same-Spin Scale       =       0.3333333333333333 [-]
	 SCS Opposite-Spin Scale   =       1.2000000000000000 [-]
	 SCS Same-Spin Energy      =      -0.1228263847644694 [Eh]
	 SCS Opposite-Spin Energy  =      -1.3638282749709643 [Eh]
	 SCS Correlation Energy    =      -1.4866546597354338 [Eh]
	 SCS Total Energy          =    -381.1872478246255582 [Eh]
	-----------------------------------------------------------

  Dipole Moment: [D]
     X:     2.6955      Y:    -2.2797      Z:     0.9841     Total:     3.6648

*** Psi4 exiting successfully. Buy a developer a beer!
