                               Psi4 1.3.2 release

  ==> Input File <==

--------------------------------------------------------------------------
#psi4
#
memory 32 gb

molecule  {
0 1
  O        1.0289758     0.9837337    -0.0652825
  O       -1.6389080    -1.2036290    -0.1576800
  O       -1.2230690     1.6022640    -0.0675910
  C        0.8143200    -1.2427870    -0.1986520
  C       -0.4577570    -0.6687040     0.3963640
  C        1.7925350    -0.0950530     0.0479070
  C       -0.3121170     0.8099600     0.0626390
  H        0.6529500    -1.3959670    -1.2698370
  H        1.1362240    -2.1837260     0.2527190
  H       -0.4482060    -0.7692910     1.4955050
  H        2.2087130    -0.1135160     1.0603560
  H        2.6064290    -0.0309800    -0.6748690
  H       -2.2893650    -0.4737730    -0.1440310
units angstrom
no_reorient  #important for SAPT in psi4, default
symmetry c1  #important for SAPT in psi4, default
}

set PROPERTIES_ORIGIN ["COM"]
properties('MP2/aug-cc-pvtz', properties = ['dipole'])
--------------------------------------------------------------------------

    Molecular point group: c1
  Charge       = 0
  Multiplicity = 1
  Basis Set: AUG-CC-PVTZ
    Blend: AUG-CC-PVTZ
  Basis Set: (AUG-CC-PVTZ AUX)
    Blend: AUG-CC-PVTZ-JKFIT

    Orbital Energies [Eh]
    ---------------------

    Doubly Occupied:

       1A    -20.619184     2A    -20.578616     3A    -20.571638
       4A    -11.402794     5A    -11.313231     6A    -11.305761
       7A    -11.251068     8A     -1.501058     9A     -1.402102
      10A     -1.376900    11A     -1.083144    12A     -1.012282
      13A     -0.864313    14A     -0.800072    15A     -0.747272
      16A     -0.725265    17A     -0.691209    18A     -0.672969
      19A     -0.639174    20A     -0.600601    21A     -0.585090
      22A     -0.559450    23A     -0.530125    24A     -0.518757
      25A     -0.472958    26A     -0.463877    27A     -0.445208

  @DF-RHF Final Energy:  -379.68897410463558

   => Energetics <=

    Nuclear Repulsion Energy =            320.4147209059381112
    One-Electron Energy =               -1154.7391530269537725
    Two-Electron Energy =                 454.6354580163800847
    Total Energy =                       -379.6889741046355766
  Basis Set: (AUG-CC-PVTZ AUX)
    Blend: AUG-CC-PVTZ-RI
    Molecular point group: c1

    Geometry (in Angstrom), charge = 0, multiplicity = 1:

       Center              X                  Y                   Z               Mass
    ------------   -----------------  -----------------  -----------------  -----------------
         O            1.062082407890     0.956823047972    -0.063098799805    15.994914619570
         O           -1.605801392110    -1.230539652028    -0.155496299805    15.994914619570
         O           -1.189962392110     1.575353347972    -0.065407299805    15.994914619570
         C            0.847426607890    -1.269697652028    -0.196468299805    12.000000000000
         C           -0.424650392110    -0.695614652028     0.398547700195    12.000000000000
         C            1.825641607890    -0.121963652028     0.050090700195    12.000000000000
         C           -0.279010392110     0.783049347972     0.064822700195    12.000000000000
         H            0.686056607890    -1.422877652028    -1.267653299805     1.007825032230
         H            1.169330607890    -2.210636652028     0.254902700195     1.007825032230
         H           -0.415099392110    -0.796201652028     1.497688700195     1.007825032230
         H            2.241819607890    -0.140426652028     1.062539700195     1.007825032230
         H            2.639535607890    -0.057890652028    -0.672685299805     1.007825032230
         H           -2.256258392110    -0.500683652028    -0.141847299805     1.007825032230

  Basis Set: AUG-CC-PVTZ
    Blend: AUG-CC-PVTZ
  Basis Set: (AUG-CC-PVTZ AUX)
    Blend: AUG-CC-PVTZ-JKFIT
	 Reference Energy          =    -379.6889741046355766 [Eh]
	 Singles Energy            =      -0.0000000000000000 [Eh]
	 Same-Spin Energy          =      -0.3685417750877868 [Eh]
	 Opposite-Spin Energy      =      -1.1343763534381541 [Eh]
	 Correlation Energy        =      -1.5029181285259410 [Eh]
	 Total Energy              =    -381.1918922331615249 [Eh]

	 ================> DF-SCS-MP2 Energies <==================
	-----------------------------------------------------------
	 SCS Same-Spin Scale       =       0.3333333333333333 [-]
	 SCS Opposite-Spin Scale   =       1.2000000000000000 [-]
	 SCS Same-Spin Energy      =      -0.1228472583625956 [Eh]
	 SCS Opposite-Spin Energy  =      -1.3612516241257848 [Eh]
	 SCS Correlation Energy    =      -1.4840988824883805 [Eh]
	 SCS Total Energy          =    -381.1730729871239305 [Eh]
	-----------------------------------------------------------

  Dipole Moment: [D]
     X:     2.4870      Y:    -1.8019      Z:     0.9035     Total:     3.2014

*** Psi4 exiting successfully. Buy a developer a beer!
