                               Psi4 1.4a3.dev225

  ==> Input File <==

--------------------------------------------------------------------------
#psi4
#
memory 32 gb

molecule  {
0 1
  O        1.0008990     1.1197090    -0.0959030
  O       -1.6389080    -1.2036290    -0.1576800
  O       -1.2230690     1.6022640    -0.0675910
  C        0.8143200    -1.2427870    -0.1986520
  C       -0.4577570    -0.6687040     0.3963640
  C        1.7925350    -0.0950530     0.0479070
  C       -0.2746078     0.7773363     0.0680013
  H        0.6529500    -1.3959670    -1.2698370
  H        1.1362240    -2.1837260     0.2527190
  H       -0.4482060    -0.7692910     1.4955050
  H        2.2087130    -0.1135160     1.0603560
  H        2.6064290    -0.0309800    -0.6748690
  H       -2.2893650    -0.4737730    -0.1440310
units angstrom
no_reorient  #important for SAPT in psi4, default
symmetry c1  #important for SAPT in psi4, default
}

set PROPERTIES_ORIGIN ["COM"]
properties('MP2/aug-cc-pvtz', properties = ['dipole'])
--------------------------------------------------------------------------

    Molecular point group: c1
  Charge       = 0
  Multiplicity = 1
  Basis Set: AUG-CC-PVTZ
    Blend: AUG-CC-PVTZ
  Basis Set: (AUG-CC-PVTZ AUX)
    Blend: AUG-CC-PVTZ-JKFIT

    Orbital Energies [Eh]
    ---------------------

    Doubly Occupied:

       1A    -20.631337     2A    -20.582558     3A    -20.550438
       4A    -11.395782     5A    -11.321884     6A    -11.320464
       7A    -11.262376     8A     -1.480461     9A     -1.388630
      10A     -1.342384    11A     -1.101963    12A     -0.996212
      13A     -0.869316    14A     -0.803185    15A     -0.740520
      16A     -0.714413    17A     -0.691388    18A     -0.661408
      19A     -0.611128    20A     -0.604996    21A     -0.586644
      22A     -0.559207    23A     -0.535893    24A     -0.520737
      25A     -0.476916    26A     -0.458380    27A     -0.448434

  @DF-RHF Final Energy:  -379.69211197096479

   => Energetics <=

    Nuclear Repulsion Energy =            317.6936329215343449
    One-Electron Energy =               -1149.4573851667555573
    Two-Electron Energy =                 452.0716402742564242
    Total Energy =                       -379.6921119709647883
  Basis Set: (AUG-CC-PVTZ AUX)
    Blend: AUG-CC-PVTZ-RI
    Molecular point group: c1

    Geometry (in Angstrom), charge = 0, multiplicity = 1:

       Center              X                  Y                   Z               Mass
    ------------   -----------------  -----------------  -----------------  -----------------
         O            1.033995568056     1.075319182009    -0.089549765161    15.994914619570
         O           -1.605811431944    -1.248018817991    -0.151326765161    15.994914619570
         O           -1.189972431944     1.557874182009    -0.061237765161    15.994914619570
         C            0.847416568056    -1.287176817991    -0.192298765161    12.000000000000
         C           -0.424660431944    -0.713093817991     0.402717234839    12.000000000000
         C            1.825631568056    -0.139442817991     0.054260234839    12.000000000000
         C           -0.241511231944     0.732946482009     0.074354534839    12.000000000000
         H            0.686046568056    -1.440356817991    -1.263483765161     1.007825032230
         H            1.169320568056    -2.228115817991     0.259072234839     1.007825032230
         H           -0.415109431944    -0.813680817991     1.501858234839     1.007825032230
         H            2.241809568056    -0.157905817991     1.066709234839     1.007825032230
         H            2.639525568056    -0.075369817991    -0.668515765161     1.007825032230
         H           -2.256268431944    -0.518162817991    -0.137677765161     1.007825032230

  Basis Set: AUG-CC-PVTZ
    Blend: AUG-CC-PVTZ
  Basis Set: (AUG-CC-PVTZ AUX)
    Blend: AUG-CC-PVTZ-JKFIT
	 Reference Energy          =    -379.6921119709647883 [Eh]
	 Singles Energy            =      -0.0000000000000000 [Eh]
	 Same-Spin Energy          =      -0.3696662668816768 [Eh]
	 Opposite-Spin Energy      =      -1.1387627523087116 [Eh]
	 Correlation Energy        =      -1.5084290191903884 [Eh]
	 Total Energy              =    -381.2005409901551616 [Eh]

	 ================> DF-SCS-MP2 Energies <==================
	-----------------------------------------------------------
	 SCS Same-Spin Scale       =       0.3333333333333333 [-]
	 SCS Opposite-Spin Scale   =       1.2000000000000000 [-]
	 SCS Same-Spin Energy      =      -0.1232220889605589 [Eh]
	 SCS Opposite-Spin Energy  =      -1.3665153027704540 [Eh]
	 SCS Correlation Energy    =      -1.4897373917310128 [Eh]
	 SCS Total Energy          =    -381.1818493626958002 [Eh]
	-----------------------------------------------------------

  Dipole Moment: [D]
     X:     3.0413      Y:    -2.5017      Z:     0.9984     Total:     4.0626

*** Psi4 exiting successfully. Buy a developer a beer!
