                               Psi4 1.3.2 release

  ==> Input File <==

--------------------------------------------------------------------------
#psi4
#
memory 32 gb

molecule  {
0 1
  O        1.0008990     1.1197090    -0.0959030
  O       -1.6389080    -1.2036290    -0.1576800
  O       -1.1649873     1.6618769    -0.0836103
  C        0.8143200    -1.2427870    -0.1986520
  C       -0.4577570    -0.6687040     0.3963640
  C        1.7925350    -0.0950530     0.0479070
  C       -0.3121170     0.8099600     0.0626390
  H        0.6529500    -1.3959670    -1.2698370
  H        1.1362240    -2.1837260     0.2527190
  H       -0.4482060    -0.7692910     1.4955050
  H        2.2087130    -0.1135160     1.0603560
  H        2.6064290    -0.0309800    -0.6748690
  H       -2.2893650    -0.4737730    -0.1440310
units angstrom
no_reorient  #important for SAPT in psi4, default
symmetry c1  #important for SAPT in psi4, default
}

set PROPERTIES_ORIGIN ["COM"]
properties('MP2/aug-cc-pvtz', properties = ['dipole'])
--------------------------------------------------------------------------

    Molecular point group: c1
  Charge       = 0
  Multiplicity = 1
  Basis Set: AUG-CC-PVTZ
    Blend: AUG-CC-PVTZ
  Basis Set: (AUG-CC-PVTZ AUX)
    Blend: AUG-CC-PVTZ-JKFIT

    Orbital Energies [Eh]
    ---------------------

    Doubly Occupied:

       1A    -20.616041     2A    -20.584322     3A    -20.557946
       4A    -11.391352     5A    -11.322741     6A    -11.315494
       7A    -11.260054     8A     -1.469468     9A     -1.389078
      10A     -1.368262    11A     -1.094535    12A     -0.988080
      13A     -0.862897    14A     -0.798357    15A     -0.734279
      16A     -0.713880    17A     -0.688056    18A     -0.657818
      19A     -0.621386    20A     -0.604115    21A     -0.583166
      22A     -0.561748    23A     -0.535007    24A     -0.523155
      25A     -0.477141    26A     -0.464816    27A     -0.448168

  @DF-RHF Final Energy:  -379.69970042288566

   => Energetics <=

    Nuclear Repulsion Energy =            317.2364541657402128
    One-Electron Energy =               -1148.6095860649475071
    Two-Electron Energy =                 451.6734314763215821
    Total Energy =                       -379.6997004228856554
  Basis Set: (AUG-CC-PVTZ AUX)
    Blend: AUG-CC-PVTZ-RI
    Molecular point group: c1

    Geometry (in Angstrom), charge = 0, multiplicity = 1:

       Center              X                  Y                   Z               Mass
    ------------   -----------------  -----------------  -----------------  -----------------
         O            1.029301914414     1.062137124627    -0.086407849908    15.994914619570
         O           -1.610505085586    -1.261200875373    -0.148184849908    15.994914619570
         O           -1.136584385586     1.604305024627    -0.074115149908    15.994914619570
         C            0.842722914414    -1.300358875373    -0.189156849908    12.000000000000
         C           -0.429354085586    -0.726275875373     0.405859150092    12.000000000000
         C            1.820937914414    -0.152624875373     0.057402150092    12.000000000000
         C           -0.283714085586     0.752388124627     0.072134150092    12.000000000000
         H            0.681352914414    -1.453538875373    -1.260341849908     1.007825032230
         H            1.164626914414    -2.241297875373     0.262214150092     1.007825032230
         H           -0.419803085586    -0.826862875373     1.505000150092     1.007825032230
         H            2.237115914414    -0.171087875373     1.069851150092     1.007825032230
         H            2.634831914414    -0.088551875373    -0.665373849908     1.007825032230
         H           -2.260962085586    -0.531344875373    -0.134535849908     1.007825032230

  Basis Set: AUG-CC-PVTZ
    Blend: AUG-CC-PVTZ
  Basis Set: (AUG-CC-PVTZ AUX)
    Blend: AUG-CC-PVTZ-JKFIT
	 Reference Energy          =    -379.6997004228856554 [Eh]
	 Singles Energy            =      -0.0000000000000000 [Eh]
	 Same-Spin Energy          =      -0.3683963409978880 [Eh]
	 Opposite-Spin Energy      =      -1.1365670149307148 [Eh]
	 Correlation Energy        =      -1.5049633559286026 [Eh]
	 Total Energy              =    -381.2046637788142789 [Eh]

	 ================> DF-SCS-MP2 Energies <==================
	-----------------------------------------------------------
	 SCS Same-Spin Scale       =       0.3333333333333333 [-]
	 SCS Opposite-Spin Scale   =       1.2000000000000000 [-]
	 SCS Same-Spin Energy      =      -0.1227987803326293 [Eh]
	 SCS Opposite-Spin Energy  =      -1.3638804179168578 [Eh]
	 SCS Correlation Energy    =      -1.4866791982494871 [Eh]
	 SCS Total Energy          =    -381.1863796211351314 [Eh]
	-----------------------------------------------------------

  Dipole Moment: [D]
     X:     2.5593      Y:    -2.4555      Z:     1.0145     Total:     3.6890

*** Psi4 exiting successfully. Buy a developer a beer!
