                               Psi4 1.3.2 release

  ==> Input File <==

--------------------------------------------------------------------------
#psi4
#
memory 32 gb

molecule  {
0 1
  O        1.0008990     1.1197090    -0.0959030
  O       -1.6389080    -1.2036290    -0.1576800
  O       -1.2230690     1.6022640    -0.0675910
  C        0.7826543    -1.3380691    -0.1649962
  C       -0.4577570    -0.6687040     0.3963640
  C        1.7925350    -0.0950530     0.0479070
  C       -0.3121170     0.8099600     0.0626390
  H        0.6529500    -1.3959670    -1.2698370
  H        1.1362240    -2.1837260     0.2527190
  H       -0.4482060    -0.7692910     1.4955050
  H        2.2087130    -0.1135160     1.0603560
  H        2.6064290    -0.0309800    -0.6748690
  H       -2.2893650    -0.4737730    -0.1440310
units angstrom
no_reorient  #important for SAPT in psi4, default
symmetry c1  #important for SAPT in psi4, default
}

set PROPERTIES_ORIGIN ["COM"]
properties('MP2/aug-cc-pvtz', properties = ['dipole'])
--------------------------------------------------------------------------

    Molecular point group: c1
  Charge       = 0
  Multiplicity = 1
  Basis Set: AUG-CC-PVTZ
    Blend: AUG-CC-PVTZ
  Basis Set: (AUG-CC-PVTZ AUX)
    Blend: AUG-CC-PVTZ-JKFIT

    Orbital Energies [Eh]
    ---------------------

    Doubly Occupied:

       1A    -20.622304     2A    -20.579480     3A    -20.561739
       4A    -11.395054     5A    -11.319695     6A    -11.319658
       7A    -11.259120     8A     -1.469345     9A     -1.388156
      10A     -1.371063    11A     -1.085763    12A     -0.982533
      13A     -0.870910    14A     -0.795974    15A     -0.732933
      16A     -0.714188    17A     -0.692809    18A     -0.656490
      19A     -0.621232    20A     -0.602653    21A     -0.595263
      22A     -0.564400    23A     -0.526662    24A     -0.514360
      25A     -0.474048    26A     -0.465083    27A     -0.450063

  @DF-RHF Final Energy:  -379.68900969051873

   => Energetics <=

    Nuclear Repulsion Energy =            316.2764809742621992
    One-Electron Energy =               -1146.6690280998063827
    Two-Electron Energy =                 450.7035374350254529
    Total Energy =                       -379.6890096905187306
  Basis Set: (AUG-CC-PVTZ AUX)
    Blend: AUG-CC-PVTZ-RI
    Molecular point group: c1

    Geometry (in Angstrom), charge = 0, multiplicity = 1:

       Center              X                  Y                   Z               Mass
    ------------   -----------------  -----------------  -----------------  -----------------
         O            1.042131263614     1.082688468650    -0.092877378244    15.994914619570
         O           -1.597675736386    -1.240649531350    -0.154654378244    15.994914619570
         O           -1.181836736386     1.565243468650    -0.064565378244    15.994914619570
         C            0.823886563614    -1.375089631350    -0.161970578244    12.000000000000
         C           -0.416524736386    -0.705724531350     0.399389621756    12.000000000000
         C            1.833767263614    -0.132073531350     0.050932621756    12.000000000000
         C           -0.270884736386     0.772939468650     0.065664621756    12.000000000000
         H            0.694182263614    -1.432987531350    -1.266811378244     1.007825032230
         H            1.177456263614    -2.220746531350     0.255744621756     1.007825032230
         H           -0.406973736386    -0.806311531350     1.498530621756     1.007825032230
         H            2.249945263614    -0.150536531350     1.063381621756     1.007825032230
         H            2.647661263614    -0.068000531350    -0.671843378244     1.007825032230
         H           -2.248132736386    -0.510793531350    -0.141005378244     1.007825032230

  Basis Set: AUG-CC-PVTZ
    Blend: AUG-CC-PVTZ
  Basis Set: (AUG-CC-PVTZ AUX)
    Blend: AUG-CC-PVTZ-JKFIT
	 Reference Energy          =    -379.6890096905187306 [Eh]
	 Singles Energy            =      -0.0000000000000000 [Eh]
	 Same-Spin Energy          =      -0.3684129674617041 [Eh]
	 Opposite-Spin Energy      =      -1.1372031939961535 [Eh]
	 Correlation Energy        =      -1.5056161614578576 [Eh]
	 Total Energy              =    -381.1946258519765820 [Eh]

	 ================> DF-SCS-MP2 Energies <==================
	-----------------------------------------------------------
	 SCS Same-Spin Scale       =       0.3333333333333333 [-]
	 SCS Opposite-Spin Scale   =       1.2000000000000000 [-]
	 SCS Same-Spin Energy      =      -0.1228043224872347 [Eh]
	 SCS Opposite-Spin Energy  =      -1.3646438327953843 [Eh]
	 SCS Correlation Energy    =      -1.4874481552826189 [Eh]
	 SCS Total Energy          =    -381.1764578458013375 [Eh]
	-----------------------------------------------------------

  Dipole Moment: [D]
     X:     2.6970      Y:    -2.2683      Z:     0.9984     Total:     3.6628

*** Psi4 exiting successfully. Buy a developer a beer!
