                               Psi4 1.3.2 release

  ==> Input File <==

--------------------------------------------------------------------------
#psi4
#
memory 32 gb

molecule  {
0 1
  O        1.0008990     1.1197090    -0.0959030
  O       -1.6389080    -1.2036290    -0.1576800
  O       -1.2230690     1.6022640    -0.0675910
  C        0.8143200    -1.2427870    -0.1986520
  C       -0.4577570    -0.6687040     0.3963640
  C        1.7925350    -0.0950530     0.0479070
  C       -0.4087802     0.7871565     0.0743107
  H        0.6529500    -1.3959670    -1.2698370
  H        1.1362240    -2.1837260     0.2527190
  H       -0.4482060    -0.7692910     1.4955050
  H        2.2087130    -0.1135160     1.0603560
  H        2.6064290    -0.0309800    -0.6748690
  H       -2.2893650    -0.4737730    -0.1440310
units angstrom
no_reorient  #important for SAPT in psi4, default
symmetry c1  #important for SAPT in psi4, default
}

set PROPERTIES_ORIGIN ["COM"]
properties('MP2/aug-cc-pvtz', properties = ['dipole'])
--------------------------------------------------------------------------

    Molecular point group: c1
  Charge       = 0
  Multiplicity = 1
  Basis Set: AUG-CC-PVTZ
    Blend: AUG-CC-PVTZ
  Basis Set: (AUG-CC-PVTZ AUX)
    Blend: AUG-CC-PVTZ-JKFIT

    Orbital Energies [Eh]
    ---------------------

    Doubly Occupied:

       1A    -20.594944     2A    -20.584576     3A    -20.579205
       4A    -11.392989     5A    -11.321287     6A    -11.304801
       7A    -11.256771     8A     -1.472175     9A     -1.389180
      10A     -1.374963    11A     -1.087663    12A     -0.982579
      13A     -0.857985    14A     -0.792498    15A     -0.727114
      16A     -0.719034    17A     -0.688562    18A     -0.649456
      19A     -0.630128    20A     -0.608792    21A     -0.576082
      22A     -0.565347    23A     -0.537582    24A     -0.522624
      25A     -0.478370    26A     -0.463632    27A     -0.450193

  @DF-RHF Final Energy:  -379.69102779953585

   => Energetics <=

    Nuclear Repulsion Energy =            317.3359301521911107
    One-Electron Energy =               -1148.8368451321118755
    Two-Electron Energy =                 451.8098871803848624
    Total Energy =                       -379.6910277995358456
  Basis Set: (AUG-CC-PVTZ AUX)
    Blend: AUG-CC-PVTZ-RI
    Molecular point group: c1

    Geometry (in Angstrom), charge = 0, multiplicity = 1:

       Center              X                  Y                   Z               Mass
    ------------   -----------------  -----------------  -----------------  -----------------
         O            1.049775653009     1.074164223237    -0.090291816939    15.994914619570
         O           -1.590031346991    -1.249173776763    -0.152068816939    15.994914619570
         O           -1.174192346991     1.556719223237    -0.061979816939    15.994914619570
         C            0.863196653009    -1.288331776763    -0.193040816939    12.000000000000
         C           -0.408880346991    -0.714248776763     0.401975183061    12.000000000000
         C            1.841411653009    -0.140597776763     0.053518183061    12.000000000000
         C           -0.359903546991     0.741611723237     0.079921883061    12.000000000000
         H            0.701826653009    -1.441511776763    -1.264225816939     1.007825032230
         H            1.185100653009    -2.229270776763     0.258330183061     1.007825032230
         H           -0.399329346991    -0.814835776763     1.501116183061     1.007825032230
         H            2.257589653009    -0.159060776763     1.065967183061     1.007825032230
         H            2.655305653009    -0.076524776763    -0.669257816939     1.007825032230
         H           -2.240488346991    -0.519317776763    -0.138419816939     1.007825032230

  Basis Set: AUG-CC-PVTZ
    Blend: AUG-CC-PVTZ
  Basis Set: (AUG-CC-PVTZ AUX)
    Blend: AUG-CC-PVTZ-JKFIT
	 Reference Energy          =    -379.6910277995358456 [Eh]
	 Singles Energy            =      -0.0000000000000000 [Eh]
	 Same-Spin Energy          =      -0.3684375186762355 [Eh]
	 Opposite-Spin Energy      =      -1.1369805137788318 [Eh]
	 Correlation Energy        =      -1.5054180324550672 [Eh]
	 Total Energy              =    -381.1964458319908999 [Eh]

	 ================> DF-SCS-MP2 Energies <==================
	-----------------------------------------------------------
	 SCS Same-Spin Scale       =       0.3333333333333333 [-]
	 SCS Opposite-Spin Scale   =       1.2000000000000000 [-]
	 SCS Same-Spin Energy      =      -0.1228125062254118 [Eh]
	 SCS Opposite-Spin Energy  =      -1.3643766165345981 [Eh]
	 SCS Correlation Energy    =      -1.4871891227600098 [Eh]
	 SCS Total Energy          =    -381.1782169222958601 [Eh]
	-----------------------------------------------------------

  Dipole Moment: [D]
     X:     1.8235      Y:    -2.2236      Z:     1.0321     Total:     3.0553

*** Psi4 exiting successfully. Buy a developer a beer!
