                               Psi4 1.3.2 release

  ==> Input File <==

--------------------------------------------------------------------------
#psi4
#
memory 32 gb

molecule  {
0 1
  O        1.0008990     1.1197090    -0.0959030
  O       -1.6389080    -1.2036290    -0.1576800
  O       -1.2230690     1.6022640    -0.0675910
  C        0.8143200    -1.2427870    -0.1986520
  C       -0.4577570    -0.6687040     0.3963640
  C        1.8136681    -0.0814903     0.0438901
  C       -0.3121170     0.8099600     0.0626390
  H        0.6529500    -1.3959670    -1.2698370
  H        1.1362240    -2.1837260     0.2527190
  H       -0.4482060    -0.7692910     1.4955050
  H        2.2087130    -0.1135160     1.0603560
  H        2.6064290    -0.0309800    -0.6748690
  H       -2.2893650    -0.4737730    -0.1440310
units angstrom
no_reorient  #important for SAPT in psi4, default
symmetry c1  #important for SAPT in psi4, default
}

set PROPERTIES_ORIGIN ["COM"]
properties('MP2/aug-cc-pvtz', properties = ['dipole'])
--------------------------------------------------------------------------

    Molecular point group: c1
  Charge       = 0
  Multiplicity = 1
  Basis Set: AUG-CC-PVTZ
    Blend: AUG-CC-PVTZ
  Basis Set: (AUG-CC-PVTZ AUX)
    Blend: AUG-CC-PVTZ-JKFIT

    Orbital Energies [Eh]
    ---------------------

    Doubly Occupied:

       1A    -20.619796     2A    -20.580848     3A    -20.559975
       4A    -11.392750     5A    -11.318167     6A    -11.316920
       7A    -11.259479     8A     -1.468891     9A     -1.388078
      10A     -1.370429    11A     -1.089408    12A     -0.989487
      13A     -0.862273    14A     -0.796766    15A     -0.733858
      16A     -0.715839    17A     -0.688103    18A     -0.660320
      19A     -0.622099    20A     -0.604102    21A     -0.583511
      22A     -0.559692    23A     -0.530895    24A     -0.523543
      25A     -0.475613    26A     -0.468525    27A     -0.446780

  @DF-RHF Final Energy:  -379.70053770901859

   => Energetics <=

    Nuclear Repulsion Energy =            317.0980222990068569
    One-Electron Energy =               -1148.3448253019898857
    Two-Electron Energy =                 451.5462652939644386
    Total Energy =                       -379.7005377090185902
  Basis Set: (AUG-CC-PVTZ AUX)
    Blend: AUG-CC-PVTZ-RI
    Molecular point group: c1

    Geometry (in Angstrom), charge = 0, multiplicity = 1:

       Center              X                  Y                   Z               Mass
    ------------   -----------------  -----------------  -----------------  -----------------
         O            1.035921569598     1.069887175757    -0.088446672626    15.994914619570
         O           -1.603885430402    -1.253450824243    -0.150223672626    15.994914619570
         O           -1.188046430402     1.552442175757    -0.060134672626    15.994914619570
         C            0.849342569598    -1.292608824243    -0.191195672626    12.000000000000
         C           -0.422734430402    -0.718525824243     0.403820327374    12.000000000000
         C            1.848690669598    -0.131312124243     0.051346427374    12.000000000000
         C           -0.277094430402     0.760138175757     0.070095327374    12.000000000000
         H            0.687972569598    -1.445788824243    -1.262380672626     1.007825032230
         H            1.171246569598    -2.233547824243     0.260175327374     1.007825032230
         H           -0.413183430402    -0.819112824243     1.502961327374     1.007825032230
         H            2.243735569598    -0.163337824243     1.067812327374     1.007825032230
         H            2.641451569598    -0.080801824243    -0.667412672626     1.007825032230
         H           -2.254342430402    -0.523594824243    -0.136574672626     1.007825032230

  Basis Set: AUG-CC-PVTZ
    Blend: AUG-CC-PVTZ
  Basis Set: (AUG-CC-PVTZ AUX)
    Blend: AUG-CC-PVTZ-JKFIT
	 Reference Energy          =    -379.7005377090185902 [Eh]
	 Singles Energy            =      -0.0000000000000000 [Eh]
	 Same-Spin Energy          =      -0.3682260442019969 [Eh]
	 Opposite-Spin Energy      =      -1.1362440854044851 [Eh]
	 Correlation Energy        =      -1.5044701296064820 [Eh]
	 Total Energy              =    -381.2050078386250789 [Eh]

	 ================> DF-SCS-MP2 Energies <==================
	-----------------------------------------------------------
	 SCS Same-Spin Scale       =       0.3333333333333333 [-]
	 SCS Opposite-Spin Scale   =       1.2000000000000000 [-]
	 SCS Same-Spin Energy      =      -0.1227420147339990 [Eh]
	 SCS Opposite-Spin Energy  =      -1.3634929024853821 [Eh]
	 SCS Correlation Energy    =      -1.4862349172193812 [Eh]
	 SCS Total Energy          =    -381.1867726262379961 [Eh]
	-----------------------------------------------------------

  Dipole Moment: [D]
     X:     2.7270      Y:    -2.2704      Z:     0.9760     Total:     3.6802

*** Psi4 exiting successfully. Buy a developer a beer!
