                               Psi4 1.3.2 release

  ==> Input File <==

--------------------------------------------------------------------------
#psi4
#
memory 32 gb

molecule  {
0 1
  O        1.0008990     1.1197090    -0.0959030
  O       -1.6389080    -1.2036290    -0.1576800
  O       -1.2230690     1.6022640    -0.0675910
  C        0.8143200    -1.2427870    -0.1986520
  C       -0.5003708    -0.6724942     0.2994939
  C        1.7925350    -0.0950530     0.0479070
  C       -0.3121170     0.8099600     0.0626390
  H        0.6529500    -1.3959670    -1.2698370
  H        1.1362240    -2.1837260     0.2527190
  H       -0.4482060    -0.7692910     1.4955050
  H        2.2087130    -0.1135160     1.0603560
  H        2.6064290    -0.0309800    -0.6748690
  H       -2.2893650    -0.4737730    -0.1440310
units angstrom
no_reorient  #important for SAPT in psi4, default
symmetry c1  #important for SAPT in psi4, default
}

set PROPERTIES_ORIGIN ["COM"]
properties('MP2/aug-cc-pvtz', properties = ['dipole'])
--------------------------------------------------------------------------

    Molecular point group: c1
  Charge       = 0
  Multiplicity = 1
  Basis Set: AUG-CC-PVTZ
    Blend: AUG-CC-PVTZ
  Basis Set: (AUG-CC-PVTZ AUX)
    Blend: AUG-CC-PVTZ-JKFIT

    Orbital Energies [Eh]
    ---------------------

    Doubly Occupied:

       1A    -20.620740     2A    -20.589654     3A    -20.558170
       4A    -11.391370     5A    -11.323635     6A    -11.317127
       7A    -11.257856     8A     -1.470667     9A     -1.419052
      10A     -1.373343    11A     -1.091229    12A     -0.986610
      13A     -0.861109    14A     -0.806697    15A     -0.734850
      16A     -0.720135    17A     -0.690921    18A     -0.653927
      19A     -0.630962    20A     -0.602217    21A     -0.597067
      22A     -0.564593    23A     -0.536655    24A     -0.526684
      25A     -0.468365    26A     -0.458765    27A     -0.438733

  @DF-RHF Final Energy:  -379.69144524647550

   => Energetics <=

    Nuclear Repulsion Energy =            318.3095338318583458
    One-Electron Energy =               -1150.6196933146577521
    Two-Electron Energy =                 452.6187142363239673
    Total Energy =                       -379.6914452464754959
  Basis Set: (AUG-CC-PVTZ AUX)
    Blend: AUG-CC-PVTZ-RI
    Molecular point group: c1

    Geometry (in Angstrom), charge = 0, multiplicity = 1:

       Center              X                  Y                   Z               Mass
    ------------   -----------------  -----------------  -----------------  -----------------
         O            1.043418875284     1.071928059248    -0.077526160031    15.994914619570
         O           -1.596388124716    -1.251409940752    -0.139303160031    15.994914619570
         O           -1.180549124716     1.554483059248    -0.049214160031    15.994914619570
         C            0.856839875284    -1.290567940752    -0.180275160031    12.000000000000
         C           -0.457850924716    -0.720275140752     0.317870739969    12.000000000000
         C            1.835054875284    -0.142833940752     0.066283839969    12.000000000000
         C           -0.269597124716     0.762179059248     0.081015839969    12.000000000000
         H            0.695469875284    -1.443747940752    -1.251460160031     1.007825032230
         H            1.178743875284    -2.231506940752     0.271095839969     1.007825032230
         H           -0.405686124716    -0.817071940752     1.513881839969     1.007825032230
         H            2.251232875284    -0.161296940752     1.078732839969     1.007825032230
         H            2.648948875284    -0.078760940752    -0.656492160031     1.007825032230
         H           -2.246845124716    -0.521553940752    -0.125654160031     1.007825032230

  Basis Set: AUG-CC-PVTZ
    Blend: AUG-CC-PVTZ
  Basis Set: (AUG-CC-PVTZ AUX)
    Blend: AUG-CC-PVTZ-JKFIT
	 Reference Energy          =    -379.6914452464754959 [Eh]
	 Singles Energy            =      -0.0000000000000000 [Eh]
	 Same-Spin Energy          =      -0.3686891746653611 [Eh]
	 Opposite-Spin Energy      =      -1.1358267936531385 [Eh]
	 Correlation Energy        =      -1.5045159683184997 [Eh]
	 Total Energy              =    -381.1959612147940106 [Eh]

	 ================> DF-SCS-MP2 Energies <==================
	-----------------------------------------------------------
	 SCS Same-Spin Scale       =       0.3333333333333333 [-]
	 SCS Opposite-Spin Scale   =       1.2000000000000000 [-]
	 SCS Same-Spin Energy      =      -0.1228963915551203 [Eh]
	 SCS Opposite-Spin Energy  =      -1.3629921523837663 [Eh]
	 SCS Correlation Energy    =      -1.4858885439388867 [Eh]
	 SCS Total Energy          =    -381.1773337904143659 [Eh]
	-----------------------------------------------------------

  Dipole Moment: [D]
     X:     2.4741      Y:    -2.3925      Z:     0.7384     Total:     3.5200

*** Psi4 exiting successfully. Buy a developer a beer!
