                               Psi4 1.4a3.dev225

  ==> Input File <==

--------------------------------------------------------------------------
#psi4
#
memory 32 gb

molecule  {
0 1
  O        1.0008990     1.1197090    -0.0959030
  O       -1.6389080    -1.2036290    -0.1576800
  O       -1.2230690     1.6022640    -0.0675910
  C        0.8143200    -1.2427870    -0.1986520
  C       -0.4577570    -0.6687040     0.3963640
  C        1.7925350    -0.0950530     0.0479070
  C       -0.3604486     0.7985583     0.0684749
  H        0.6529500    -1.3959670    -1.2698370
  H        1.1362240    -2.1837260     0.2527190
  H       -0.4482060    -0.7692910     1.4955050
  H        2.2087130    -0.1135160     1.0603560
  H        2.6064290    -0.0309800    -0.6748690
  H       -2.2893650    -0.4737730    -0.1440310
units angstrom
no_reorient  #important for SAPT in psi4, default
symmetry c1  #important for SAPT in psi4, default
}

set PROPERTIES_ORIGIN ["COM"]
properties('MP2/aug-cc-pvtz', properties = ['dipole'])
--------------------------------------------------------------------------

    Molecular point group: c1
  Charge       = 0
  Multiplicity = 1
  Basis Set: AUG-CC-PVTZ
    Blend: AUG-CC-PVTZ
  Basis Set: (AUG-CC-PVTZ AUX)
    Blend: AUG-CC-PVTZ-JKFIT

    Orbital Energies [Eh]
    ---------------------

    Doubly Occupied:

       1A    -20.607934     2A    -20.582703     3A    -20.569678
       4A    -11.392723     5A    -11.319671     6A    -11.311018
       7A    -11.257798     8A     -1.463616     9A     -1.387268
      10A     -1.380585    11A     -1.090314    12A     -0.984977
      13A     -0.860040    14A     -0.794376    15A     -0.729801
      16A     -0.715537    17A     -0.688420    18A     -0.653836
      19A     -0.627093    20A     -0.605034    21A     -0.579179
      22A     -0.562578    23A     -0.535489    24A     -0.524504
      25A     -0.476692    26A     -0.468110    27A     -0.450076

  @DF-RHF Final Energy:  -379.69850943597430

   => Energetics <=

    Nuclear Repulsion Energy =            317.3832514530176354
    One-Electron Energy =               -1148.9254261797530035
    Two-Electron Energy =                 451.8436652907610096
    Total Energy =                       -379.6985094359743016
  Basis Set: (AUG-CC-PVTZ AUX)
    Blend: AUG-CC-PVTZ-RI
    Molecular point group: c1

    Geometry (in Angstrom), charge = 0, multiplicity = 1:

       Center              X                  Y                   Z               Mass
    ------------   -----------------  -----------------  -----------------  -----------------
         O            1.044091348682     1.072823251677    -0.089605465500    15.994914619570
         O           -1.595715651318    -1.250514748323    -0.151382465500    15.994914619570
         O           -1.179876651318     1.555378251677    -0.061293465500    15.994914619570
         C            0.857512348682    -1.289672748323    -0.192354465500    12.000000000000
         C           -0.414564651318    -0.715589748323     0.402661534500    12.000000000000
         C            1.835727348682    -0.141938748323     0.054204534500    12.000000000000
         C           -0.317256251318     0.751672551677     0.074772434500    12.000000000000
         H            0.696142348682    -1.442852748323    -1.263539465500     1.007825032230
         H            1.179416348682    -2.230611748323     0.259016534500     1.007825032230
         H           -0.405013651318    -0.816176748323     1.501802534500     1.007825032230
         H            2.251905348682    -0.160401748323     1.066653534500     1.007825032230
         H            2.649621348682    -0.077865748323    -0.668571465500     1.007825032230
         H           -2.246172651318    -0.520658748323    -0.137733465500     1.007825032230

  Basis Set: AUG-CC-PVTZ
    Blend: AUG-CC-PVTZ
  Basis Set: (AUG-CC-PVTZ AUX)
    Blend: AUG-CC-PVTZ-JKFIT
	 Reference Energy          =    -379.6985094359743016 [Eh]
	 Singles Energy            =      -0.0000000000000000 [Eh]
	 Same-Spin Energy          =      -0.3683583489902633 [Eh]
	 Opposite-Spin Energy      =      -1.1365812703546578 [Eh]
	 Correlation Energy        =      -1.5049396193449212 [Eh]
	 Total Energy              =    -381.2034490553191972 [Eh]

	 ================> DF-SCS-MP2 Energies <==================
	-----------------------------------------------------------
	 SCS Same-Spin Scale       =       0.3333333333333333 [-]
	 SCS Opposite-Spin Scale   =       1.2000000000000000 [-]
	 SCS Same-Spin Energy      =      -0.1227861163300878 [Eh]
	 SCS Opposite-Spin Energy  =      -1.3638975244255893 [Eh]
	 SCS Correlation Energy    =      -1.4866836407556772 [Eh]
	 SCS Total Energy          =    -381.1851930767300018 [Eh]
	-----------------------------------------------------------

  Dipole Moment: [D]
     X:     2.2647      Y:    -2.2525      Z:     1.0056     Total:     3.3487

*** Psi4 exiting successfully. Buy a developer a beer!
