                               Psi4 1.4a3.dev225

  ==> Input File <==

--------------------------------------------------------------------------
#psi4
#
memory 32 gb

molecule  {
0 1
  O        1.0008990     1.1197090    -0.0959030
  O       -1.6389080    -1.2036290    -0.1576800
  O       -1.2230690     1.6022640    -0.0675910
  C        0.8143200    -1.2427870    -0.1986520
  C       -0.4745104    -0.6762913     0.3885055
  C        1.7925350    -0.0950530     0.0479070
  C       -0.3121170     0.8099600     0.0626390
  H        0.6529500    -1.3959670    -1.2698370
  H        1.1362240    -2.1837260     0.2527190
  H       -0.4482060    -0.7692910     1.4955050
  H        2.2087130    -0.1135160     1.0603560
  H        2.6064290    -0.0309800    -0.6748690
  H       -2.2893650    -0.4737730    -0.1440310
units angstrom
no_reorient  #important for SAPT in psi4, default
symmetry c1  #important for SAPT in psi4, default
}

set PROPERTIES_ORIGIN ["COM"]
properties('MP2/aug-cc-pvtz', properties = ['dipole'])
--------------------------------------------------------------------------

    Molecular point group: c1
  Charge       = 0
  Multiplicity = 1
  Basis Set: AUG-CC-PVTZ
    Blend: AUG-CC-PVTZ
  Basis Set: (AUG-CC-PVTZ AUX)
    Blend: AUG-CC-PVTZ-JKFIT

    Orbital Energies [Eh]
    ---------------------

    Doubly Occupied:

       1A    -20.620335     2A    -20.582959     3A    -20.559335
       4A    -11.392026     5A    -11.319123     6A    -11.316924
       7A    -11.258502     8A     -1.469216     9A     -1.395109
      10A     -1.371861    11A     -1.090875    12A     -0.986568
      13A     -0.860848    14A     -0.798904    15A     -0.733767
      16A     -0.716360    17A     -0.689226    18A     -0.658601
      19A     -0.623623    20A     -0.603696    21A     -0.585855
      22A     -0.560308    23A     -0.535589    24A     -0.523973
      25A     -0.472476    26A     -0.468092    27A     -0.444540

  @DF-RHF Final Energy:  -379.70092997945852

   => Energetics <=

    Nuclear Repulsion Energy =            317.4504104372281859
    One-Electron Energy =               -1149.0253018270461780
    Two-Electron Energy =                 451.8739614103595272
    Total Energy =                       -379.7009299794585218
  Basis Set: (AUG-CC-PVTZ AUX)
    Blend: AUG-CC-PVTZ-RI
    Molecular point group: c1

    Geometry (in Angstrom), charge = 0, multiplicity = 1:

       Center              X                  Y                   Z               Mass
    ------------   -----------------  -----------------  -----------------  -----------------
         O            1.040377420343     1.072374638132    -0.087994860075    15.994914619570
         O           -1.599429579657    -1.250963361868    -0.149771860075    15.994914619570
         O           -1.183590579657     1.554929638132    -0.059682860075    15.994914619570
         C            0.853798420343    -1.290121361868    -0.190743860075    12.000000000000
         C           -0.435031979657    -0.723625661868     0.396413639925    12.000000000000
         C            1.832013420343    -0.142387361868     0.055815139925    12.000000000000
         C           -0.272638579657     0.762625638132     0.070547139925    12.000000000000
         H            0.692428420343    -1.443301361868    -1.261928860075     1.007825032230
         H            1.175702420343    -2.231060361868     0.260627139925     1.007825032230
         H           -0.408727579657    -0.816625361868     1.503413139925     1.007825032230
         H            2.248191420343    -0.160850361868     1.068264139925     1.007825032230
         H            2.645907420343    -0.078314361868    -0.666960860075     1.007825032230
         H           -2.249886579657    -0.521107361868    -0.136122860075     1.007825032230

  Basis Set: AUG-CC-PVTZ
    Blend: AUG-CC-PVTZ
  Basis Set: (AUG-CC-PVTZ AUX)
    Blend: AUG-CC-PVTZ-JKFIT
	 Reference Energy          =    -379.7009299794585218 [Eh]
	 Singles Energy            =      -0.0000000000000000 [Eh]
	 Same-Spin Energy          =      -0.3683333854401379 [Eh]
	 Opposite-Spin Energy      =      -1.1360438570253915 [Eh]
	 Correlation Energy        =      -1.5043772424655293 [Eh]
	 Total Energy              =    -381.2053072219240448 [Eh]

	 ================> DF-SCS-MP2 Energies <==================
	-----------------------------------------------------------
	 SCS Same-Spin Scale       =       0.3333333333333333 [-]
	 SCS Opposite-Spin Scale   =       1.2000000000000000 [-]
	 SCS Same-Spin Energy      =      -0.1227777951467126 [Eh]
	 SCS Opposite-Spin Energy  =      -1.3632526284304698 [Eh]
	 SCS Correlation Energy    =      -1.4860304235771824 [Eh]
	 SCS Total Energy          =    -381.1869604030356982 [Eh]
	-----------------------------------------------------------

  Dipole Moment: [D]
     X:     2.6324      Y:    -2.3090      Z:     0.9513     Total:     3.6285

*** Psi4 exiting successfully. Buy a developer a beer!
