                               Psi4 1.3.2 release

  ==> Input File <==

--------------------------------------------------------------------------
#psi4
#
memory 32 gb

molecule  {
0 1
  O        1.0065582     1.0971410    -0.0913543
  O       -1.6389080    -1.2036290    -0.1576800
  O       -1.2230690     1.6022640    -0.0675910
  C        0.8143200    -1.2427870    -0.1986520
  C       -0.4577570    -0.6687040     0.3963640
  C        1.7925350    -0.0950530     0.0479070
  C       -0.3121170     0.8099600     0.0626390
  H        0.6529500    -1.3959670    -1.2698370
  H        1.1362240    -2.1837260     0.2527190
  H       -0.4482060    -0.7692910     1.4955050
  H        2.2087130    -0.1135160     1.0603560
  H        2.6064290    -0.0309800    -0.6748690
  H       -2.2893650    -0.4737730    -0.1440310
units angstrom
no_reorient  #important for SAPT in psi4, default
symmetry c1  #important for SAPT in psi4, default
}

set PROPERTIES_ORIGIN ["COM"]
properties('MP2/aug-cc-pvtz', properties = ['dipole'])
--------------------------------------------------------------------------

    Molecular point group: c1
  Charge       = 0
  Multiplicity = 1
  Basis Set: AUG-CC-PVTZ
    Blend: AUG-CC-PVTZ
  Basis Set: (AUG-CC-PVTZ AUX)
    Blend: AUG-CC-PVTZ-JKFIT

    Orbital Energies [Eh]
    ---------------------

    Doubly Occupied:

       1A    -20.620420     2A    -20.580648     3A    -20.561897
       4A    -11.394199     5A    -11.317686     6A    -11.315230
       7A    -11.257647     8A     -1.473921     9A     -1.389836
      10A     -1.372915    11A     -1.091851    12A     -0.991365
      13A     -0.862351    14A     -0.798233    15A     -0.736306
      16A     -0.715257    17A     -0.689473    18A     -0.660781
      19A     -0.624954    20A     -0.604049    21A     -0.583055
      22A     -0.559898    23A     -0.534376    24A     -0.523407
      25A     -0.474659    26A     -0.468318    27A     -0.446885

  @DF-RHF Final Energy:  -379.70126056526846

   => Energetics <=

    Nuclear Repulsion Energy =            317.9249476757903494
    One-Electron Energy =               -1149.9531785757997113
    Two-Electron Energy =                 452.3269703347409063
    Total Energy =                       -379.7012605652684556
  Basis Set: (AUG-CC-PVTZ AUX)
    Blend: AUG-CC-PVTZ-RI
    Molecular point group: c1

    Geometry (in Angstrom), charge = 0, multiplicity = 1:

       Center              X                  Y                   Z               Mass
    ------------   -----------------  -----------------  -----------------  -----------------
         O            1.043179084520     1.052452145840    -0.085083475516    15.994914619570
         O           -1.602287115480    -1.248317854160    -0.151409175516    15.994914619570
         O           -1.186448115480     1.557575145840    -0.061320175516    15.994914619570
         C            0.850940884520    -1.287475854160    -0.192381175516    12.000000000000
         C           -0.421136115480    -0.713392854160     0.402634824484    12.000000000000
         C            1.829155884520    -0.139741854160     0.054177824484    12.000000000000
         C           -0.275496115480     0.765271145840     0.068909824484    12.000000000000
         H            0.689570884520    -1.440655854160    -1.263566175516     1.007825032230
         H            1.172844884520    -2.228414854160     0.258989824484     1.007825032230
         H           -0.411585115480    -0.813979854160     1.501775824484     1.007825032230
         H            2.245333884520    -0.158204854160     1.066626824484     1.007825032230
         H            2.643049884520    -0.075668854160    -0.668598175516     1.007825032230
         H           -2.252744115480    -0.518461854160    -0.137760175516     1.007825032230

  Basis Set: AUG-CC-PVTZ
    Blend: AUG-CC-PVTZ
  Basis Set: (AUG-CC-PVTZ AUX)
    Blend: AUG-CC-PVTZ-JKFIT
	 Reference Energy          =    -379.7012605652684556 [Eh]
	 Singles Energy            =      -0.0000000000000000 [Eh]
	 Same-Spin Energy          =      -0.3683599454411330 [Eh]
	 Opposite-Spin Energy      =      -1.1359357173218116 [Eh]
	 Correlation Energy        =      -1.5042956627629447 [Eh]
	 Total Energy              =    -381.2055562280314120 [Eh]

	 ================> DF-SCS-MP2 Energies <==================
	-----------------------------------------------------------
	 SCS Same-Spin Scale       =       0.3333333333333333 [-]
	 SCS Opposite-Spin Scale   =       1.2000000000000000 [-]
	 SCS Same-Spin Energy      =      -0.1227866484803777 [Eh]
	 SCS Opposite-Spin Energy  =      -1.3631228607861738 [Eh]
	 SCS Correlation Energy    =      -1.4859095092665515 [Eh]
	 SCS Total Energy          =    -381.1871700745350040 [Eh]
	-----------------------------------------------------------

  Dipole Moment: [D]
     X:     2.6639      Y:    -2.2134      Z:     0.9690     Total:     3.5964

*** Psi4 exiting successfully. Buy a developer a beer!
