                               Psi4 1.3.2 release

  ==> Input File <==

--------------------------------------------------------------------------
#psi4
#
memory 32 gb

molecule  {
0 1
  O        1.0008990     1.1197090    -0.0959030
  O       -1.5823088    -1.2595402    -0.2156189
  O       -1.2230690     1.6022640    -0.0675910
  C        0.8143200    -1.2427870    -0.1986520
  C       -0.4577570    -0.6687040     0.3963640
  C        1.7925350    -0.0950530     0.0479070
  C       -0.3121170     0.8099600     0.0626390
  H        0.6529500    -1.3959670    -1.2698370
  H        1.1362240    -2.1837260     0.2527190
  H       -0.4482060    -0.7692910     1.4955050
  H        2.2087130    -0.1135160     1.0603560
  H        2.6064290    -0.0309800    -0.6748690
  H       -2.2893650    -0.4737730    -0.1440310
units angstrom
no_reorient  #important for SAPT in psi4, default
symmetry c1  #important for SAPT in psi4, default
}

set PROPERTIES_ORIGIN ["COM"]
properties('MP2/aug-cc-pvtz', properties = ['dipole'])
--------------------------------------------------------------------------

    Molecular point group: c1
  Charge       = 0
  Multiplicity = 1
  Basis Set: AUG-CC-PVTZ
    Blend: AUG-CC-PVTZ
  Basis Set: (AUG-CC-PVTZ AUX)
    Blend: AUG-CC-PVTZ-JKFIT

    Orbital Energies [Eh]
    ---------------------

    Doubly Occupied:

       1A    -20.620562     2A    -20.589967     3A    -20.561083
       4A    -11.393445     5A    -11.317467     6A    -11.315580
       7A    -11.255854     8A     -1.469763     9A     -1.381674
      10A     -1.367376    11A     -1.089616    12A     -0.986042
      13A     -0.862063    14A     -0.790049    15A     -0.733933
      16A     -0.705403    17A     -0.684911    18A     -0.658629
      19A     -0.622341    20A     -0.603162    21A     -0.577904
      22A     -0.560026    23A     -0.532945    24A     -0.521222
      25A     -0.476261    26A     -0.468293    27A     -0.446480

  @DF-RHF Final Energy:  -379.68861083171140

   => Energetics <=

    Nuclear Repulsion Energy =            317.2164676001779071
    One-Electron Energy =               -1148.6260573167623988
    Two-Electron Energy =                 451.7209788848730909
    Total Energy =                       -379.6886108317114008
  Basis Set: (AUG-CC-PVTZ AUX)
    Blend: AUG-CC-PVTZ-RI
    Molecular point group: c1

    Geometry (in Angstrom), charge = 0, multiplicity = 1:

       Center              X                  Y                   Z               Mass
    ------------   -----------------  -----------------  -----------------  -----------------
         O            1.029534317307     1.080247165171    -0.079836358284    15.994914619570
         O           -1.553673482693    -1.299002034829    -0.199552258284    15.994914619570
         O           -1.194433682693     1.562802165171    -0.051524358284    15.994914619570
         C            0.842955317307    -1.282248834829    -0.182585358284    12.000000000000
         C           -0.429121682693    -0.708165834829     0.412430641716    12.000000000000
         C            1.821170317307    -0.134514834829     0.063973641716    12.000000000000
         C           -0.283481682693     0.770498165171     0.078705641716    12.000000000000
         H            0.681585317307    -1.435428834829    -1.253770358284     1.007825032230
         H            1.164859317307    -2.223187834829     0.268785641716     1.007825032230
         H           -0.419570682693    -0.808752834829     1.511571641716     1.007825032230
         H            2.237348317307    -0.152977834829     1.076422641716     1.007825032230
         H            2.635064317307    -0.070441834829    -0.658802358284     1.007825032230
         H           -2.260729682693    -0.513234834829    -0.127964358284     1.007825032230

  Basis Set: AUG-CC-PVTZ
    Blend: AUG-CC-PVTZ
  Basis Set: (AUG-CC-PVTZ AUX)
    Blend: AUG-CC-PVTZ-JKFIT
	 Reference Energy          =    -379.6886108317114008 [Eh]
	 Singles Energy            =      -0.0000000000000000 [Eh]
	 Same-Spin Energy          =      -0.3697705947085479 [Eh]
	 Opposite-Spin Energy      =      -1.1397479525767920 [Eh]
	 Correlation Energy        =      -1.5095185472853399 [Eh]
	 Total Energy              =    -381.1981293789967253 [Eh]

	 ================> DF-SCS-MP2 Energies <==================
	-----------------------------------------------------------
	 SCS Same-Spin Scale       =       0.3333333333333333 [-]
	 SCS Opposite-Spin Scale   =       1.2000000000000000 [-]
	 SCS Same-Spin Energy      =      -0.1232568649028493 [Eh]
	 SCS Opposite-Spin Energy  =      -1.3676975430921503 [Eh]
	 SCS Correlation Energy    =      -1.4909544079949997 [Eh]
	 SCS Total Energy          =    -381.1795652397063918 [Eh]
	-----------------------------------------------------------

  Dipole Moment: [D]
     X:     2.5691      Y:    -2.2306      Z:     1.0809     Total:     3.5698

*** Psi4 exiting successfully. Buy a developer a beer!
