                               Psi4 1.3.2 release

  ==> Input File <==

--------------------------------------------------------------------------
#psi4
#
memory 32 gb

molecule  {
0 1
  O        1.0008990     1.1197090    -0.0959030
  O       -1.6389080    -1.2036290    -0.1576800
  O       -1.2230690     1.6022640    -0.0675910
  C        0.8143200    -1.2427870    -0.1986520
  C       -0.4577570    -0.6687040     0.3963640
  C        1.7925350    -0.0950530     0.0479070
  C       -0.5054434     0.7643531     0.0859825
  H        0.6529500    -1.3959670    -1.2698370
  H        1.1362240    -2.1837260     0.2527190
  H       -0.4482060    -0.7692910     1.4955050
  H        2.2087130    -0.1135160     1.0603560
  H        2.6064290    -0.0309800    -0.6748690
  H       -2.2893650    -0.4737730    -0.1440310
units angstrom
no_reorient  #important for SAPT in psi4, default
symmetry c1  #important for SAPT in psi4, default
}

set PROPERTIES_ORIGIN ["COM"]
properties('MP2/aug-cc-pvtz', properties = ['dipole'])
--------------------------------------------------------------------------

    Molecular point group: c1
  Charge       = 0
  Multiplicity = 1
  Basis Set: AUG-CC-PVTZ
    Blend: AUG-CC-PVTZ
  Basis Set: (AUG-CC-PVTZ AUX)
    Blend: AUG-CC-PVTZ-JKFIT

    Orbital Energies [Eh]
    ---------------------

    Doubly Occupied:

       1A    -20.598860     2A    -20.589248     3A    -20.566681
       4A    -11.395103     5A    -11.326467     6A    -11.292042
       7A    -11.254830     8A     -1.509616     9A     -1.399068
      10A     -1.342702    11A     -1.083725    12A     -0.979849
      13A     -0.854004    14A     -0.792200    15A     -0.734527
      16A     -0.724450    17A     -0.691045    18A     -0.643215
      19A     -0.631090    20A     -0.625526    21A     -0.571501
      22A     -0.569677    23A     -0.541407    24A     -0.514825
      25A     -0.480504    26A     -0.447623    27A     -0.440471

  @DF-RHF Final Energy:  -379.66320123575571

   => Energetics <=

    Nuclear Repulsion Energy =            317.3027550011029234
    One-Electron Energy =               -1148.7313938387999315
    Two-Electron Energy =                 451.7654376019413007
    Total Energy =                       -379.6632012357557073
  Basis Set: (AUG-CC-PVTZ AUX)
    Blend: AUG-CC-PVTZ-RI
    Molecular point group: c1

    Geometry (in Angstrom), charge = 0, multiplicity = 1:

       Center              X                  Y                   Z               Mass
    ------------   -----------------  -----------------  -----------------  -----------------
         O            1.061144261663     1.076846142836    -0.091664543338    15.994914619570
         O           -1.578662738337    -1.246491857164    -0.153441543338    15.994914619570
         O           -1.162823738337     1.559401142836    -0.063352543338    15.994914619570
         C            0.874565261663    -1.285649857164    -0.194413543338    12.000000000000
         C           -0.397511738337    -0.711566857164     0.400602456662    12.000000000000
         C            1.852780261663    -0.137915857164     0.052145456662    12.000000000000
         C           -0.445198138337     0.721490242836     0.090220956662    12.000000000000
         H            0.713195261663    -1.438829857164    -1.265598543338     1.007825032230
         H            1.196469261663    -2.226588857164     0.256957456662     1.007825032230
         H           -0.387960738337    -0.812153857164     1.499743456662     1.007825032230
         H            2.268958261663    -0.156378857164     1.064594456662     1.007825032230
         H            2.666674261663    -0.073842857164    -0.670630543338     1.007825032230
         H           -2.229119738337    -0.516635857164    -0.139792543338     1.007825032230

  Basis Set: AUG-CC-PVTZ
    Blend: AUG-CC-PVTZ
  Basis Set: (AUG-CC-PVTZ AUX)
    Blend: AUG-CC-PVTZ-JKFIT
	 Reference Energy          =    -379.6632012357557073 [Eh]
	 Singles Energy            =      -0.0000000000000000 [Eh]
	 Same-Spin Energy          =      -0.3689919071829200 [Eh]
	 Opposite-Spin Energy      =      -1.1384092481512604 [Eh]
	 Correlation Energy        =      -1.5074011553341804 [Eh]
	 Total Energy              =    -381.1706023910899148 [Eh]

	 ================> DF-SCS-MP2 Energies <==================
	-----------------------------------------------------------
	 SCS Same-Spin Scale       =       0.3333333333333333 [-]
	 SCS Opposite-Spin Scale   =       1.2000000000000000 [-]
	 SCS Same-Spin Energy      =      -0.1229973023943066 [Eh]
	 SCS Opposite-Spin Energy  =      -1.3660910977815124 [Eh]
	 SCS Correlation Energy    =      -1.4890884001758191 [Eh]
	 SCS Total Energy          =    -381.1522896359315382 [Eh]
	-----------------------------------------------------------

  Dipole Moment: [D]
     X:     0.9082      Y:    -2.1879      Z:     1.0891     Total:     2.6072

*** Psi4 exiting successfully. Buy a developer a beer!
