                               Psi4 1.3.2 release

  ==> Input File <==

--------------------------------------------------------------------------
#psi4
#
memory 32 gb

molecule  {
0 1
  O        1.0008990     1.1197090    -0.0959030
  O       -1.6389080    -1.2036290    -0.1576800
  O       -1.2230690     1.6022640    -0.0675910
  C        0.8143200    -1.2427870    -0.1986520
  C       -0.4829449    -0.7134169     0.3832985
  C        1.7925350    -0.0950530     0.0479070
  C       -0.3121170     0.8099600     0.0626390
  H        0.6529500    -1.3959670    -1.2698370
  H        1.1362240    -2.1837260     0.2527190
  H       -0.4482060    -0.7692910     1.4955050
  H        2.2087130    -0.1135160     1.0603560
  H        2.6064290    -0.0309800    -0.6748690
  H       -2.2893650    -0.4737730    -0.1440310
units angstrom
no_reorient  #important for SAPT in psi4, default
symmetry c1  #important for SAPT in psi4, default
}

set PROPERTIES_ORIGIN ["COM"]
properties('MP2/aug-cc-pvtz', properties = ['dipole'])
--------------------------------------------------------------------------

    Molecular point group: c1
  Charge       = 0
  Multiplicity = 1
  Basis Set: AUG-CC-PVTZ
    Blend: AUG-CC-PVTZ
  Basis Set: (AUG-CC-PVTZ AUX)
    Blend: AUG-CC-PVTZ-JKFIT

    Orbital Energies [Eh]
    ---------------------

    Doubly Occupied:

       1A    -20.619814     2A    -20.584102     3A    -20.558593
       4A    -11.390958     5A    -11.320400     6A    -11.317049
       7A    -11.257709     8A     -1.467580     9A     -1.402952
      10A     -1.371724    11A     -1.090086    12A     -0.982241
      13A     -0.857186    14A     -0.801200    15A     -0.732388
      16A     -0.720337    17A     -0.688500    18A     -0.659410
      19A     -0.625031    20A     -0.603518    21A     -0.590660
      22A     -0.557911    23A     -0.535972    24A     -0.524274
      25A     -0.472804    26A     -0.467611    27A     -0.437062

  @DF-RHF Final Energy:  -379.69919850980551

   => Energetics <=

    Nuclear Repulsion Energy =            317.2136977069739601
    One-Electron Energy =               -1148.5516497672601872
    Two-Electron Energy =                 451.6387535504806579
    Total Energy =                       -379.6991985098055125
  Basis Set: (AUG-CC-PVTZ AUX)
    Blend: AUG-CC-PVTZ-RI
    Molecular point group: c1

    Geometry (in Angstrom), charge = 0, multiplicity = 1:

       Center              X                  Y                   Z               Mass
    ------------   -----------------  -----------------  -----------------  -----------------
         O            1.041369406225     1.076740999037    -0.087382462128    15.994914619570
         O           -1.598437593775    -1.246597000963    -0.149159462128    15.994914619570
         O           -1.182598593775     1.559295999037    -0.059070462128    15.994914619570
         C            0.854790406225    -1.285755000963    -0.190131462128    12.000000000000
         C           -0.442474493775    -0.756384900963     0.391819037872    12.000000000000
         C            1.833005406225    -0.138021000963     0.056427537872    12.000000000000
         C           -0.271646593775     0.766991999037     0.071159537872    12.000000000000
         H            0.693420406225    -1.438935000963    -1.261316462128     1.007825032230
         H            1.176694406225    -2.226694000963     0.261239537872     1.007825032230
         H           -0.407735593775    -0.812259000963     1.504025537872     1.007825032230
         H            2.249183406225    -0.156484000963     1.068876537872     1.007825032230
         H            2.646899406225    -0.073948000963    -0.666348462128     1.007825032230
         H           -2.248894593775    -0.516741000963    -0.135510462128     1.007825032230

  Basis Set: AUG-CC-PVTZ
    Blend: AUG-CC-PVTZ
  Basis Set: (AUG-CC-PVTZ AUX)
    Blend: AUG-CC-PVTZ-JKFIT
	 Reference Energy          =    -379.6991985098055125 [Eh]
	 Singles Energy            =      -0.0000000000000000 [Eh]
	 Same-Spin Energy          =      -0.3683169126402888 [Eh]
	 Opposite-Spin Energy      =      -1.1356142324151626 [Eh]
	 Correlation Energy        =      -1.5039311450554513 [Eh]
	 Total Energy              =    -381.2031296548609589 [Eh]

	 ================> DF-SCS-MP2 Energies <==================
	-----------------------------------------------------------
	 SCS Same-Spin Scale       =       0.3333333333333333 [-]
	 SCS Opposite-Spin Scale   =       1.2000000000000000 [-]
	 SCS Same-Spin Energy      =      -0.1227723042134296 [Eh]
	 SCS Opposite-Spin Energy  =      -1.3627370788981950 [Eh]
	 SCS Correlation Energy    =      -1.4855093831116246 [Eh]
	 SCS Total Energy          =    -381.1847078929171175 [Eh]
	-----------------------------------------------------------

  Dipole Moment: [D]
     X:     2.5776      Y:    -2.3235      Z:     0.9145     Total:     3.5887

*** Psi4 exiting successfully. Buy a developer a beer!
