                               Psi4 1.3.2 release

  ==> Input File <==

--------------------------------------------------------------------------
#psi4
#
memory 32 gb

molecule  {
0 1
  O        1.0008990     1.1197090    -0.0959030
  O       -1.6389080    -1.2036290    -0.1576800
  O       -1.2230690     1.6022640    -0.0675910
  C        0.8070212    -1.2246652    -0.2482822
  C       -0.4577570    -0.6687040     0.3963640
  C        1.7925350    -0.0950530     0.0479070
  C       -0.3121170     0.8099600     0.0626390
  H        0.6529500    -1.3959670    -1.2698370
  H        1.1362240    -2.1837260     0.2527190
  H       -0.4482060    -0.7692910     1.4955050
  H        2.2087130    -0.1135160     1.0603560
  H        2.6064290    -0.0309800    -0.6748690
  H       -2.2893650    -0.4737730    -0.1440310
units angstrom
no_reorient  #important for SAPT in psi4, default
symmetry c1  #important for SAPT in psi4, default
}

set PROPERTIES_ORIGIN ["COM"]
properties('MP2/aug-cc-pvtz', properties = ['dipole'])
--------------------------------------------------------------------------

    Molecular point group: c1
  Charge       = 0
  Multiplicity = 1
  Basis Set: AUG-CC-PVTZ
    Blend: AUG-CC-PVTZ
  Basis Set: (AUG-CC-PVTZ AUX)
    Blend: AUG-CC-PVTZ-JKFIT

    Orbital Energies [Eh]
    ---------------------

    Doubly Occupied:

       1A    -20.619391     2A    -20.580685     3A    -20.559477
       4A    -11.391759     5A    -11.318703     6A    -11.317237
       7A    -11.258581     8A     -1.469471     9A     -1.388146
      10A     -1.370390    11A     -1.092374    12A     -0.987988
      13A     -0.864066    14A     -0.796283    15A     -0.734978
      16A     -0.713245    17A     -0.687350    18A     -0.659667
      19A     -0.623091    20A     -0.609030    21A     -0.578229
      22A     -0.554124    23A     -0.542275    24A     -0.520920
      25A     -0.475920    26A     -0.468998    27A     -0.445022

  @DF-RHF Final Energy:  -379.69750022702283

   => Energetics <=

    Nuclear Repulsion Energy =            317.5824502408620447
    One-Electron Energy =               -1149.3050961514470600
    Two-Electron Energy =                 452.0251456835621866
    Total Energy =                       -379.6975002270228288
  Basis Set: (AUG-CC-PVTZ AUX)
    Blend: AUG-CC-PVTZ-RI
    Molecular point group: c1

    Geometry (in Angstrom), charge = 0, multiplicity = 1:

       Center              X                  Y                   Z               Mass
    ------------   -----------------  -----------------  -----------------  -----------------
         O            1.039265459976     1.069350977661    -0.083082068960    15.994914619570
         O           -1.600541540024    -1.253987022339    -0.144859068960    15.994914619570
         O           -1.184702540024     1.551905977661    -0.054770068960    15.994914619570
         C            0.845387659976    -1.275023222339    -0.235461268960    12.000000000000
         C           -0.419390540024    -0.719062022339     0.409184931040    12.000000000000
         C            1.830901459976    -0.145411022339     0.060727931040    12.000000000000
         C           -0.273750540024     0.759601977661     0.075459931040    12.000000000000
         H            0.691316459976    -1.446325022339    -1.257016068960     1.007825032230
         H            1.174590459976    -2.234084022339     0.265539931040     1.007825032230
         H           -0.409839540024    -0.819649022339     1.508325931040     1.007825032230
         H            2.247079459976    -0.163874022339     1.073176931040     1.007825032230
         H            2.644795459976    -0.081338022339    -0.662048068960     1.007825032230
         H           -2.250998540024    -0.524131022339    -0.131210068960     1.007825032230

  Basis Set: AUG-CC-PVTZ
    Blend: AUG-CC-PVTZ
  Basis Set: (AUG-CC-PVTZ AUX)
    Blend: AUG-CC-PVTZ-JKFIT
	 Reference Energy          =    -379.6975002270228288 [Eh]
	 Singles Energy            =      -0.0000000000000000 [Eh]
	 Same-Spin Energy          =      -0.3684329601707753 [Eh]
	 Opposite-Spin Energy      =      -1.1364828841362788 [Eh]
	 Correlation Energy        =      -1.5049158443070541 [Eh]
	 Total Energy              =    -381.2024160713298784 [Eh]

	 ================> DF-SCS-MP2 Energies <==================
	-----------------------------------------------------------
	 SCS Same-Spin Scale       =       0.3333333333333333 [-]
	 SCS Opposite-Spin Scale   =       1.2000000000000000 [-]
	 SCS Same-Spin Energy      =      -0.1228109867235918 [Eh]
	 SCS Opposite-Spin Energy  =      -1.3637794609635345 [Eh]
	 SCS Correlation Energy    =      -1.4865904476871263 [Eh]
	 SCS Total Energy          =    -381.1840906747099780 [Eh]
	-----------------------------------------------------------

  Dipole Moment: [D]
     X:     2.6914      Y:    -2.2737      Z:     0.9664     Total:     3.6534

*** Psi4 exiting successfully. Buy a developer a beer!
