                               Psi4 1.3.2 release

  ==> Input File <==

--------------------------------------------------------------------------
#psi4
#
memory 32 gb

molecule  {
0 1
  O        1.0008990     1.1197090    -0.0959030
  O       -1.6442175    -1.1815399    -0.1671412
  O       -1.2230690     1.6022640    -0.0675910
  C        0.8143200    -1.2427870    -0.1986520
  C       -0.4577570    -0.6687040     0.3963640
  C        1.7925350    -0.0950530     0.0479070
  C       -0.3121170     0.8099600     0.0626390
  H        0.6529500    -1.3959670    -1.2698370
  H        1.1362240    -2.1837260     0.2527190
  H       -0.4482060    -0.7692910     1.4955050
  H        2.2087130    -0.1135160     1.0603560
  H        2.6064290    -0.0309800    -0.6748690
  H       -2.2893650    -0.4737730    -0.1440310
units angstrom
no_reorient  #important for SAPT in psi4, default
symmetry c1  #important for SAPT in psi4, default
}

set PROPERTIES_ORIGIN ["COM"]
properties('MP2/aug-cc-pvtz', properties = ['dipole'])
--------------------------------------------------------------------------

    Molecular point group: c1
  Charge       = 0
  Multiplicity = 1
  Basis Set: AUG-CC-PVTZ
    Blend: AUG-CC-PVTZ
  Basis Set: (AUG-CC-PVTZ AUX)
    Blend: AUG-CC-PVTZ-JKFIT

    Orbital Energies [Eh]
    ---------------------

    Doubly Occupied:

       1A    -20.620019     2A    -20.578775     3A    -20.559373
       4A    -11.391986     5A    -11.319028     6A    -11.317378
       7A    -11.259396     8A     -1.469531     9A     -1.391028
      10A     -1.370870    11A     -1.094392    12A     -0.988640
      13A     -0.862279    14A     -0.799248    15A     -0.734455
      16A     -0.717058    17A     -0.689459    18A     -0.658723
      19A     -0.621908    20A     -0.604678    21A     -0.583080
      22A     -0.559717    23A     -0.536064    24A     -0.522883
      25A     -0.476026    26A     -0.468085    27A     -0.446413

  @DF-RHF Final Energy:  -379.70170755173422

   => Energetics <=

    Nuclear Repulsion Energy =            317.6976208738373657
    One-Electron Energy =               -1149.5176701066325222
    Two-Electron Energy =                 452.1183416810608833
    Total Energy =                       -379.7017075517342164
  Basis Set: (AUG-CC-PVTZ AUX)
    Blend: AUG-CC-PVTZ-RI
    Molecular point group: c1

    Geometry (in Angstrom), charge = 0, multiplicity = 1:

       Center              X                  Y                   Z               Mass
    ------------   -----------------  -----------------  -----------------  -----------------
         O            1.039239383756     1.068019512279    -0.087435925062    15.994914619570
         O           -1.605877116244    -1.233229387721    -0.158674125062    15.994914619570
         O           -1.184728616244     1.550574512279    -0.059123925062    15.994914619570
         C            0.852660383756    -1.294476487721    -0.190184925062    12.000000000000
         C           -0.419416616244    -0.720393487721     0.404831074938    12.000000000000
         C            1.830875383756    -0.146742487721     0.056374074938    12.000000000000
         C           -0.273776616244     0.758270512279     0.071106074938    12.000000000000
         H            0.691290383756    -1.447656487721    -1.261369925062     1.007825032230
         H            1.174564383756    -2.235415487721     0.261186074938     1.007825032230
         H           -0.409865616244    -0.820980487721     1.503972074938     1.007825032230
         H            2.247053383756    -0.165205487721     1.068823074938     1.007825032230
         H            2.644769383756    -0.082669487721    -0.666401925062     1.007825032230
         H           -2.251024616244    -0.525462487721    -0.135563925062     1.007825032230

  Basis Set: AUG-CC-PVTZ
    Blend: AUG-CC-PVTZ
  Basis Set: (AUG-CC-PVTZ AUX)
    Blend: AUG-CC-PVTZ-JKFIT
	 Reference Energy          =    -379.7017075517342164 [Eh]
	 Singles Energy            =      -0.0000000000000000 [Eh]
	 Same-Spin Energy          =      -0.3681496114593217 [Eh]
	 Opposite-Spin Energy      =      -1.1357455580706954 [Eh]
	 Correlation Energy        =      -1.5038951695300171 [Eh]
	 Total Energy              =    -381.2056027212642562 [Eh]

	 ================> DF-SCS-MP2 Energies <==================
	-----------------------------------------------------------
	 SCS Same-Spin Scale       =       0.3333333333333333 [-]
	 SCS Opposite-Spin Scale   =       1.2000000000000000 [-]
	 SCS Same-Spin Energy      =      -0.1227165371531072 [Eh]
	 SCS Opposite-Spin Energy  =      -1.3628946696848345 [Eh]
	 SCS Correlation Energy    =      -1.4856112068379417 [Eh]
	 SCS Total Energy          =    -381.1873187585721325 [Eh]
	-----------------------------------------------------------

  Dipole Moment: [D]
     X:     2.7055      Y:    -2.3261      Z:     1.0047     Total:     3.7067

*** Psi4 exiting successfully. Buy a developer a beer!
