                               Psi4 1.3.2 release

  ==> Input File <==

--------------------------------------------------------------------------
#psi4
#
memory 32 gb

molecule  {
0 1
  O        1.0008990     1.1197090    -0.0959030
  O       -1.6389080    -1.2036290    -0.1576800
  O       -1.2230690     1.6022640    -0.0675910
  C        0.8143200    -1.2427870    -0.1986520
  C       -0.4577570    -0.6687040     0.3963640
  C        1.7925350    -0.0950530     0.0479070
  C       -0.3312445     0.6157613     0.1064684
  H        0.6529500    -1.3959670    -1.2698370
  H        1.1362240    -2.1837260     0.2527190
  H       -0.4482060    -0.7692910     1.4955050
  H        2.2087130    -0.1135160     1.0603560
  H        2.6064290    -0.0309800    -0.6748690
  H       -2.2893650    -0.4737730    -0.1440310
units angstrom
no_reorient  #important for SAPT in psi4, default
symmetry c1  #important for SAPT in psi4, default
}

set PROPERTIES_ORIGIN ["COM"]
properties('MP2/aug-cc-pvtz', properties = ['dipole'])
--------------------------------------------------------------------------

    Molecular point group: c1
  Charge       = 0
  Multiplicity = 1
  Basis Set: AUG-CC-PVTZ
    Blend: AUG-CC-PVTZ
  Basis Set: (AUG-CC-PVTZ AUX)
    Blend: AUG-CC-PVTZ-JKFIT

    Orbital Energies [Eh]
    ---------------------

    Doubly Occupied:

       1A    -20.621903     2A    -20.594647     3A    -20.555100
       4A    -11.408636     5A    -11.323359     6A    -11.314429
       7A    -11.271242     8A     -1.446640     9A     -1.399974
      10A     -1.302942    11A     -1.132056    12A     -1.015169
      13A     -0.881123    14A     -0.806577    15A     -0.743916
      16A     -0.707425    17A     -0.697939    18A     -0.657119
      19A     -0.599768    20A     -0.593145    21A     -0.584423
      22A     -0.559581    23A     -0.535152    24A     -0.517300
      25A     -0.487479    26A     -0.454920    27A     -0.442330

  @DF-RHF Final Energy:  -379.62149921177650

   => Energetics <=

    Nuclear Repulsion Energy =            318.1743464726698107
    One-Electron Energy =               -1150.2831033458230650
    Two-Electron Energy =                 452.4872576613767023
    Total Energy =                       -379.6214992117764950
  Basis Set: (AUG-CC-PVTZ AUX)
    Blend: AUG-CC-PVTZ-RI
    Molecular point group: c1

    Geometry (in Angstrom), charge = 0, multiplicity = 1:

       Center              X                  Y                   Z               Mass
    ------------   -----------------  -----------------  -----------------  -----------------
         O            1.040656639465     1.094322100837    -0.094073900571    15.994914619570
         O           -1.599150360535    -1.229015899163    -0.155850900571    15.994914619570
         O           -1.183311360535     1.576877100837    -0.065761900571    15.994914619570
         C            0.854077639465    -1.268173899163    -0.196822900571    12.000000000000
         C           -0.417999360535    -0.694090899163     0.398193099429    12.000000000000
         C            1.832292639465    -0.120439899163     0.049736099429    12.000000000000
         C           -0.291486860535     0.590374400837     0.108297499429    12.000000000000
         H            0.692707639465    -1.421353899163    -1.268007900571     1.007825032230
         H            1.175981639465    -2.209112899163     0.254548099429     1.007825032230
         H           -0.408448360535    -0.794677899163     1.497334099429     1.007825032230
         H            2.248470639465    -0.138902899163     1.062185099429     1.007825032230
         H            2.646186639465    -0.056366899163    -0.673039900571     1.007825032230
         H           -2.249607360535    -0.499159899163    -0.142201900571     1.007825032230

  Basis Set: AUG-CC-PVTZ
    Blend: AUG-CC-PVTZ
  Basis Set: (AUG-CC-PVTZ AUX)
    Blend: AUG-CC-PVTZ-JKFIT
	 Reference Energy          =    -379.6214992117764950 [Eh]
	 Singles Energy            =      -0.0000000000000000 [Eh]
	 Same-Spin Energy          =      -0.3756810446231797 [Eh]
	 Opposite-Spin Energy      =      -1.1509705890802349 [Eh]
	 Correlation Energy        =      -1.5266516337034146 [Eh]
	 Total Energy              =    -381.1481508454799041 [Eh]

	 ================> DF-SCS-MP2 Energies <==================
	-----------------------------------------------------------
	 SCS Same-Spin Scale       =       0.3333333333333333 [-]
	 SCS Opposite-Spin Scale   =       1.2000000000000000 [-]
	 SCS Same-Spin Energy      =      -0.1252270148743932 [Eh]
	 SCS Opposite-Spin Energy  =      -1.3811647068962818 [Eh]
	 SCS Correlation Energy    =      -1.5063917217706750 [Eh]
	 SCS Total Energy          =    -381.1278909335471781 [Eh]
	-----------------------------------------------------------

  Dipole Moment: [D]
     X:     2.5921      Y:    -3.0377      Z:     1.1423     Total:     4.1535

*** Psi4 exiting successfully. Buy a developer a beer!
