                               Psi4 1.3.2 release

  ==> Input File <==

--------------------------------------------------------------------------
#psi4
#
memory 32 gb

molecule  {
0 1
  O        1.0008990     1.1197090    -0.0959030
  O       -1.6389080    -1.2036290    -0.1576800
  O       -1.2230690     1.6022640    -0.0675910
  C        0.8143200    -1.2427870    -0.1986520
  C       -0.4577570    -0.6687040     0.3963640
  C        1.6838727     0.0716888     0.0281672
  C       -0.3121170     0.8099600     0.0626390
  H        0.6529500    -1.3959670    -1.2698370
  H        1.1362240    -2.1837260     0.2527190
  H       -0.4482060    -0.7692910     1.4955050
  H        2.2087130    -0.1135160     1.0603560
  H        2.6064290    -0.0309800    -0.6748690
  H       -2.2893650    -0.4737730    -0.1440310
units angstrom
no_reorient  #important for SAPT in psi4, default
symmetry c1  #important for SAPT in psi4, default
}

set PROPERTIES_ORIGIN ["COM"]
properties('MP2/aug-cc-pvtz', properties = ['dipole'])
--------------------------------------------------------------------------

    Molecular point group: c1
  Charge       = 0
  Multiplicity = 1
  Basis Set: AUG-CC-PVTZ
    Blend: AUG-CC-PVTZ
  Basis Set: (AUG-CC-PVTZ AUX)
    Blend: AUG-CC-PVTZ-JKFIT

    Orbital Energies [Eh]
    ---------------------

    Doubly Occupied:

       1A    -20.639731     2A    -20.582277     3A    -20.574216
       4A    -11.406819     5A    -11.320306     6A    -11.319321
       7A    -11.255487     8A     -1.539517     9A     -1.409746
      10A     -1.380675    11A     -1.087307    12A     -0.996797
      13A     -0.872963    14A     -0.811528    15A     -0.751765
      16A     -0.724599    17A     -0.703957    18A     -0.680612
      19A     -0.645068    20A     -0.602937    21A     -0.587648
      22A     -0.561035    23A     -0.525510    24A     -0.514811
      25A     -0.466167    26A     -0.453509    27A     -0.444293

  @DF-RHF Final Energy:  -379.66196719568080

   => Energetics <=

    Nuclear Repulsion Energy =            320.5865146929249931
    One-Electron Energy =               -1154.7797539095120101
    Two-Electron Energy =                 454.5312720209062149
    Total Energy =                       -379.6619671956808020
  Basis Set: (AUG-CC-PVTZ AUX)
    Blend: AUG-CC-PVTZ-RI
    Molecular point group: c1

    Geometry (in Angstrom), charge = 0, multiplicity = 1:

       Center              X                  Y                   Z               Mass
    ------------   -----------------  -----------------  -----------------  -----------------
         O            1.051186873330     1.051871703044    -0.086597494273    15.994914619570
         O           -1.588620126670    -1.271466296956    -0.148374494273    15.994914619570
         O           -1.172781126670     1.534426703044    -0.058285494273    15.994914619570
         C            0.864607873330    -1.310624296956    -0.189346494273    12.000000000000
         C           -0.407469126670    -0.736541296956     0.405669505727    12.000000000000
         C            1.734160573330     0.003851503044     0.037472705727    12.000000000000
         C           -0.261829126670     0.742122703044     0.071944505727    12.000000000000
         H            0.703237873330    -1.463804296956    -1.260531494273     1.007825032230
         H            1.186511873330    -2.251563296956     0.262024505727     1.007825032230
         H           -0.397918126670    -0.837128296956     1.504810505727     1.007825032230
         H            2.259000873330    -0.181353296956     1.069661505727     1.007825032230
         H            2.656716873330    -0.098817296956    -0.665563494273     1.007825032230
         H           -2.239077126670    -0.541610296956    -0.134725494273     1.007825032230

  Basis Set: AUG-CC-PVTZ
    Blend: AUG-CC-PVTZ
  Basis Set: (AUG-CC-PVTZ AUX)
    Blend: AUG-CC-PVTZ-JKFIT
	 Reference Energy          =    -379.6619671956808020 [Eh]
	 Singles Energy            =      -0.0000000000000000 [Eh]
	 Same-Spin Energy          =      -0.3694082492512790 [Eh]
	 Opposite-Spin Energy      =      -1.1362068281646232 [Eh]
	 Correlation Energy        =      -1.5056150774159021 [Eh]
	 Total Energy              =    -381.1675822730966843 [Eh]

	 ================> DF-SCS-MP2 Energies <==================
	-----------------------------------------------------------
	 SCS Same-Spin Scale       =       0.3333333333333333 [-]
	 SCS Opposite-Spin Scale   =       1.2000000000000000 [-]
	 SCS Same-Spin Energy      =      -0.1231360830837596 [Eh]
	 SCS Opposite-Spin Energy  =      -1.3634481937975478 [Eh]
	 SCS Correlation Energy    =      -1.4865842768813073 [Eh]
	 SCS Total Energy          =    -381.1485514725621329 [Eh]
	-----------------------------------------------------------

  Dipole Moment: [D]
     X:     2.0490      Y:    -1.7249      Z:     0.8818     Total:     2.8198

*** Psi4 exiting successfully. Buy a developer a beer!
