                               Psi4 1.3.2 release

  ==> Input File <==

--------------------------------------------------------------------------
#psi4
#
memory 32 gb

molecule  {
0 1
  O        1.0008990     1.1197090    -0.0959030
  O       -1.6389080    -1.2036290    -0.1576800
  O       -1.2230690     1.6022640    -0.0675910
  C        0.8143200    -1.2427870    -0.1986520
  C       -0.4577570    -0.6687040     0.3963640
  C        1.8755567    -0.0386240     0.0315890
  C       -0.3121170     0.8099600     0.0626390
  H        0.6529500    -1.3959670    -1.2698370
  H        1.1362240    -2.1837260     0.2527190
  H       -0.4482060    -0.7692910     1.4955050
  H        2.2087130    -0.1135160     1.0603560
  H        2.6064290    -0.0309800    -0.6748690
  H       -2.2893650    -0.4737730    -0.1440310
units angstrom
no_reorient  #important for SAPT in psi4, default
symmetry c1  #important for SAPT in psi4, default
}

set PROPERTIES_ORIGIN ["COM"]
properties('MP2/aug-cc-pvtz', properties = ['dipole'])
--------------------------------------------------------------------------

    Molecular point group: c1
  Charge       = 0
  Multiplicity = 1
  Basis Set: AUG-CC-PVTZ
    Blend: AUG-CC-PVTZ
  Basis Set: (AUG-CC-PVTZ AUX)
    Blend: AUG-CC-PVTZ-JKFIT

    Orbital Energies [Eh]
    ---------------------

    Doubly Occupied:

       1A    -20.618287     2A    -20.580391     3A    -20.560118
       4A    -11.393303     5A    -11.317168     6A    -11.316959
       7A    -11.260986     8A     -1.466627     9A     -1.387360
      10A     -1.369716    11A     -1.078654    12A     -0.993909
      13A     -0.862418    14A     -0.795243    15A     -0.732108
      16A     -0.722262    17A     -0.686757    18A     -0.666577
      19A     -0.621266    20A     -0.602990    21A     -0.586166
      22A     -0.558957    23A     -0.528998    24A     -0.509957
      25A     -0.477588    26A     -0.465943    27A     -0.446522

  @DF-RHF Final Energy:  -379.69122841517344

   => Energetics <=

    Nuclear Repulsion Energy =            316.0461529093320223
    One-Electron Energy =               -1146.2603027327293148
    Two-Electron Energy =                 450.5229214082238514
    Total Energy =                       -379.6912284151734411
  Basis Set: (AUG-CC-PVTZ AUX)
    Blend: AUG-CC-PVTZ-RI
    Molecular point group: c1

    Geometry (in Angstrom), charge = 0, multiplicity = 1:

       Center              X                  Y                   Z               Mass
    ------------   -----------------  -----------------  -----------------  -----------------
         O            1.028642819530     1.064845648173    -0.086999933930    15.994914619570
         O           -1.611164180470    -1.258492351827    -0.148776933930    15.994914619570
         O           -1.195325180470     1.547400648173    -0.058687933930    15.994914619570
         C            0.842063819530    -1.297650351827    -0.189748933930    12.000000000000
         C           -0.430013180470    -0.723567351827     0.405267066070    12.000000000000
         C            1.903300519530    -0.093487351827     0.040492066070    12.000000000000
         C           -0.284373180470     0.755096648173     0.071542066070    12.000000000000
         H            0.680693819530    -1.450830351827    -1.260933933930     1.007825032230
         H            1.163967819530    -2.238589351827     0.261622066070     1.007825032230
         H           -0.420462180470    -0.824154351827     1.504408066070     1.007825032230
         H            2.236456819530    -0.168379351827     1.069259066070     1.007825032230
         H            2.634172819530    -0.085843351827    -0.665965933930     1.007825032230
         H           -2.261621180470    -0.528636351827    -0.135127933930     1.007825032230

  Basis Set: AUG-CC-PVTZ
    Blend: AUG-CC-PVTZ
  Basis Set: (AUG-CC-PVTZ AUX)
    Blend: AUG-CC-PVTZ-JKFIT
	 Reference Energy          =    -379.6912284151734411 [Eh]
	 Singles Energy            =      -0.0000000000000000 [Eh]
	 Same-Spin Energy          =      -0.3679352035080172 [Eh]
	 Opposite-Spin Energy      =      -1.1362423428053594 [Eh]
	 Correlation Energy        =      -1.5041775463133766 [Eh]
	 Total Energy              =    -381.1954059614868129 [Eh]

	 ================> DF-SCS-MP2 Energies <==================
	-----------------------------------------------------------
	 SCS Same-Spin Scale       =       0.3333333333333333 [-]
	 SCS Opposite-Spin Scale   =       1.2000000000000000 [-]
	 SCS Same-Spin Energy      =      -0.1226450678360057 [Eh]
	 SCS Opposite-Spin Energy  =      -1.3634908113664312 [Eh]
	 SCS Correlation Energy    =      -1.4861358792024371 [Eh]
	 SCS Total Energy          =    -381.1773642943758773 [Eh]
	-----------------------------------------------------------

  Dipole Moment: [D]
     X:     2.7989      Y:    -2.2103      Z:     0.9647     Total:     3.6946

*** Psi4 exiting successfully. Buy a developer a beer!
