                               Psi4 1.3.2 release

  ==> Input File <==

--------------------------------------------------------------------------
#psi4
#
memory 32 gb

molecule  {
0 1
  O        1.0008990     1.1197090    -0.0959030
  O       -1.6389080    -1.2036290    -0.1576800
  O       -1.2230690     1.6022640    -0.0675910
  C        0.8143200    -1.2427870    -0.1986520
  C       -0.4691847    -0.6471117     0.3993325
  C        1.7925350    -0.0950530     0.0479070
  C       -0.3121170     0.8099600     0.0626390
  H        0.6529500    -1.3959670    -1.2698370
  H        1.1362240    -2.1837260     0.2527190
  H       -0.4482060    -0.7692910     1.4955050
  H        2.2087130    -0.1135160     1.0603560
  H        2.6064290    -0.0309800    -0.6748690
  H       -2.2893650    -0.4737730    -0.1440310
units angstrom
no_reorient  #important for SAPT in psi4, default
symmetry c1  #important for SAPT in psi4, default
}

set PROPERTIES_ORIGIN ["COM"]
properties('MP2/aug-cc-pvtz', properties = ['dipole'])
--------------------------------------------------------------------------

    Molecular point group: c1
  Charge       = 0
  Multiplicity = 1
  Basis Set: AUG-CC-PVTZ
    Blend: AUG-CC-PVTZ
  Basis Set: (AUG-CC-PVTZ AUX)
    Blend: AUG-CC-PVTZ-JKFIT

    Orbital Energies [Eh]
    ---------------------

    Doubly Occupied:

       1A    -20.620643     2A    -20.582038     3A    -20.559837
       4A    -11.392551     5A    -11.318145     6A    -11.316730
       7A    -11.259379     8A     -1.470425     9A     -1.389385
      10A     -1.370993    11A     -1.090966    12A     -0.990284
      13A     -0.863650    14A     -0.797258    15A     -0.734905
      16A     -0.713264    17A     -0.689619    18A     -0.658461
      19A     -0.622586    20A     -0.604328    21A     -0.580645
      22A     -0.561853    23A     -0.535374    24A     -0.523325
      25A     -0.472589    26A     -0.468272    27A     -0.449680

  @DF-RHF Final Energy:  -379.70024136634015

   => Energetics <=

    Nuclear Repulsion Energy =            317.5668760928672327
    One-Electron Energy =               -1149.2598666825872442
    Two-Electron Energy =                 451.9927492233798603
    Total Energy =                       -379.7002413663401512
  Basis Set: (AUG-CC-PVTZ AUX)
    Blend: AUG-CC-PVTZ-RI
    Molecular point group: c1

    Geometry (in Angstrom), charge = 0, multiplicity = 1:

       Center              X                  Y                   Z               Mass
    ------------   -----------------  -----------------  -----------------  -----------------
         O            1.039751062028     1.068942810372    -0.089268229112    15.994914619570
         O           -1.600055937972    -1.254395189628    -0.151045229112    15.994914619570
         O           -1.184216937972     1.551497810372    -0.060956229112    15.994914619570
         C            0.853172062028    -1.293553189628    -0.192017229112    12.000000000000
         C           -0.430332637972    -0.697877889628     0.405967270888    12.000000000000
         C            1.831387062028    -0.145819189628     0.054541770888    12.000000000000
         C           -0.273264937972     0.759193810372     0.069273770888    12.000000000000
         H            0.691802062028    -1.446733189628    -1.263202229112     1.007825032230
         H            1.175076062028    -2.234492189628     0.259353770888     1.007825032230
         H           -0.409353937972    -0.820057189628     1.502139770888     1.007825032230
         H            2.247565062028    -0.164282189628     1.066990770888     1.007825032230
         H            2.645281062028    -0.081746189628    -0.668234229112     1.007825032230
         H           -2.250512937972    -0.524539189628    -0.137396229112     1.007825032230

  Basis Set: AUG-CC-PVTZ
    Blend: AUG-CC-PVTZ
  Basis Set: (AUG-CC-PVTZ AUX)
    Blend: AUG-CC-PVTZ-JKFIT
	 Reference Energy          =    -379.7002413663401512 [Eh]
	 Singles Energy            =      -0.0000000000000000 [Eh]
	 Same-Spin Energy          =      -0.3684219129595702 [Eh]
	 Opposite-Spin Energy      =      -1.1365753497633737 [Eh]
	 Correlation Energy        =      -1.5049972627229438 [Eh]
	 Total Energy              =    -381.2052386290631034 [Eh]

	 ================> DF-SCS-MP2 Energies <==================
	-----------------------------------------------------------
	 SCS Same-Spin Scale       =       0.3333333333333333 [-]
	 SCS Opposite-Spin Scale   =       1.2000000000000000 [-]
	 SCS Same-Spin Energy      =      -0.1228073043198567 [Eh]
	 SCS Opposite-Spin Energy  =      -1.3638904197160484 [Eh]
	 SCS Correlation Energy    =      -1.4866977240359052 [Eh]
	 SCS Total Energy          =    -381.1869390903760291 [Eh]
	-----------------------------------------------------------

  Dipole Moment: [D]
     X:     2.6730      Y:    -2.2976      Z:     0.9901     Total:     3.6612

*** Psi4 exiting successfully. Buy a developer a beer!
