                               Psi4 1.3.2 release

  ==> Input File <==

--------------------------------------------------------------------------
#psi4
#
memory 32 gb

molecule  {
0 1
  O        1.0008990     1.1197090    -0.0959030
  O       -1.6389080    -1.2036290    -0.1576800
  O       -1.2230690     1.6022640    -0.0675910
  C        0.8184169    -1.2513248    -0.1737205
  C       -0.4577570    -0.6687040     0.3963640
  C        1.7925350    -0.0950530     0.0479070
  C       -0.3121170     0.8099600     0.0626390
  H        0.6529500    -1.3959670    -1.2698370
  H        1.1362240    -2.1837260     0.2527190
  H       -0.4482060    -0.7692910     1.4955050
  H        2.2087130    -0.1135160     1.0603560
  H        2.6064290    -0.0309800    -0.6748690
  H       -2.2893650    -0.4737730    -0.1440310
units angstrom
no_reorient  #important for SAPT in psi4, default
symmetry c1  #important for SAPT in psi4, default
}

set PROPERTIES_ORIGIN ["COM"]
properties('MP2/aug-cc-pvtz', properties = ['dipole'])
--------------------------------------------------------------------------

    Molecular point group: c1
  Charge       = 0
  Multiplicity = 1
  Basis Set: AUG-CC-PVTZ
    Blend: AUG-CC-PVTZ
  Basis Set: (AUG-CC-PVTZ AUX)
    Blend: AUG-CC-PVTZ-JKFIT

    Orbital Energies [Eh]
    ---------------------

    Doubly Occupied:

       1A    -20.620974     2A    -20.581265     3A    -20.560301
       4A    -11.393178     5A    -11.318719     6A    -11.317397
       7A    -11.259367     8A     -1.469987     9A     -1.388524
      10A     -1.370950    11A     -1.094229    12A     -0.988346
      13A     -0.861934    14A     -0.798136    15A     -0.734253
      16A     -0.714643    17A     -0.689918    18A     -0.658128
      19A     -0.622402    20A     -0.602509    21A     -0.584829
      22A     -0.562888    23A     -0.533297    24A     -0.522795
      25A     -0.474284    26A     -0.468034    27A     -0.447716

  @DF-RHF Final Energy:  -379.69993102312350

   => Energetics <=

    Nuclear Repulsion Energy =            317.3991745061785537
    One-Electron Energy =               -1148.9202095102486965
    Two-Electron Energy =                 451.8211039809467024
    Total Energy =                       -379.6999310231234972
  Basis Set: (AUG-CC-PVTZ AUX)
    Blend: AUG-CC-PVTZ-RI
    Molecular point group: c1

    Geometry (in Angstrom), charge = 0, multiplicity = 1:

       Center              X                  Y                   Z               Mass
    ------------   -----------------  -----------------  -----------------  -----------------
         O            1.037925205839     1.072486426925    -0.091851308835    15.994914619570
         O           -1.601881794161    -1.250851573075    -0.153628308835    15.994914619570
         O           -1.186042794161     1.555041426925    -0.063539308835    15.994914619570
         C            0.855443105839    -1.298547373075    -0.169668808835    12.000000000000
         C           -0.420730794161    -0.715926573075     0.400415691165    12.000000000000
         C            1.829561205839    -0.142275573075     0.051958691165    12.000000000000
         C           -0.275090794161     0.762737426925     0.066690691165    12.000000000000
         H            0.689976205839    -1.443189573075    -1.265785308835     1.007825032230
         H            1.173250205839    -2.230948573075     0.256770691165     1.007825032230
         H           -0.411179794161    -0.816513573075     1.499556691165     1.007825032230
         H            2.245739205839    -0.160738573075     1.064407691165     1.007825032230
         H            2.643455205839    -0.078202573075    -0.670817308835     1.007825032230
         H           -2.252338794161    -0.520995573075    -0.139979308835     1.007825032230

  Basis Set: AUG-CC-PVTZ
    Blend: AUG-CC-PVTZ
  Basis Set: (AUG-CC-PVTZ AUX)
    Blend: AUG-CC-PVTZ-JKFIT
	 Reference Energy          =    -379.6999310231234972 [Eh]
	 Singles Energy            =      -0.0000000000000000 [Eh]
	 Same-Spin Energy          =      -0.3684667964056960 [Eh]
	 Opposite-Spin Energy      =      -1.1365422160816079 [Eh]
	 Correlation Energy        =      -1.5050090124873039 [Eh]
	 Total Energy              =    -381.2049400356107753 [Eh]

	 ================> DF-SCS-MP2 Energies <==================
	-----------------------------------------------------------
	 SCS Same-Spin Scale       =       0.3333333333333333 [-]
	 SCS Opposite-Spin Scale   =       1.2000000000000000 [-]
	 SCS Same-Spin Energy      =      -0.1228222654685653 [Eh]
	 SCS Opposite-Spin Energy  =      -1.3638506592979294 [Eh]
	 SCS Correlation Energy    =      -1.4866729247664947 [Eh]
	 SCS Total Energy          =    -381.1866039478899779 [Eh]
	-----------------------------------------------------------

  Dipole Moment: [D]
     X:     2.6979      Y:    -2.2937      Z:     0.9900     Total:     3.6769

*** Psi4 exiting successfully. Buy a developer a beer!
