                               Psi4 1.3.2 release

  ==> Input File <==

--------------------------------------------------------------------------
#psi4
#
memory 32 gb

molecule  {
0 1
  O        0.9714611     1.0740789    -0.2384214
  O       -1.6389080    -1.2036290    -0.1576800
  O       -1.2230690     1.6022640    -0.0675910
  C        0.8143200    -1.2427870    -0.1986520
  C       -0.4577570    -0.6687040     0.3963640
  C        1.7925350    -0.0950530     0.0479070
  C       -0.3121170     0.8099600     0.0626390
  H        0.6529500    -1.3959670    -1.2698370
  H        1.1362240    -2.1837260     0.2527190
  H       -0.4482060    -0.7692910     1.4955050
  H        2.2087130    -0.1135160     1.0603560
  H        2.6064290    -0.0309800    -0.6748690
  H       -2.2893650    -0.4737730    -0.1440310
units angstrom
no_reorient  #important for SAPT in psi4, default
symmetry c1  #important for SAPT in psi4, default
}

set PROPERTIES_ORIGIN ["COM"]
properties('MP2/aug-cc-pvtz', properties = ['dipole'])
--------------------------------------------------------------------------

    Molecular point group: c1
  Charge       = 0
  Multiplicity = 1
  Basis Set: AUG-CC-PVTZ
    Blend: AUG-CC-PVTZ
  Basis Set: (AUG-CC-PVTZ AUX)
    Blend: AUG-CC-PVTZ-JKFIT

    Orbital Energies [Eh]
    ---------------------

    Doubly Occupied:

       1A    -20.621255     2A    -20.580739     3A    -20.557985
       4A    -11.390738     5A    -11.318888     6A    -11.316976
       7A    -11.257177     8A     -1.475075     9A     -1.388188
      10A     -1.370296    11A     -1.092402    12A     -0.990146
      13A     -0.862337    14A     -0.797545    15A     -0.741079
      16A     -0.712334    17A     -0.690498    18A     -0.653076
      19A     -0.623832    20A     -0.606148    21A     -0.581378
      22A     -0.559379    23A     -0.532406    24A     -0.525532
      25A     -0.474553    26A     -0.469126    27A     -0.445164

  @DF-RHF Final Energy:  -379.69840963712016

   => Energetics <=

    Nuclear Repulsion Energy =            318.2224747370837576
    One-Electron Energy =               -1150.5732667017439326
    Two-Electron Energy =                 452.6523823275400105
    Total Energy =                       -379.6984096371201645
  Basis Set: (AUG-CC-PVTZ AUX)
    Blend: AUG-CC-PVTZ-RI
    Molecular point group: c1

    Geometry (in Angstrom), charge = 0, multiplicity = 1:

       Center              X                  Y                   Z               Mass
    ------------   -----------------  -----------------  -----------------  -----------------
         O            1.013583952542     1.033005356983    -0.209095722515    15.994914619570
         O           -1.596785147458    -1.244702543017    -0.128354322515    15.994914619570
         O           -1.180946147458     1.561190456983    -0.038265322515    15.994914619570
         C            0.856442852542    -1.283860543017    -0.169326322515    12.000000000000
         C           -0.415634147458    -0.709777543017     0.425689677485    12.000000000000
         C            1.834657852542    -0.136126543017     0.077232677485    12.000000000000
         C           -0.269994147458     0.768886456983     0.091964677485    12.000000000000
         H            0.695072852542    -1.437040543017    -1.240511322515     1.007825032230
         H            1.178346852542    -2.224799543017     0.282044677485     1.007825032230
         H           -0.406083147458    -0.810364543017     1.524830677485     1.007825032230
         H            2.250835852542    -0.154589543017     1.089681677485     1.007825032230
         H            2.648551852542    -0.072053543017    -0.645543322515     1.007825032230
         H           -2.247242147458    -0.514846543017    -0.114705322515     1.007825032230

  Basis Set: AUG-CC-PVTZ
    Blend: AUG-CC-PVTZ
  Basis Set: (AUG-CC-PVTZ AUX)
    Blend: AUG-CC-PVTZ-JKFIT
	 Reference Energy          =    -379.6984096371201645 [Eh]
	 Singles Energy            =      -0.0000000000000000 [Eh]
	 Same-Spin Energy          =      -0.3684588193003884 [Eh]
	 Opposite-Spin Energy      =      -1.1361629797436024 [Eh]
	 Correlation Energy        =      -1.5046217990439907 [Eh]
	 Total Energy              =    -381.2030314361641672 [Eh]

	 ================> DF-SCS-MP2 Energies <==================
	-----------------------------------------------------------
	 SCS Same-Spin Scale       =       0.3333333333333333 [-]
	 SCS Opposite-Spin Scale   =       1.2000000000000000 [-]
	 SCS Same-Spin Energy      =      -0.1228196064334628 [Eh]
	 SCS Opposite-Spin Energy  =      -1.3633955756923228 [Eh]
	 SCS Correlation Energy    =      -1.4862151821257856 [Eh]
	 SCS Total Energy          =    -381.1846248192459257 [Eh]
	-----------------------------------------------------------

  Dipole Moment: [D]
     X:     2.8034      Y:    -2.2182      Z:     1.1350     Total:     3.7507

*** Psi4 exiting successfully. Buy a developer a beer!
