                               Psi4 1.3.2 release

  ==> Input File <==

--------------------------------------------------------------------------
#psi4
#
memory 32 gb

molecule  {
0 1
  O        1.0008990     1.1197090    -0.0959030
  O       -1.6389080    -1.2036290    -0.1576800
  O       -1.2230690     1.6022640    -0.0675910
  C        0.8143200    -1.2427870    -0.1986520
  C       -0.5192876    -0.6754328     0.2501188
  C        1.7925350    -0.0950530     0.0479070
  C       -0.3121170     0.8099600     0.0626390
  H        0.6529500    -1.3959670    -1.2698370
  H        1.1362240    -2.1837260     0.2527190
  H       -0.4482060    -0.7692910     1.4955050
  H        2.2087130    -0.1135160     1.0603560
  H        2.6064290    -0.0309800    -0.6748690
  H       -2.2893650    -0.4737730    -0.1440310
units angstrom
no_reorient  #important for SAPT in psi4, default
symmetry c1  #important for SAPT in psi4, default
}

set PROPERTIES_ORIGIN ["COM"]
properties('MP2/aug-cc-pvtz', properties = ['dipole'])
--------------------------------------------------------------------------

    Molecular point group: c1
  Charge       = 0
  Multiplicity = 1
  Basis Set: AUG-CC-PVTZ
    Blend: AUG-CC-PVTZ
  Basis Set: (AUG-CC-PVTZ AUX)
    Blend: AUG-CC-PVTZ-JKFIT

    Orbital Energies [Eh]
    ---------------------

    Doubly Occupied:

       1A    -20.621002     2A    -20.594736     3A    -20.557225
       4A    -11.391414     5A    -11.327475     6A    -11.317259
       7A    -11.257992     8A     -1.472328     9A     -1.435942
      10A     -1.373483    11A     -1.090575    12A     -0.985947
      13A     -0.861185    14A     -0.814613    15A     -0.737186
      16A     -0.720675    17A     -0.692181    18A     -0.653810
      19A     -0.637229    20A     -0.604370    21A     -0.599329
      22A     -0.566023    23A     -0.538664    24A     -0.527548
      25A     -0.468438    26A     -0.453545    27A     -0.428269

  @DF-RHF Final Energy:  -379.67913581651533

   => Energetics <=

    Nuclear Repulsion Energy =            318.6988575228292575
    One-Electron Energy =               -1151.2991009861891598
    Two-Electron Energy =                 452.9211076468445754
    Total Energy =                       -379.6791358165153270
  Basis Set: (AUG-CC-PVTZ AUX)
    Blend: AUG-CC-PVTZ-RI
    Molecular point group: c1

    Geometry (in Angstrom), charge = 0, multiplicity = 1:

       Center              X                  Y                   Z               Mass
    ------------   -----------------  -----------------  -----------------  -----------------
         O            1.045643689859     1.072273669505    -0.071719129132    15.994914619570
         O           -1.594163310141    -1.251064330495    -0.133496129132    15.994914619570
         O           -1.178324310141     1.554828669505    -0.043407129132    15.994914619570
         C            0.859064689859    -1.290222330495    -0.174468129132    12.000000000000
         C           -0.474542910141    -0.722868130495     0.274302670868    12.000000000000
         C            1.837279689859    -0.142488330495     0.072090870868    12.000000000000
         C           -0.267372310141     0.762524669505     0.086822870868    12.000000000000
         H            0.697694689859    -1.443402330495    -1.245653129132     1.007825032230
         H            1.180968689859    -2.231161330495     0.276902870868     1.007825032230
         H           -0.403461310141    -0.816726330495     1.519688870868     1.007825032230
         H            2.253457689859    -0.160951330495     1.084539870868     1.007825032230
         H            2.651173689859    -0.078415330495    -0.650685129132     1.007825032230
         H           -2.244620310141    -0.521208330495    -0.119847129132     1.007825032230

  Basis Set: AUG-CC-PVTZ
    Blend: AUG-CC-PVTZ
  Basis Set: (AUG-CC-PVTZ AUX)
    Blend: AUG-CC-PVTZ-JKFIT
	 Reference Energy          =    -379.6791358165153270 [Eh]
	 Singles Energy            =      -0.0000000000000000 [Eh]
	 Same-Spin Energy          =      -0.3690073760574795 [Eh]
	 Opposite-Spin Energy      =      -1.1359669481979782 [Eh]
	 Correlation Energy        =      -1.5049743242554576 [Eh]
	 Total Energy              =    -381.1841101407707697 [Eh]

	 ================> DF-SCS-MP2 Energies <==================
	-----------------------------------------------------------
	 SCS Same-Spin Scale       =       0.3333333333333333 [-]
	 SCS Opposite-Spin Scale   =       1.2000000000000000 [-]
	 SCS Same-Spin Energy      =      -0.1230024586858265 [Eh]
	 SCS Opposite-Spin Energy  =      -1.3631603378375738 [Eh]
	 SCS Correlation Energy    =      -1.4861627965234003 [Eh]
	 SCS Total Energy          =    -381.1652986130387148 [Eh]
	-----------------------------------------------------------

  Dipole Moment: [D]
     X:     2.3547      Y:    -2.4524      Z:     0.5838     Total:     3.4496

*** Psi4 exiting successfully. Buy a developer a beer!
