                               Psi4 1.3.2 release

  ==> Input File <==

--------------------------------------------------------------------------
#psi4
#
memory 32 gb

molecule  {
0 1
  O        1.0008990     1.1197090    -0.0959030
  O       -1.6389080    -1.2036290    -0.1576800
  O       -1.2230690     1.6022640    -0.0675910
  C        0.8433245    -1.2886826    -0.0482028
  C       -0.4577570    -0.6687040     0.3963640
  C        1.7925350    -0.0950530     0.0479070
  C       -0.3121170     0.8099600     0.0626390
  H        0.6529500    -1.3959670    -1.2698370
  H        1.1362240    -2.1837260     0.2527190
  H       -0.4482060    -0.7692910     1.4955050
  H        2.2087130    -0.1135160     1.0603560
  H        2.6064290    -0.0309800    -0.6748690
  H       -2.2893650    -0.4737730    -0.1440310
units angstrom
no_reorient  #important for SAPT in psi4, default
symmetry c1  #important for SAPT in psi4, default
}

set PROPERTIES_ORIGIN ["COM"]
properties('MP2/aug-cc-pvtz', properties = ['dipole'])
--------------------------------------------------------------------------

    Molecular point group: c1
  Charge       = 0
  Multiplicity = 1
  Basis Set: AUG-CC-PVTZ
    Blend: AUG-CC-PVTZ
  Basis Set: (AUG-CC-PVTZ AUX)
    Blend: AUG-CC-PVTZ-JKFIT

    Orbital Energies [Eh]
    ---------------------

    Doubly Occupied:

       1A    -20.624342     2A    -20.582769     3A    -20.562170
       4A    -11.396241     5A    -11.321309     6A    -11.319781
       7A    -11.264647     8A     -1.471627     9A     -1.389694
      10A     -1.372383    11A     -1.097940    12A     -0.990028
      13A     -0.866572    14A     -0.801515    15A     -0.732271
      16A     -0.717416    17A     -0.699252    18A     -0.657476
      19A     -0.628098    20A     -0.599663    21A     -0.592542
      22A     -0.570864    23A     -0.536202    24A     -0.504602
      25A     -0.469971    26A     -0.460762    27A     -0.449514

  @DF-RHF Final Energy:  -379.67277439808157

   => Energetics <=

    Nuclear Repulsion Energy =            317.0069217569068769
    One-Electron Energy =               -1148.0000912192303986
    Two-Electron Energy =                 451.3203950642419500
    Total Energy =                       -379.6727743980815717
  Basis Set: (AUG-CC-PVTZ AUX)
    Blend: AUG-CC-PVTZ-RI
    Molecular point group: c1

    Geometry (in Angstrom), charge = 0, multiplicity = 1:

       Center              X                  Y                   Z               Mass
    ------------   -----------------  -----------------  -----------------  -----------------
         O            1.034995810196     1.076880096992    -0.106613510070    15.994914619570
         O           -1.604811189804    -1.246457903008    -0.168390510070    15.994914619570
         O           -1.188972189804     1.559435096992    -0.078301510070    15.994914619570
         C            0.877421310196    -1.331511503008    -0.058913310070    12.000000000000
         C           -0.423660189804    -0.711532903008     0.385653489930    12.000000000000
         C            1.826631810196    -0.137881903008     0.037196489930    12.000000000000
         C           -0.278020189804     0.767131096992     0.051928489930    12.000000000000
         H            0.687046810196    -1.438795903008    -1.280547510070     1.007825032230
         H            1.170320810196    -2.226554903008     0.242008489930     1.007825032230
         H           -0.414109189804    -0.812119903008     1.484794489930     1.007825032230
         H            2.242809810196    -0.156344903008     1.049645489930     1.007825032230
         H            2.640525810196    -0.073808903008    -0.685579510070     1.007825032230
         H           -2.255268189804    -0.516601903008    -0.154741510070     1.007825032230

  Basis Set: AUG-CC-PVTZ
    Blend: AUG-CC-PVTZ
  Basis Set: (AUG-CC-PVTZ AUX)
    Blend: AUG-CC-PVTZ-JKFIT
	 Reference Energy          =    -379.6727743980815717 [Eh]
	 Singles Energy            =      -0.0000000000000000 [Eh]
	 Same-Spin Energy          =      -0.3690590512705872 [Eh]
	 Opposite-Spin Energy      =      -1.1381819685425942 [Eh]
	 Correlation Energy        =      -1.5072410198131814 [Eh]
	 Total Energy              =    -381.1800154178947651 [Eh]

	 ================> DF-SCS-MP2 Energies <==================
	-----------------------------------------------------------
	 SCS Same-Spin Scale       =       0.3333333333333333 [-]
	 SCS Opposite-Spin Scale   =       1.2000000000000000 [-]
	 SCS Same-Spin Energy      =      -0.1230196837568624 [Eh]
	 SCS Opposite-Spin Energy  =      -1.3658183622511131 [Eh]
	 SCS Correlation Energy    =      -1.4888380460079755 [Eh]
	 SCS Total Energy          =    -381.1616124440895419 [Eh]
	-----------------------------------------------------------

  Dipole Moment: [D]
     X:     2.6948      Y:    -2.2804      Z:     1.0625     Total:     3.6866

*** Psi4 exiting successfully. Buy a developer a beer!
