                               Psi4 1.3.2 release

  ==> Input File <==

--------------------------------------------------------------------------
#psi4
#
memory 32 gb

molecule  {
0 1
  O        1.0008990     1.1197090    -0.0959030
  O       -1.6389080    -1.2036290    -0.1576800
  O       -1.2230690     1.6022640    -0.0675910
  C        0.7645445    -1.3845157    -0.1471319
  C       -0.4577570    -0.6687040     0.3963640
  C        1.7925350    -0.0950530     0.0479070
  C       -0.3121170     0.8099600     0.0626390
  H        0.6529500    -1.3959670    -1.2698370
  H        1.1362240    -2.1837260     0.2527190
  H       -0.4482060    -0.7692910     1.4955050
  H        2.2087130    -0.1135160     1.0603560
  H        2.6064290    -0.0309800    -0.6748690
  H       -2.2893650    -0.4737730    -0.1440310
units angstrom
no_reorient  #important for SAPT in psi4, default
symmetry c1  #important for SAPT in psi4, default
}

set PROPERTIES_ORIGIN ["COM"]
properties('MP2/aug-cc-pvtz', properties = ['dipole'])
--------------------------------------------------------------------------

    Molecular point group: c1
  Charge       = 0
  Multiplicity = 1
  Basis Set: AUG-CC-PVTZ
    Blend: AUG-CC-PVTZ
  Basis Set: (AUG-CC-PVTZ AUX)
    Blend: AUG-CC-PVTZ-JKFIT

    Orbital Energies [Eh]
    ---------------------

    Doubly Occupied:

       1A    -20.623286     2A    -20.578882     3A    -20.562748
       4A    -11.396428     5A    -11.320768     6A    -11.320741
       7A    -11.260290     8A     -1.469435     9A     -1.388281
      10A     -1.371419    11A     -1.082820    12A     -0.980351
      13A     -0.876187    14A     -0.795515    15A     -0.732749
      16A     -0.715095    17A     -0.695111    18A     -0.656000
      19A     -0.622262    20A     -0.605792    21A     -0.597708
      22A     -0.563877    23A     -0.527010    24A     -0.504537
      25A     -0.474169    26A     -0.461491    27A     -0.450991

  @DF-RHF Final Energy:  -379.67379865740321

   => Energetics <=

    Nuclear Repulsion Energy =            315.7291358207975236
    One-Electron Energy =               -1145.5379772736966970
    Two-Electron Energy =                 450.1350427954959628
    Total Energy =                       -379.6737986574032107
  Basis Set: (AUG-CC-PVTZ AUX)
    Blend: AUG-CC-PVTZ-RI
    Molecular point group: c1

    Geometry (in Angstrom), charge = 0, multiplicity = 1:

       Center              X                  Y                   Z               Mass
    ------------   -----------------  -----------------  -----------------  -----------------
         O            1.044261166503     1.088151077158    -0.094978407752    15.994914619570
         O           -1.595545833497    -1.235186922842    -0.156755407752    15.994914619570
         O           -1.179706833497     1.570706077158    -0.066666407752    15.994914619570
         C            0.807906666503    -1.416073622842    -0.146207307752    12.000000000000
         C           -0.414394833497    -0.700261922842     0.397288592248    12.000000000000
         C            1.835897166503    -0.126610922842     0.048831592248    12.000000000000
         C           -0.268754833497     0.778402077158     0.063563592248    12.000000000000
         H            0.696312166503    -1.427524922842    -1.268912407752     1.007825032230
         H            1.179586166503    -2.215283922842     0.253643592248     1.007825032230
         H           -0.404843833497    -0.800848922842     1.496429592248     1.007825032230
         H            2.252075166503    -0.145073922842     1.061280592248     1.007825032230
         H            2.649791166503    -0.062537922842    -0.673944407752     1.007825032230
         H           -2.246002833497    -0.505330922842    -0.143106407752     1.007825032230

  Basis Set: AUG-CC-PVTZ
    Blend: AUG-CC-PVTZ
  Basis Set: (AUG-CC-PVTZ AUX)
    Blend: AUG-CC-PVTZ-JKFIT
	 Reference Energy          =    -379.6737986574032107 [Eh]
	 Singles Energy            =      -0.0000000000000000 [Eh]
	 Same-Spin Energy          =      -0.3686822803026132 [Eh]
	 Opposite-Spin Energy      =      -1.1381823209305109 [Eh]
	 Correlation Energy        =      -1.5068646012331239 [Eh]
	 Total Energy              =    -381.1806632586363435 [Eh]

	 ================> DF-SCS-MP2 Energies <==================
	-----------------------------------------------------------
	 SCS Same-Spin Scale       =       0.3333333333333333 [-]
	 SCS Opposite-Spin Scale   =       1.2000000000000000 [-]
	 SCS Same-Spin Energy      =      -0.1228940934342044 [Eh]
	 SCS Opposite-Spin Energy  =      -1.3658187851166130 [Eh]
	 SCS Correlation Energy    =      -1.4887128785508175 [Eh]
	 SCS Total Energy          =    -381.1625115359540246 [Eh]
	-----------------------------------------------------------

  Dipole Moment: [D]
     X:     2.6928      Y:    -2.2436      Z:     1.0078     Total:     3.6470

*** Psi4 exiting successfully. Buy a developer a beer!
