                               Psi4 1.4a3.dev225

  ==> Input File <==

--------------------------------------------------------------------------
#psi4
#
memory 32 gb

molecule  {
0 1
  O        1.0008990     1.1197090    -0.0959030
  O       -1.6389080    -1.2036290    -0.1576800
  O       -1.2230690     1.6022640    -0.0675910
  C        0.8143200    -1.2427870    -0.1986520
  C       -0.4577570    -0.6687040     0.3963640
  C        1.7925350    -0.0950530     0.0479070
  C       -0.3314496     0.8053993     0.0649733
  H        0.6529500    -1.3959670    -1.2698370
  H        1.1362240    -2.1837260     0.2527190
  H       -0.4482060    -0.7692910     1.4955050
  H        2.2087130    -0.1135160     1.0603560
  H        2.6064290    -0.0309800    -0.6748690
  H       -2.2893650    -0.4737730    -0.1440310
units angstrom
no_reorient  #important for SAPT in psi4, default
symmetry c1  #important for SAPT in psi4, default
}

set PROPERTIES_ORIGIN ["COM"]
properties('MP2/aug-cc-pvtz', properties = ['dipole'])
--------------------------------------------------------------------------

    Molecular point group: c1
  Charge       = 0
  Multiplicity = 1
  Basis Set: AUG-CC-PVTZ
    Blend: AUG-CC-PVTZ
  Basis Set: (AUG-CC-PVTZ AUX)
    Blend: AUG-CC-PVTZ-JKFIT

    Orbital Energies [Eh]
    ---------------------

    Doubly Occupied:

       1A    -20.615467     2A    -20.581687     3A    -20.563905
       4A    -11.392681     5A    -11.318962     6A    -11.314741
       7A    -11.258452     8A     -1.465433     9A     -1.388591
      10A     -1.375598    11A     -1.092188    12A     -0.986794
      13A     -0.861319    14A     -0.796096    15A     -0.732422
      16A     -0.714428    17A     -0.688568    18A     -0.656641
      19A     -0.624380    20A     -0.604431    21A     -0.581063
      22A     -0.561040    23A     -0.535335    24A     -0.524208
      25A     -0.475581    26A     -0.468949    27A     -0.448516

  @DF-RHF Final Energy:  -379.70055744156696

   => Energetics <=

    Nuclear Repulsion Energy =            317.4271579803472605
    One-Electron Energy =               -1149.0004792066383743
    Two-Electron Energy =                 451.8727637847241567
    Total Energy =                       -379.7005574415669571
  Basis Set: (AUG-CC-PVTZ AUX)
    Blend: AUG-CC-PVTZ-RI
    Molecular point group: c1

    Geometry (in Angstrom), charge = 0, multiplicity = 1:

       Center              X                  Y                   Z               Mass
    ------------   -----------------  -----------------  -----------------  -----------------
         O            1.040680761381     1.072018678149    -0.089193640524    15.994914619570
         O           -1.599126238619    -1.251319321851    -0.150970640524    15.994914619570
         O           -1.183287238619     1.554573678149    -0.060881640524    15.994914619570
         C            0.854101761381    -1.290477321851    -0.191942640524    12.000000000000
         C           -0.417975238619    -0.716394321851     0.403073359476    12.000000000000
         C            1.832316761381    -0.142743321851     0.054616359476    12.000000000000
         C           -0.291667838619     0.757708978149     0.071682659476    12.000000000000
         H            0.692731761381    -1.443657321851    -1.263127640524     1.007825032230
         H            1.176005761381    -2.231416321851     0.259428359476     1.007825032230
         H           -0.408424238619    -0.816981321851     1.502214359476     1.007825032230
         H            2.248494761381    -0.161206321851     1.067065359476     1.007825032230
         H            2.646210761381    -0.078670321851    -0.668159640524     1.007825032230
         H           -2.249583238619    -0.521463321851    -0.137321640524     1.007825032230

  Basis Set: AUG-CC-PVTZ
    Blend: AUG-CC-PVTZ
  Basis Set: (AUG-CC-PVTZ AUX)
    Blend: AUG-CC-PVTZ-JKFIT
	 Reference Energy          =    -379.7005574415669571 [Eh]
	 Singles Energy            =      -0.0000000000000000 [Eh]
	 Same-Spin Energy          =      -0.3683829961358412 [Eh]
	 Opposite-Spin Energy      =      -1.1364668650883232 [Eh]
	 Correlation Energy        =      -1.5048498612241645 [Eh]
	 Total Energy              =    -381.2054073027911159 [Eh]

	 ================> DF-SCS-MP2 Energies <==================
	-----------------------------------------------------------
	 SCS Same-Spin Scale       =       0.3333333333333333 [-]
	 SCS Opposite-Spin Scale   =       1.2000000000000000 [-]
	 SCS Same-Spin Energy      =      -0.1227943320452804 [Eh]
	 SCS Opposite-Spin Energy  =      -1.3637602381059877 [Eh]
	 SCS Correlation Energy    =      -1.4865545701512681 [Eh]
	 SCS Total Energy          =    -381.1871120117182272 [Eh]
	-----------------------------------------------------------

  Dipole Moment: [D]
     X:     2.5247      Y:    -2.2736      Z:     0.9903     Total:     3.5389

*** Psi4 exiting successfully. Buy a developer a beer!
