                               Psi4 1.3.2 release

  ==> Input File <==

--------------------------------------------------------------------------
#psi4
#
memory 32 gb

molecule  {
0 1
  O        0.9802881     1.0907398    -0.1911873
  O       -1.6389080    -1.2036290    -0.1576800
  O       -1.2230690     1.6022640    -0.0675910
  C        0.8143200    -1.2427870    -0.1986520
  C       -0.4577570    -0.6687040     0.3963640
  C        1.7925350    -0.0950530     0.0479070
  C       -0.3121170     0.8099600     0.0626390
  H        0.6529500    -1.3959670    -1.2698370
  H        1.1362240    -2.1837260     0.2527190
  H       -0.4482060    -0.7692910     1.4955050
  H        2.2087130    -0.1135160     1.0603560
  H        2.6064290    -0.0309800    -0.6748690
  H       -2.2893650    -0.4737730    -0.1440310
units angstrom
no_reorient  #important for SAPT in psi4, default
symmetry c1  #important for SAPT in psi4, default
}

set PROPERTIES_ORIGIN ["COM"]
properties('MP2/aug-cc-pvtz', properties = ['dipole'])
--------------------------------------------------------------------------

    Molecular point group: c1
  Charge       = 0
  Multiplicity = 1
  Basis Set: AUG-CC-PVTZ
    Blend: AUG-CC-PVTZ
  Basis Set: (AUG-CC-PVTZ AUX)
    Blend: AUG-CC-PVTZ-JKFIT

    Orbital Energies [Eh]
    ---------------------

    Doubly Occupied:

       1A    -20.621185     2A    -20.580753     3A    -20.558059
       4A    -11.391046     5A    -11.318570     6A    -11.317421
       7A    -11.257841     8A     -1.474058     9A     -1.388236
      10A     -1.370207    11A     -1.092952    12A     -0.989727
      13A     -0.862549    14A     -0.797550    15A     -0.739205
      16A     -0.712995    17A     -0.689961    18A     -0.655176
      19A     -0.622953    20A     -0.606177    21A     -0.581807
      22A     -0.559650    23A     -0.533520    24A     -0.524800
      25A     -0.474676    26A     -0.468845    27A     -0.445627

  @DF-RHF Final Energy:  -379.70009555155633

   => Energetics <=

    Nuclear Repulsion Energy =            318.0177098086264209
    One-Electron Energy =               -1150.1645245421202617
    Two-Electron Energy =                 452.4467191819374534
    Total Energy =                       -379.7000955515563305
  Basis Set: (AUG-CC-PVTZ AUX)
    Blend: AUG-CC-PVTZ-RI
    Molecular point group: c1

    Geometry (in Angstrom), charge = 0, multiplicity = 1:

       Center              X                  Y                   Z               Mass
    ------------   -----------------  -----------------  -----------------  -----------------
         O            1.021027195145     1.047054424695    -0.169266237361    15.994914619570
         O           -1.598168904855    -1.247314375305    -0.135758937361    15.994914619570
         O           -1.182329904855     1.558578624695    -0.045669937361    15.994914619570
         C            0.855059095145    -1.286472375305    -0.176730937361    12.000000000000
         C           -0.417017904855    -0.712389375305     0.418285062639    12.000000000000
         C            1.833274095145    -0.138738375305     0.069828062639    12.000000000000
         C           -0.271377904855     0.766274624695     0.084560062639    12.000000000000
         H            0.693689095145    -1.439652375305    -1.247915937361     1.007825032230
         H            1.176963095145    -2.227411375305     0.274640062639     1.007825032230
         H           -0.407466904855    -0.812976375305     1.517426062639     1.007825032230
         H            2.249452095145    -0.157201375305     1.082277062639     1.007825032230
         H            2.647168095145    -0.074665375305    -0.652947937361     1.007825032230
         H           -2.248625904855    -0.517458375305    -0.122109937361     1.007825032230

  Basis Set: AUG-CC-PVTZ
    Blend: AUG-CC-PVTZ
  Basis Set: (AUG-CC-PVTZ AUX)
    Blend: AUG-CC-PVTZ-JKFIT
	 Reference Energy          =    -379.7000955515563305 [Eh]
	 Singles Energy            =      -0.0000000000000000 [Eh]
	 Same-Spin Energy          =      -0.3683887839583491 [Eh]
	 Opposite-Spin Energy      =      -1.1360905622923205 [Eh]
	 Correlation Energy        =      -1.5044793462506696 [Eh]
	 Total Energy              =    -381.2045748978069923 [Eh]

	 ================> DF-SCS-MP2 Energies <==================
	-----------------------------------------------------------
	 SCS Same-Spin Scale       =       0.3333333333333333 [-]
	 SCS Opposite-Spin Scale   =       1.2000000000000000 [-]
	 SCS Same-Spin Energy      =      -0.1227962613194497 [Eh]
	 SCS Opposite-Spin Energy  =      -1.3633086747507845 [Eh]
	 SCS Correlation Energy    =      -1.4861049360702343 [Eh]
	 SCS Total Energy          =    -381.1862004876265928 [Eh]
	-----------------------------------------------------------

  Dipole Moment: [D]
     X:     2.7851      Y:    -2.2492      Z:     1.0843     Total:     3.7405

*** Psi4 exiting successfully. Buy a developer a beer!
