                               Psi4 1.3.2 release

  ==> Input File <==

--------------------------------------------------------------------------
#psi4
#
memory 32 gb

molecule  {
0 1
  O        1.0065877     1.0972423    -0.0909114
  O       -1.6389080    -1.2036290    -0.1576800
  O       -1.2230690     1.6022640    -0.0675910
  C        0.8143200    -1.2427870    -0.1986520
  C       -0.4577570    -0.6687040     0.3963640
  C        1.7925350    -0.0950530     0.0479070
  C       -0.3121170     0.8099600     0.0626390
  H        0.6529500    -1.3959670    -1.2698370
  H        1.1362240    -2.1837260     0.2527190
  H       -0.4482060    -0.7692910     1.4955050
  H        2.2087130    -0.1135160     1.0603560
  H        2.6064290    -0.0309800    -0.6748690
  H       -2.2893650    -0.4737730    -0.1440310
units angstrom
no_reorient  #important for SAPT in psi4, default
symmetry c1  #important for SAPT in psi4, default
}

set PROPERTIES_ORIGIN ["COM"]
properties('MP2/aug-cc-pvtz', properties = ['dipole'])
--------------------------------------------------------------------------

    Molecular point group: c1
  Charge       = 0
  Multiplicity = 1
  Basis Set: AUG-CC-PVTZ
    Blend: AUG-CC-PVTZ
  Basis Set: (AUG-CC-PVTZ AUX)
    Blend: AUG-CC-PVTZ-JKFIT

    Orbital Energies [Eh]
    ---------------------

    Doubly Occupied:

       1A    -20.620418     2A    -20.580647     3A    -20.561896
       4A    -11.394198     5A    -11.317687     6A    -11.315231
       7A    -11.257652     8A     -1.473915     9A     -1.389834
      10A     -1.372913    11A     -1.091855    12A     -0.991361
      13A     -0.862351    14A     -0.798233    15A     -0.736290
      16A     -0.715264    17A     -0.689467    18A     -0.660796
      19A     -0.624951    20A     -0.604045    21A     -0.583057
      22A     -0.559900    23A     -0.534384    24A     -0.523400
      25A     -0.474659    26A     -0.468315    27A     -0.446886

  @DF-RHF Final Energy:  -379.70126086447408

   => Energetics <=

    Nuclear Repulsion Energy =            317.9237095862523006
    One-Electron Energy =               -1149.9507269325576999
    Two-Electron Energy =                 452.3257564818313767
    Total Energy =                       -379.7012608644740794
  Basis Set: (AUG-CC-PVTZ AUX)
    Blend: AUG-CC-PVTZ-RI
    Molecular point group: c1

    Geometry (in Angstrom), charge = 0, multiplicity = 1:

       Center              X                  Y                   Z               Mass
    ------------   -----------------  -----------------  -----------------  -----------------
         O            1.043203959977     1.052537565629    -0.084710006370    15.994914619570
         O           -1.602291740023    -1.248333734371    -0.151478606370    15.994914619570
         O           -1.186452740023     1.557559265629    -0.061389606370    15.994914619570
         C            0.850936259977    -1.287491734371    -0.192450606370    12.000000000000
         C           -0.421140740023    -0.713408734371     0.402565393630    12.000000000000
         C            1.829151259977    -0.139757734371     0.054108393630    12.000000000000
         C           -0.275500740023     0.765255265629     0.068840393630    12.000000000000
         H            0.689566259977    -1.440671734371    -1.263635606370     1.007825032230
         H            1.172840259977    -2.228430734371     0.258920393630     1.007825032230
         H           -0.411589740023    -0.813995734371     1.501706393630     1.007825032230
         H            2.245329259977    -0.158220734371     1.066557393630     1.007825032230
         H            2.643045259977    -0.075684734371    -0.668667606370     1.007825032230
         H           -2.252748740023    -0.518477734371    -0.137829606370     1.007825032230

  Basis Set: AUG-CC-PVTZ
    Blend: AUG-CC-PVTZ
  Basis Set: (AUG-CC-PVTZ AUX)
    Blend: AUG-CC-PVTZ-JKFIT
	 Reference Energy          =    -379.7012608644740794 [Eh]
	 Singles Energy            =      -0.0000000000000000 [Eh]
	 Same-Spin Energy          =      -0.3683597446452452 [Eh]
	 Opposite-Spin Energy      =      -1.1359361499246252 [Eh]
	 Correlation Energy        =      -1.5042958945698706 [Eh]
	 Total Energy              =    -381.2055567590439296 [Eh]

	 ================> DF-SCS-MP2 Energies <==================
	-----------------------------------------------------------
	 SCS Same-Spin Scale       =       0.3333333333333333 [-]
	 SCS Opposite-Spin Scale   =       1.2000000000000000 [-]
	 SCS Same-Spin Energy      =      -0.1227865815484151 [Eh]
	 SCS Opposite-Spin Energy  =      -1.3631233799095501 [Eh]
	 SCS Correlation Energy    =      -1.4859099614579652 [Eh]
	 SCS Total Energy          =    -381.1871708259320712 [Eh]
	-----------------------------------------------------------

  Dipole Moment: [D]
     X:     2.6638      Y:    -2.2136      Z:     0.9685     Total:     3.5964

*** Psi4 exiting successfully. Buy a developer a beer!
