                               Psi4 1.3.2 release

  ==> Input File <==

--------------------------------------------------------------------------
#psi4
#
memory 32 gb

molecule  {
0 1
  O        1.0008990     1.1197090    -0.0959030
  O       -1.7129387    -1.1149644    -0.0658024
  O       -1.2230690     1.6022640    -0.0675910
  C        0.8143200    -1.2427870    -0.1986520
  C       -0.4577570    -0.6687040     0.3963640
  C        1.7925350    -0.0950530     0.0479070
  C       -0.3121170     0.8099600     0.0626390
  H        0.6529500    -1.3959670    -1.2698370
  H        1.1362240    -2.1837260     0.2527190
  H       -0.4482060    -0.7692910     1.4955050
  H        2.2087130    -0.1135160     1.0603560
  H        2.6064290    -0.0309800    -0.6748690
  H       -2.2893650    -0.4737730    -0.1440310
units angstrom
no_reorient  #important for SAPT in psi4, default
symmetry c1  #important for SAPT in psi4, default
}

set PROPERTIES_ORIGIN ["COM"]
properties('MP2/aug-cc-pvtz', properties = ['dipole'])
--------------------------------------------------------------------------

    Molecular point group: c1
  Charge       = 0
  Multiplicity = 1
  Basis Set: AUG-CC-PVTZ
    Blend: AUG-CC-PVTZ
  Basis Set: (AUG-CC-PVTZ AUX)
    Blend: AUG-CC-PVTZ-JKFIT

    Orbital Energies [Eh]
    ---------------------

    Doubly Occupied:

       1A    -20.620160     2A    -20.565912     3A    -20.558490
       4A    -11.391559     5A    -11.321431     6A    -11.319623
       7A    -11.263604     8A     -1.470138     9A     -1.406904
      10A     -1.371914    11A     -1.099923    12A     -0.992745
      13A     -0.864785    14A     -0.813363    15A     -0.736078
      16A     -0.727076    17A     -0.689593    18A     -0.658022
      19A     -0.622041    20A     -0.608751    21A     -0.589977
      22A     -0.556863    23A     -0.538534    24A     -0.525334
      25A     -0.471864    26A     -0.468250    27A     -0.447560

  @DF-RHF Final Energy:  -379.69167566987198

   => Energetics <=

    Nuclear Repulsion Energy =            318.0338730370436906
    One-Electron Energy =               -1150.0501045068840540
    Two-Electron Energy =                 452.3245557999683797
    Total Energy =                       -379.6916756698719837
  Basis Set: (AUG-CC-PVTZ AUX)
    Blend: AUG-CC-PVTZ-RI
    Molecular point group: c1

    Geometry (in Angstrom), charge = 0, multiplicity = 1:

       Center              X                  Y                   Z               Mass
    ------------   -----------------  -----------------  -----------------  -----------------
         O            1.050012406167     1.057582858765    -0.103322218716    15.994914619570
         O           -1.663825293833    -1.177090541235    -0.073221618716    15.994914619570
         O           -1.173955593833     1.540137858765    -0.075010218716    15.994914619570
         C            0.863433406167    -1.304913141235    -0.206071218716    12.000000000000
         C           -0.408643593833    -0.730830141235     0.388944781284    12.000000000000
         C            1.841648406167    -0.157179141235     0.040487781284    12.000000000000
         C           -0.263003593833     0.747833858765     0.055219781284    12.000000000000
         H            0.702063406167    -1.458093141235    -1.277256218716     1.007825032230
         H            1.185337406167    -2.245852141235     0.245299781284     1.007825032230
         H           -0.399092593833    -0.831417141235     1.488085781284     1.007825032230
         H            2.257826406167    -0.175642141235     1.052936781284     1.007825032230
         H            2.655542406167    -0.093106141235    -0.682288218716     1.007825032230
         H           -2.240251593833    -0.535899141235    -0.151450218716     1.007825032230

  Basis Set: AUG-CC-PVTZ
    Blend: AUG-CC-PVTZ
  Basis Set: (AUG-CC-PVTZ AUX)
    Blend: AUG-CC-PVTZ-JKFIT
	 Reference Energy          =    -379.6916756698719837 [Eh]
	 Singles Energy            =      -0.0000000000000000 [Eh]
	 Same-Spin Energy          =      -0.3668781267764200 [Eh]
	 Opposite-Spin Energy      =      -1.1327833242876970 [Eh]
	 Correlation Energy        =      -1.4996614510641169 [Eh]
	 Total Energy              =    -381.1913371209361117 [Eh]

	 ================> DF-SCS-MP2 Energies <==================
	-----------------------------------------------------------
	 SCS Same-Spin Scale       =       0.3333333333333333 [-]
	 SCS Opposite-Spin Scale   =       1.2000000000000000 [-]
	 SCS Same-Spin Energy      =      -0.1222927089254733 [Eh]
	 SCS Opposite-Spin Energy  =      -1.3593399891452365 [Eh]
	 SCS Correlation Energy    =      -1.4816326980707097 [Eh]
	 SCS Total Energy          =    -381.1733083679426954 [Eh]
	-----------------------------------------------------------

  Dipole Moment: [D]
     X:     2.9062      Y:    -2.3933      Z:     0.8022     Total:     3.8493

*** Psi4 exiting successfully. Buy a developer a beer!
