                               Psi4 1.3.2 release

  ==> Input File <==

--------------------------------------------------------------------------
#psi4
#
memory 32 gb

molecule  {
0 1
  O        1.0008990     1.1197090    -0.0959030
  O       -1.6389080    -1.2036290    -0.1576800
  O       -1.1343698     1.6901444    -0.0913575
  C        0.8143200    -1.2427870    -0.1986520
  C       -0.4577570    -0.6687040     0.3963640
  C        1.7925350    -0.0950530     0.0479070
  C       -0.3121170     0.8099600     0.0626390
  H        0.6529500    -1.3959670    -1.2698370
  H        1.1362240    -2.1837260     0.2527190
  H       -0.4482060    -0.7692910     1.4955050
  H        2.2087130    -0.1135160     1.0603560
  H        2.6064290    -0.0309800    -0.6748690
  H       -2.2893650    -0.4737730    -0.1440310
units angstrom
no_reorient  #important for SAPT in psi4, default
symmetry c1  #important for SAPT in psi4, default
}

set PROPERTIES_ORIGIN ["COM"]
properties('MP2/aug-cc-pvtz', properties = ['dipole'])
--------------------------------------------------------------------------

    Molecular point group: c1
  Charge       = 0
  Multiplicity = 1
  Basis Set: AUG-CC-PVTZ
    Blend: AUG-CC-PVTZ
  Basis Set: (AUG-CC-PVTZ AUX)
    Blend: AUG-CC-PVTZ-JKFIT

    Orbital Energies [Eh]
    ---------------------

    Doubly Occupied:

       1A    -20.613790     2A    -20.585868     3A    -20.556847
       4A    -11.390737     5A    -11.324776     6A    -11.314529
       7A    -11.260563     8A     -1.469453     9A     -1.389977
      10A     -1.366308    11A     -1.094964    12A     -0.987971
      13A     -0.863188    14A     -0.798762    15A     -0.734172
      16A     -0.713783    17A     -0.687608    18A     -0.657405
      19A     -0.620997    20A     -0.603876    21A     -0.583539
      22A     -0.562421    23A     -0.534757    24A     -0.522680
      25A     -0.478130    26A     -0.462913    27A     -0.448473

  @DF-RHF Final Energy:  -379.69818389525955

   => Energetics <=

    Nuclear Repulsion Energy =            317.1590274248658829
    One-Electron Energy =               -1148.4574425067150969
    Two-Electron Energy =                 451.6002311865897241
    Total Energy =                       -379.6981838952595467
  Basis Set: (AUG-CC-PVTZ AUX)
    Blend: AUG-CC-PVTZ-RI
    Molecular point group: c1

    Geometry (in Angstrom), charge = 0, multiplicity = 1:

       Center              X                  Y                   Z               Mass
    ------------   -----------------  -----------------  -----------------  -----------------
         O            1.024502187202     1.057705793233    -0.085193366471    15.994914619570
         O           -1.615304812798    -1.265632206767    -0.146970366471    15.994914619570
         O           -1.110766612798     1.628141193233    -0.080647866471    15.994914619570
         C            0.837923187202    -1.304790206767    -0.187942366471    12.000000000000
         C           -0.434153812798    -0.730707206767     0.407073633529    12.000000000000
         C            1.816138187202    -0.157056206767     0.058616633529    12.000000000000
         C           -0.288513812798     0.747956793233     0.073348633529    12.000000000000
         H            0.676553187202    -1.457970206767    -1.259127366471     1.007825032230
         H            1.159827187202    -2.245729206767     0.263428633529     1.007825032230
         H           -0.424602812798    -0.831294206767     1.506214633529     1.007825032230
         H            2.232316187202    -0.175519206767     1.071065633529     1.007825032230
         H            2.630032187202    -0.092983206767    -0.664159366471     1.007825032230
         H           -2.265761812798    -0.535776206767    -0.133321366471     1.007825032230

  Basis Set: AUG-CC-PVTZ
    Blend: AUG-CC-PVTZ
  Basis Set: (AUG-CC-PVTZ AUX)
    Blend: AUG-CC-PVTZ-JKFIT
	 Reference Energy          =    -379.6981838952595467 [Eh]
	 Singles Energy            =      -0.0000000000000000 [Eh]
	 Same-Spin Energy          =      -0.3684208928717577 [Eh]
	 Opposite-Spin Energy      =      -1.1367028134762240 [Eh]
	 Correlation Energy        =      -1.5051237063479816 [Eh]
	 Total Energy              =    -381.2033076016075483 [Eh]

	 ================> DF-SCS-MP2 Energies <==================
	-----------------------------------------------------------
	 SCS Same-Spin Scale       =       0.3333333333333333 [-]
	 SCS Opposite-Spin Scale   =       1.2000000000000000 [-]
	 SCS Same-Spin Energy      =      -0.1228069642905859 [Eh]
	 SCS Opposite-Spin Energy  =      -1.3640433761714688 [Eh]
	 SCS Correlation Energy    =      -1.4868503404620546 [Eh]
	 SCS Total Energy          =    -381.1850342357216164 [Eh]
	-----------------------------------------------------------

  Dipole Moment: [D]
     X:     2.4864      Y:    -2.5329      Z:     1.0310     Total:     3.6961

*** Psi4 exiting successfully. Buy a developer a beer!
