                               Psi4 1.3.2 release

  ==> Input File <==

--------------------------------------------------------------------------
#psi4
#
memory 32 gb

molecule  {
0 1
  O        1.0008990     1.1197090    -0.0959030
  O       -1.6389080    -1.2036290    -0.1576800
  O       -1.2767127     1.5387910    -0.0509372
  C        0.8143200    -1.2427870    -0.1986520
  C       -0.4577570    -0.6687040     0.3963640
  C        1.7925350    -0.0950530     0.0479070
  C       -0.3121170     0.8099600     0.0626390
  H        0.6529500    -1.3959670    -1.2698370
  H        1.1362240    -2.1837260     0.2527190
  H       -0.4482060    -0.7692910     1.4955050
  H        2.2087130    -0.1135160     1.0603560
  H        2.6064290    -0.0309800    -0.6748690
  H       -2.2893650    -0.4737730    -0.1440310
units angstrom
no_reorient  #important for SAPT in psi4, default
symmetry c1  #important for SAPT in psi4, default
}

set PROPERTIES_ORIGIN ["COM"]
properties('MP2/aug-cc-pvtz', properties = ['dipole'])
--------------------------------------------------------------------------

    Molecular point group: c1
  Charge       = 0
  Multiplicity = 1
  Basis Set: AUG-CC-PVTZ
    Blend: AUG-CC-PVTZ
  Basis Set: (AUG-CC-PVTZ AUX)
    Blend: AUG-CC-PVTZ-JKFIT

    Orbital Energies [Eh]
    ---------------------

    Doubly Occupied:

       1A    -20.624595     2A    -20.577500     3A    -20.561854
       4A    -11.394087     5A    -11.318728     6A    -11.314328
       7A    -11.257591     8A     -1.470394     9A     -1.389806
      10A     -1.370654    11A     -1.092479    12A     -0.988101
      13A     -0.861355    14A     -0.796578    15A     -0.734827
      16A     -0.714578    17A     -0.689221    18A     -0.659120
      19A     -0.623241    20A     -0.605295    21A     -0.581337
      22A     -0.558315    23A     -0.536174    24A     -0.523179
      25A     -0.472686    26A     -0.471727    27A     -0.444797

  @DF-RHF Final Energy:  -379.69937156043551

   => Energetics <=

    Nuclear Repulsion Energy =            317.7900772373575364
    One-Electron Energy =               -1149.7138047688065399
    Two-Electron Energy =                 452.2243559710134946
    Total Energy =                       -379.6993715604355089
  Basis Set: (AUG-CC-PVTZ AUX)
    Blend: AUG-CC-PVTZ-RI
    Molecular point group: c1

    Geometry (in Angstrom), charge = 0, multiplicity = 1:

       Center              X                  Y                   Z               Mass
    ------------   -----------------  -----------------  -----------------  -----------------
         O            1.046816454875     1.081432584530    -0.091529821564    15.994914619570
         O           -1.592990545125    -1.241905415470    -0.153306821564    15.994914619570
         O           -1.230795245125     1.500514584530    -0.046564021564    15.994914619570
         C            0.860237454875    -1.281063415470    -0.194278821564    12.000000000000
         C           -0.411839545125    -0.706980415470     0.400737178436    12.000000000000
         C            1.838452454875    -0.133329415470     0.052280178436    12.000000000000
         C           -0.266199545125     0.771683584530     0.067012178436    12.000000000000
         H            0.698867454875    -1.434243415470    -1.265463821564     1.007825032230
         H            1.182141454875    -2.222002415470     0.257092178436     1.007825032230
         H           -0.402288545125    -0.807567415470     1.499878178436     1.007825032230
         H            2.254630454875    -0.151792415470     1.064729178436     1.007825032230
         H            2.652346454875    -0.069256415470    -0.670495821564     1.007825032230
         H           -2.243447545125    -0.512049415470    -0.139657821564     1.007825032230

  Basis Set: AUG-CC-PVTZ
    Blend: AUG-CC-PVTZ
  Basis Set: (AUG-CC-PVTZ AUX)
    Blend: AUG-CC-PVTZ-JKFIT
	 Reference Energy          =    -379.6993715604355089 [Eh]
	 Singles Energy            =      -0.0000000000000000 [Eh]
	 Same-Spin Energy          =      -0.3685688155271895 [Eh]
	 Opposite-Spin Energy      =      -1.1365172134885391 [Eh]
	 Correlation Energy        =      -1.5050860290157284 [Eh]
	 Total Energy              =    -381.2044575894512377 [Eh]

	 ================> DF-SCS-MP2 Energies <==================
	-----------------------------------------------------------
	 SCS Same-Spin Scale       =       0.3333333333333333 [-]
	 SCS Opposite-Spin Scale   =       1.2000000000000000 [-]
	 SCS Same-Spin Energy      =      -0.1228562718423965 [Eh]
	 SCS Opposite-Spin Energy  =      -1.3638206561862469 [Eh]
	 SCS Correlation Energy    =      -1.4866769280286434 [Eh]
	 SCS Total Energy          =    -381.1860484884641664 [Eh]
	-----------------------------------------------------------

  Dipole Moment: [D]
     X:     2.8212      Y:    -2.1094      Z:     0.9454     Total:     3.6472

*** Psi4 exiting successfully. Buy a developer a beer!
