                               Psi4 1.3.2 release

  ==> Input File <==

--------------------------------------------------------------------------
#psi4
#
memory 32 gb

molecule  {
0 1
  O        1.0008990     1.1197090    -0.0959030
  O       -1.6389080    -1.2036290    -0.1576800
  O       -1.2230690     1.6022640    -0.0675910
  C        0.8143200    -1.2427870    -0.1986520
  C       -0.4577570    -0.6687040     0.3963640
  C        1.7925350    -0.0950530     0.0479070
  C       -0.3121170     0.8099600     0.0626390
  H        0.6579548    -1.4142812    -1.2678018
  H        1.1362240    -2.1837260     0.2527190
  H       -0.4482060    -0.7692910     1.4955050
  H        2.2087130    -0.1135160     1.0603560
  H        2.6064290    -0.0309800    -0.6748690
  H       -2.2893650    -0.4737730    -0.1440310
units angstrom
no_reorient  #important for SAPT in psi4, default
symmetry c1  #important for SAPT in psi4, default
}

set PROPERTIES_ORIGIN ["COM"]
properties('MP2/aug-cc-pvtz', properties = ['dipole'])
--------------------------------------------------------------------------

    Molecular point group: c1
  Charge       = 0
  Multiplicity = 1
  Basis Set: AUG-CC-PVTZ
    Blend: AUG-CC-PVTZ
  Basis Set: (AUG-CC-PVTZ AUX)
    Blend: AUG-CC-PVTZ-JKFIT

    Orbital Energies [Eh]
    ---------------------

    Doubly Occupied:

       1A    -20.620380     2A    -20.581033     3A    -20.559981
       4A    -11.392655     5A    -11.318680     6A    -11.317313
       7A    -11.258805     8A     -1.469749     9A     -1.388354
      10A     -1.370714    11A     -1.093387    12A     -0.988185
      13A     -0.862507    14A     -0.797486    15A     -0.734137
      16A     -0.714115    17A     -0.689047    18A     -0.658565
      19A     -0.622384    20A     -0.604660    21A     -0.582138
      22A     -0.559559    23A     -0.536070    24A     -0.523222
      25A     -0.475133    26A     -0.468425    27A     -0.446853

  @DF-RHF Final Energy:  -379.70080541161457

   => Energetics <=

    Nuclear Repulsion Energy =            317.4320042587092985
    One-Electron Energy =               -1148.9985433988797467
    Two-Electron Energy =                 451.8657337285558810
    Total Energy =                       -379.7008054116145672
  Basis Set: (AUG-CC-PVTZ AUX)
    Blend: AUG-CC-PVTZ-RI
    Molecular point group: c1

    Geometry (in Angstrom), charge = 0, multiplicity = 1:

       Center              X                  Y                   Z               Mass
    ------------   -----------------  -----------------  -----------------  -----------------
         O            1.038357609101     1.071663191640    -0.088939205128    15.994914619570
         O           -1.601449390899    -1.251674808360    -0.150716205128    15.994914619570
         O           -1.185610390899     1.554218191640    -0.060627205128    15.994914619570
         C            0.851778609101    -1.290832808360    -0.191688205128    12.000000000000
         C           -0.420298390899    -0.716749808360     0.403327794872    12.000000000000
         C            1.829993609101    -0.143098808360     0.054870794872    12.000000000000
         C           -0.274658390899     0.761914191640     0.069602794872    12.000000000000
         H            0.695413409101    -1.462327008360    -1.260838005128     1.007825032230
         H            1.173682609101    -2.231771808360     0.259682794872     1.007825032230
         H           -0.410747390899    -0.817336808360     1.502468794872     1.007825032230
         H            2.246171609101    -0.161561808360     1.067319794872     1.007825032230
         H            2.643887609101    -0.079025808360    -0.667905205128     1.007825032230
         H           -2.251906390899    -0.521818808360    -0.137067205128     1.007825032230

  Basis Set: AUG-CC-PVTZ
    Blend: AUG-CC-PVTZ
  Basis Set: (AUG-CC-PVTZ AUX)
    Blend: AUG-CC-PVTZ-JKFIT
	 Reference Energy          =    -379.7008054116145672 [Eh]
	 Singles Energy            =      -0.0000000000000000 [Eh]
	 Same-Spin Energy          =      -0.3684081945588731 [Eh]
	 Opposite-Spin Energy      =      -1.1364084811134891 [Eh]
	 Correlation Energy        =      -1.5048166756723622 [Eh]
	 Total Energy              =    -381.2056220872869403 [Eh]

	 ================> DF-SCS-MP2 Energies <==================
	-----------------------------------------------------------
	 SCS Same-Spin Scale       =       0.3333333333333333 [-]
	 SCS Opposite-Spin Scale   =       1.2000000000000000 [-]
	 SCS Same-Spin Energy      =      -0.1228027315196244 [Eh]
	 SCS Opposite-Spin Energy  =      -1.3636901773361869 [Eh]
	 SCS Correlation Energy    =      -1.4864929088558112 [Eh]
	 SCS Total Energy          =    -381.1872983204704042 [Eh]
	-----------------------------------------------------------

  Dipole Moment: [D]
     X:     2.6970      Y:    -2.2945      Z:     0.9789     Total:     3.6738

*** Psi4 exiting successfully. Buy a developer a beer!
