                               Psi4 1.3.2 release

  ==> Input File <==

--------------------------------------------------------------------------
#psi4
#
memory 32 gb

molecule  {
0 1
  O        1.0008990     1.1197090    -0.0959030
  O       -1.6389080    -1.2036290    -0.1576800
  O       -1.2230690     1.6022640    -0.0675910
  C        0.8009231    -1.2051672    -0.2975515
  C       -0.4577570    -0.6687040     0.3963640
  C        1.7925350    -0.0950530     0.0479070
  C       -0.3121170     0.8099600     0.0626390
  H        0.6529500    -1.3959670    -1.2698370
  H        1.1362240    -2.1837260     0.2527190
  H       -0.4482060    -0.7692910     1.4955050
  H        2.2087130    -0.1135160     1.0603560
  H        2.6064290    -0.0309800    -0.6748690
  H       -2.2893650    -0.4737730    -0.1440310
units angstrom
no_reorient  #important for SAPT in psi4, default
symmetry c1  #important for SAPT in psi4, default
}

set PROPERTIES_ORIGIN ["COM"]
properties('MP2/aug-cc-pvtz', properties = ['dipole'])
--------------------------------------------------------------------------

    Molecular point group: c1
  Charge       = 0
  Multiplicity = 1
  Basis Set: AUG-CC-PVTZ
    Blend: AUG-CC-PVTZ
  Basis Set: (AUG-CC-PVTZ AUX)
    Blend: AUG-CC-PVTZ-JKFIT

    Orbital Energies [Eh]
    ---------------------

    Doubly Occupied:

       1A    -20.618536     2A    -20.580433     3A    -20.559064
       4A    -11.391015     5A    -11.319321     6A    -11.317701
       7A    -11.259042     8A     -1.469338     9A     -1.388027
      10A     -1.370152    11A     -1.091354    12A     -0.988026
      13A     -0.867757    14A     -0.795151    15A     -0.735299
      16A     -0.712470    17A     -0.687246    18A     -0.661318
      19A     -0.625674    20A     -0.612462    21A     -0.575443
      22A     -0.552978    23A     -0.543365    24A     -0.515627
      25A     -0.476263    26A     -0.469492    27A     -0.442803

  @DF-RHF Final Energy:  -379.68706667414585

   => Energetics <=

    Nuclear Repulsion Energy =            317.6859077776055642
    One-Electron Energy =               -1149.4952378254185987
    Two-Electron Energy =                 452.1222633736672378
    Total Energy =                       -379.6870666741458535
  Basis Set: (AUG-CC-PVTZ AUX)
    Blend: AUG-CC-PVTZ-RI
    Molecular point group: c1

    Geometry (in Angstrom), charge = 0, multiplicity = 1:

       Center              X                  Y                   Z               Mass
    ------------   -----------------  -----------------  -----------------  -----------------
         O            1.039982660652     1.067057807856    -0.077287481254    15.994914619570
         O           -1.599824339348    -1.256280192144    -0.139064481254    15.994914619570
         O           -1.183985339348     1.549612807856    -0.048975481254    15.994914619570
         C            0.840006760652    -1.257818392144    -0.278935981254    12.000000000000
         C           -0.418673339348    -0.721355192144     0.414979518746    12.000000000000
         C            1.831618660652    -0.147704192144     0.066522518746    12.000000000000
         C           -0.273033339348     0.757308807856     0.081254518746    12.000000000000
         H            0.692033660652    -1.448618192144    -1.251221481254     1.007825032230
         H            1.175307660652    -2.236377192144     0.271334518746     1.007825032230
         H           -0.409122339348    -0.821942192144     1.514120518746     1.007825032230
         H            2.247796660652    -0.166167192144     1.078971518746     1.007825032230
         H            2.645512660652    -0.083631192144    -0.656253481254     1.007825032230
         H           -2.250281339348    -0.526424192144    -0.125415481254     1.007825032230

  Basis Set: AUG-CC-PVTZ
    Blend: AUG-CC-PVTZ
  Basis Set: (AUG-CC-PVTZ AUX)
    Blend: AUG-CC-PVTZ-JKFIT
	 Reference Energy          =    -379.6870666741458535 [Eh]
	 Singles Energy            =      -0.0000000000000000 [Eh]
	 Same-Spin Energy          =      -0.3685505387468058 [Eh]
	 Opposite-Spin Energy      =      -1.1368677876647562 [Eh]
	 Correlation Energy        =      -1.5054183264115619 [Eh]
	 Total Energy              =    -381.1924850005574399 [Eh]

	 ================> DF-SCS-MP2 Energies <==================
	-----------------------------------------------------------
	 SCS Same-Spin Scale       =       0.3333333333333333 [-]
	 SCS Opposite-Spin Scale   =       1.2000000000000000 [-]
	 SCS Same-Spin Energy      =      -0.1228501795822686 [Eh]
	 SCS Opposite-Spin Energy  =      -1.3642413451977073 [Eh]
	 SCS Correlation Energy    =      -1.4870915247799759 [Eh]
	 SCS Total Energy          =    -381.1741581989258520 [Eh]
	-----------------------------------------------------------

  Dipole Moment: [D]
     X:     2.6840      Y:    -2.2484      Z:     0.9589     Total:     3.6302

*** Psi4 exiting successfully. Buy a developer a beer!
