                               Psi4 1.3.2 release

  ==> Input File <==

--------------------------------------------------------------------------
#psi4
#
memory 32 gb

molecule  {
0 1
  O        1.0008990     1.1197090    -0.0959030
  O       -1.6389080    -1.2036290    -0.1576800
  O       -1.2230690     1.6022640    -0.0675910
  C        0.8143200    -1.2427870    -0.1986520
  C       -0.4577570    -0.6687040     0.3963640
  C        1.6609026    -0.1685219     0.0710464
  C       -0.3121170     0.8099600     0.0626390
  H        0.6529500    -1.3959670    -1.2698370
  H        1.1362240    -2.1837260     0.2527190
  H       -0.4482060    -0.7692910     1.4955050
  H        2.2087130    -0.1135160     1.0603560
  H        2.6064290    -0.0309800    -0.6748690
  H       -2.2893650    -0.4737730    -0.1440310
units angstrom
no_reorient  #important for SAPT in psi4, default
symmetry c1  #important for SAPT in psi4, default
}

set PROPERTIES_ORIGIN ["COM"]
properties('MP2/aug-cc-pvtz', properties = ['dipole'])
--------------------------------------------------------------------------

    Molecular point group: c1
  Charge       = 0
  Multiplicity = 1
  Basis Set: AUG-CC-PVTZ
    Blend: AUG-CC-PVTZ
  Basis Set: (AUG-CC-PVTZ AUX)
    Blend: AUG-CC-PVTZ-JKFIT

    Orbital Energies [Eh]
    ---------------------

    Doubly Occupied:

       1A    -20.625127     2A    -20.582811     3A    -20.560986
       4A    -11.393356     5A    -11.322235     6A    -11.322217
       7A    -11.254957     8A     -1.476480     9A     -1.390761
      10A     -1.373419    11A     -1.125343    12A     -0.982338
      13A     -0.860973    14A     -0.803854    15A     -0.740035
      16A     -0.707553    17A     -0.694643    18A     -0.654643
      19A     -0.622412    20A     -0.610029    21A     -0.580982
      22A     -0.570255    23A     -0.553371    24A     -0.514379
      25A     -0.474710    26A     -0.456039    27A     -0.446085

  @DF-RHF Final Energy:  -379.67002358023922

   => Energetics <=

    Nuclear Repulsion Energy =            319.8398271809609241
    One-Electron Energy =               -1153.6197135523548241
    Two-Electron Energy =                 454.1098627911546828
    Total Energy =                       -379.6700235802392172
  Basis Set: (AUG-CC-PVTZ AUX)
    Blend: AUG-CC-PVTZ-RI
    Molecular point group: c1

    Geometry (in Angstrom), charge = 0, multiplicity = 1:

       Center              X                  Y                   Z               Mass
    ------------   -----------------  -----------------  -----------------  -----------------
         O            1.053888398601     1.080123006982    -0.091640539032    15.994914619570
         O           -1.585918601399    -1.243214993018    -0.153417539032    15.994914619570
         O           -1.170079601399     1.562678006982    -0.063328539032    15.994914619570
         C            0.867309398601    -1.282372993018    -0.194389539032    12.000000000000
         C           -0.404767601399    -0.708289993018     0.400626460968    12.000000000000
         C            1.713891998601    -0.208107893018     0.075308860968    12.000000000000
         C           -0.259127601399     0.770374006982     0.066901460968    12.000000000000
         H            0.705939398601    -1.435552993018    -1.265574539032     1.007825032230
         H            1.189213398601    -2.223311993018     0.256981460968     1.007825032230
         H           -0.395216601399    -0.808876993018     1.499767460968     1.007825032230
         H            2.261702398601    -0.153101993018     1.064618460968     1.007825032230
         H            2.659418398601    -0.070565993018    -0.670606539032     1.007825032230
         H           -2.236375601399    -0.513358993018    -0.139768539032     1.007825032230

  Basis Set: AUG-CC-PVTZ
    Blend: AUG-CC-PVTZ
  Basis Set: (AUG-CC-PVTZ AUX)
    Blend: AUG-CC-PVTZ-JKFIT
	 Reference Energy          =    -379.6700235802392172 [Eh]
	 Singles Energy            =      -0.0000000000000000 [Eh]
	 Same-Spin Energy          =      -0.3708135983874474 [Eh]
	 Opposite-Spin Energy      =      -1.1397952667043003 [Eh]
	 Correlation Energy        =      -1.5106088650917477 [Eh]
	 Total Energy              =    -381.1806324453309571 [Eh]

	 ================> DF-SCS-MP2 Energies <==================
	-----------------------------------------------------------
	 SCS Same-Spin Scale       =       0.3333333333333333 [-]
	 SCS Opposite-Spin Scale   =       1.2000000000000000 [-]
	 SCS Same-Spin Energy      =      -0.1236045327958158 [Eh]
	 SCS Opposite-Spin Energy  =      -1.3677543200451603 [Eh]
	 SCS Correlation Energy    =      -1.4913588528409760 [Eh]
	 SCS Total Energy          =    -381.1613824330801776 [Eh]
	-----------------------------------------------------------

  Dipole Moment: [D]
     X:     2.4396      Y:    -2.3936      Z:     1.0179     Total:     3.5662

*** Psi4 exiting successfully. Buy a developer a beer!
