                               Psi4 1.3.2 release

  ==> Input File <==

--------------------------------------------------------------------------
#psi4
#
memory 32 gb

molecule  {
0 1
  O        0.9586138     1.2528972    -0.1221338
  O       -1.6389080    -1.2036290    -0.1576800
  O       -1.2230690     1.6022640    -0.0675910
  C        0.8143200    -1.2427870    -0.1986520
  C       -0.4577570    -0.6687040     0.3963640
  C        1.7925350    -0.0950530     0.0479070
  C       -0.3121170     0.8099600     0.0626390
  H        0.6529500    -1.3959670    -1.2698370
  H        1.1362240    -2.1837260     0.2527190
  H       -0.4482060    -0.7692910     1.4955050
  H        2.2087130    -0.1135160     1.0603560
  H        2.6064290    -0.0309800    -0.6748690
  H       -2.2893650    -0.4737730    -0.1440310
units angstrom
no_reorient  #important for SAPT in psi4, default
symmetry c1  #important for SAPT in psi4, default
}

set PROPERTIES_ORIGIN ["COM"]
properties('MP2/aug-cc-pvtz', properties = ['dipole'])
--------------------------------------------------------------------------

    Molecular point group: c1
  Charge       = 0
  Multiplicity = 1
  Basis Set: AUG-CC-PVTZ
    Blend: AUG-CC-PVTZ
  Basis Set: (AUG-CC-PVTZ AUX)
    Blend: AUG-CC-PVTZ-JKFIT

    Orbital Energies [Eh]
    ---------------------

    Doubly Occupied:

       1A    -20.618384     2A    -20.583343     3A    -20.548925
       4A    -11.384588     5A    -11.329476     6A    -11.323915
       7A    -11.266132     8A     -1.452001     9A     -1.386023
      10A     -1.349677    11A     -1.103523    12A     -0.975102
      13A     -0.863304    14A     -0.791600    15A     -0.726076
      16A     -0.711698    17A     -0.682827    18A     -0.647872
      19A     -0.610038    20A     -0.606383    21A     -0.575523
      22A     -0.563516    23A     -0.540475    24A     -0.521506
      25A     -0.476593    26A     -0.464771    27A     -0.444882

  @DF-RHF Final Energy:  -379.68337456711919

   => Energetics <=

    Nuclear Repulsion Energy =            314.9703113581282423
    One-Electron Energy =               -1144.2110661693752718
    Two-Electron Energy =                 449.5573802441278417
    Total Energy =                       -379.6833745671191878
  Basis Set: (AUG-CC-PVTZ AUX)
    Blend: AUG-CC-PVTZ-RI
    Molecular point group: c1

    Geometry (in Angstrom), charge = 0, multiplicity = 1:

       Center              X                  Y                   Z               Mass
    ------------   -----------------  -----------------  -----------------  -----------------
         O            1.002750648963     1.183791353222    -0.111037852508    15.994914619570
         O           -1.594771151037    -1.272734846778    -0.146584052508    15.994914619570
         O           -1.178932151037     1.533158153222    -0.056495052508    15.994914619570
         C            0.858456848963    -1.311892846778    -0.187556052508    12.000000000000
         C           -0.413620151037    -0.737809846778     0.407459947492    12.000000000000
         C            1.836671848963    -0.164158846778     0.059002947492    12.000000000000
         C           -0.267980151037     0.740854153222     0.073734947492    12.000000000000
         H            0.697086848963    -1.465072846778    -1.258741052508     1.007825032230
         H            1.180360848963    -2.252831846778     0.263814947492     1.007825032230
         H           -0.404069151037    -0.838396846778     1.506600947492     1.007825032230
         H            2.252849848963    -0.182621846778     1.071451947492     1.007825032230
         H            2.650565848963    -0.100085846778    -0.663773052508     1.007825032230
         H           -2.245228151037    -0.542878846778    -0.132935052508     1.007825032230

  Basis Set: AUG-CC-PVTZ
    Blend: AUG-CC-PVTZ
  Basis Set: (AUG-CC-PVTZ AUX)
    Blend: AUG-CC-PVTZ-JKFIT
	 Reference Energy          =    -379.6833745671191878 [Eh]
	 Singles Energy            =      -0.0000000000000000 [Eh]
	 Same-Spin Energy          =      -0.3694473836697340 [Eh]
	 Opposite-Spin Energy      =      -1.1406336244580659 [Eh]
	 Correlation Energy        =      -1.5100810081277998 [Eh]
	 Total Energy              =    -381.1934555752470146 [Eh]

	 ================> DF-SCS-MP2 Energies <==================
	-----------------------------------------------------------
	 SCS Same-Spin Scale       =       0.3333333333333333 [-]
	 SCS Opposite-Spin Scale   =       1.2000000000000000 [-]
	 SCS Same-Spin Energy      =      -0.1231491278899113 [Eh]
	 SCS Opposite-Spin Energy  =      -1.3687603493496792 [Eh]
	 SCS Correlation Energy    =      -1.4919094772395904 [Eh]
	 SCS Total Energy          =    -381.1752840443587615 [Eh]
	-----------------------------------------------------------

  Dipole Moment: [D]
     X:     2.8705      Y:    -2.7010      Z:     1.0404     Total:     4.0765

*** Psi4 exiting successfully. Buy a developer a beer!
