                               Psi4 1.4a3.dev225

  ==> Input File <==

--------------------------------------------------------------------------
#psi4
#
memory 32 gb

molecule  {
0 1
  O        1.0008990     1.1197090    -0.0959030
  O       -1.6389080    -1.2036290    -0.1576800
  O       -1.2230690     1.6022640    -0.0675910
  C        0.8143200    -1.2427870    -0.1986520
  C       -0.4996404    -0.6876724     0.3767177
  C        1.7925350    -0.0950530     0.0479070
  C       -0.3121170     0.8099600     0.0626390
  H        0.6529500    -1.3959670    -1.2698370
  H        1.1362240    -2.1837260     0.2527190
  H       -0.4482060    -0.7692910     1.4955050
  H        2.2087130    -0.1135160     1.0603560
  H        2.6064290    -0.0309800    -0.6748690
  H       -2.2893650    -0.4737730    -0.1440310
units angstrom
no_reorient  #important for SAPT in psi4, default
symmetry c1  #important for SAPT in psi4, default
}

set PROPERTIES_ORIGIN ["COM"]
properties('MP2/aug-cc-pvtz', properties = ['dipole'])
--------------------------------------------------------------------------

    Molecular point group: c1
  Charge       = 0
  Multiplicity = 1
  Basis Set: AUG-CC-PVTZ
    Blend: AUG-CC-PVTZ
  Basis Set: (AUG-CC-PVTZ AUX)
    Blend: AUG-CC-PVTZ-JKFIT

    Orbital Energies [Eh]
    ---------------------

    Doubly Occupied:

       1A    -20.620213     2A    -20.585916     3A    -20.558330
       4A    -11.391042     5A    -11.320178     6A    -11.316471
       7A    -11.257884     8A     -1.468544     9A     -1.407268
      10A     -1.372238    11A     -1.086853    12A     -0.984106
      13A     -0.858821    14A     -0.801862    15A     -0.732877
      16A     -0.719773    17A     -0.689586    18A     -0.658880
      19A     -0.626649    20A     -0.602260    21A     -0.591515
      22A     -0.559509    23A     -0.535744    24A     -0.524460
      25A     -0.468229    26A     -0.467311    27A     -0.440712

  @DF-RHF Final Energy:  -379.69938401021011

   => Energetics <=

    Nuclear Repulsion Energy =            317.4398079755682147
    One-Electron Energy =               -1148.9839192858828483
    Two-Electron Energy =                 451.8447273001045232
    Total Energy =                       -379.6993840102101103
  Basis Set: (AUG-CC-PVTZ AUX)
    Blend: AUG-CC-PVTZ-RI
    Molecular point group: c1

    Geometry (in Angstrom), charge = 0, multiplicity = 1:

       Center              X                  Y                   Z               Mass
    ------------   -----------------  -----------------  -----------------  -----------------
         O            1.043332972564     1.073713175154    -0.086608490856    15.994914619570
         O           -1.596474027436    -1.249624824846    -0.148385490856    15.994914619570
         O           -1.180635027436     1.556268175154    -0.058296490856    15.994914619570
         C            0.856753972564    -1.288782824846    -0.189357490856    12.000000000000
         C           -0.457206427436    -0.733668224846     0.386012209144    12.000000000000
         C            1.834968972564    -0.141048824846     0.057201509144    12.000000000000
         C           -0.269683027436     0.763964175154     0.071933509144    12.000000000000
         H            0.695383972564    -1.441962824846    -1.260542490856     1.007825032230
         H            1.178657972564    -2.229721824846     0.262013509144     1.007825032230
         H           -0.405772027436    -0.815286824846     1.504799509144     1.007825032230
         H            2.251146972564    -0.159511824846     1.069650509144     1.007825032230
         H            2.648862972564    -0.076975824846    -0.665574490856     1.007825032230
         H           -2.246931027436    -0.519768824846    -0.134736490856     1.007825032230

  Basis Set: AUG-CC-PVTZ
    Blend: AUG-CC-PVTZ
  Basis Set: (AUG-CC-PVTZ AUX)
    Blend: AUG-CC-PVTZ-JKFIT
	 Reference Energy          =    -379.6993840102101103 [Eh]
	 Singles Energy            =      -0.0000000000000000 [Eh]
	 Same-Spin Energy          =      -0.3682573454863554 [Eh]
	 Opposite-Spin Energy      =      -1.1355579057409162 [Eh]
	 Correlation Energy        =      -1.5038152512272716 [Eh]
	 Total Energy              =    -381.2031992614373621 [Eh]

	 ================> DF-SCS-MP2 Energies <==================
	-----------------------------------------------------------
	 SCS Same-Spin Scale       =       0.3333333333333333 [-]
	 SCS Opposite-Spin Scale   =       1.2000000000000000 [-]
	 SCS Same-Spin Energy      =      -0.1227524484954518 [Eh]
	 SCS Opposite-Spin Energy  =      -1.3626694868890994 [Eh]
	 SCS Correlation Energy    =      -1.4854219353845513 [Eh]
	 SCS Total Energy          =    -381.1848059455946895 [Eh]
	-----------------------------------------------------------

  Dipole Moment: [D]
     X:     2.5318      Y:    -2.3401      Z:     0.9036     Total:     3.5641

*** Psi4 exiting successfully. Buy a developer a beer!
