                               Psi4 1.4a3.dev225

  ==> Input File <==

--------------------------------------------------------------------------
#psi4
#
memory 32 gb

molecule  {
0 1
  O        1.0008990     1.1197090    -0.0959030
  O       -1.6389080    -1.2036290    -0.1576800
  O       -1.2230690     1.6022640    -0.0675910
  C        0.8143200    -1.2427870    -0.1986520
  C       -0.4577570    -0.6687040     0.3963640
  C        1.7925350    -0.0950530     0.0479070
  C       -0.3140297     0.7905401     0.0670219
  H        0.6529500    -1.3959670    -1.2698370
  H        1.1362240    -2.1837260     0.2527190
  H       -0.4482060    -0.7692910     1.4955050
  H        2.2087130    -0.1135160     1.0603560
  H        2.6064290    -0.0309800    -0.6748690
  H       -2.2893650    -0.4737730    -0.1440310
units angstrom
no_reorient  #important for SAPT in psi4, default
symmetry c1  #important for SAPT in psi4, default
}

set PROPERTIES_ORIGIN ["COM"]
properties('MP2/aug-cc-pvtz', properties = ['dipole'])
--------------------------------------------------------------------------

    Molecular point group: c1
  Charge       = 0
  Multiplicity = 1
  Basis Set: AUG-CC-PVTZ
    Blend: AUG-CC-PVTZ
  Basis Set: (AUG-CC-PVTZ AUX)
    Blend: AUG-CC-PVTZ-JKFIT

    Orbital Energies [Eh]
    ---------------------

    Doubly Occupied:

       1A    -20.620656     2A    -20.582336     3A    -20.559566
       4A    -11.394243     5A    -11.319735     6A    -11.316928
       7A    -11.260040     8A     -1.467031     9A     -1.388744
      10A     -1.364961    11A     -1.095968    12A     -0.990615
      13A     -0.864475    14A     -0.798537    15A     -0.734827
      16A     -0.713842    17A     -0.689291    18A     -0.657768
      19A     -0.620037    20A     -0.603434    21A     -0.583100
      22A     -0.560003    23A     -0.535113    24A     -0.522958
      25A     -0.476134    26A     -0.466149    27A     -0.450279

  @DF-RHF Final Energy:  -379.69842963854586

   => Energetics <=

    Nuclear Repulsion Energy =            317.5143693686390520
    One-Electron Energy =               -1149.1520592726103587
    Two-Electron Energy =                 451.9392602654253892
    Total Energy =                       -379.6984296385458606
  Basis Set: (AUG-CC-PVTZ AUX)
    Blend: AUG-CC-PVTZ-RI
    Molecular point group: c1

    Geometry (in Angstrom), charge = 0, multiplicity = 1:

       Center              X                  Y                   Z               Mass
    ------------   -----------------  -----------------  -----------------  -----------------
         O            1.038631997985     1.073766276302    -0.089434577423    15.994914619570
         O           -1.601175002015    -1.249571723698    -0.151211577423    15.994914619570
         O           -1.185336002015     1.556321276302    -0.061122577423    15.994914619570
         C            0.852052997985    -1.288729723698    -0.192183577423    12.000000000000
         C           -0.420024002015    -0.714646723698     0.402832422577    12.000000000000
         C            1.830267997985    -0.140995723698     0.054375422577    12.000000000000
         C           -0.276296702015     0.744597376302     0.073490322577    12.000000000000
         H            0.690682997985    -1.441909723698    -1.263368577423     1.007825032230
         H            1.173956997985    -2.229668723698     0.259187422577     1.007825032230
         H           -0.410473002015    -0.815233723698     1.501973422577     1.007825032230
         H            2.246445997985    -0.159458723698     1.066824422577     1.007825032230
         H            2.644161997985    -0.076922723698    -0.668400577423     1.007825032230
         H           -2.251632002015    -0.519715723698    -0.137562577423     1.007825032230

  Basis Set: AUG-CC-PVTZ
    Blend: AUG-CC-PVTZ
  Basis Set: (AUG-CC-PVTZ AUX)
    Blend: AUG-CC-PVTZ-JKFIT
	 Reference Energy          =    -379.6984296385458606 [Eh]
	 Singles Energy            =      -0.0000000000000000 [Eh]
	 Same-Spin Energy          =      -0.3689274210285816 [Eh]
	 Opposite-Spin Energy      =      -1.1374935614435016 [Eh]
	 Correlation Energy        =      -1.5064209824720831 [Eh]
	 Total Energy              =    -381.2048506210179539 [Eh]

	 ================> DF-SCS-MP2 Energies <==================
	-----------------------------------------------------------
	 SCS Same-Spin Scale       =       0.3333333333333333 [-]
	 SCS Opposite-Spin Scale   =       1.2000000000000000 [-]
	 SCS Same-Spin Energy      =      -0.1229758070095272 [Eh]
	 SCS Opposite-Spin Energy  =      -1.3649922737322018 [Eh]
	 SCS Correlation Energy    =      -1.4879680807417290 [Eh]
	 SCS Total Energy          =    -381.1863977192875836 [Eh]
	-----------------------------------------------------------

  Dipole Moment: [D]
     X:     2.6910      Y:    -2.3727      Z:     0.9981     Total:     3.7239

*** Psi4 exiting successfully. Buy a developer a beer!
