                               Psi4 1.3.2 release

  ==> Input File <==

--------------------------------------------------------------------------
#psi4
#
memory 32 gb

molecule  {
0 1
  O        1.0008990     1.1197090    -0.0959030
  O       -1.6389080    -1.2036290    -0.1576800
  O       -1.2230690     1.6022640    -0.0675910
  C        0.8143200    -1.2427870    -0.1986520
  C       -0.3730265    -0.5389754     0.4311518
  C        1.7925350    -0.0950530     0.0479070
  C       -0.3121170     0.8099600     0.0626390
  H        0.6529500    -1.3959670    -1.2698370
  H        1.1362240    -2.1837260     0.2527190
  H       -0.4482060    -0.7692910     1.4955050
  H        2.2087130    -0.1135160     1.0603560
  H        2.6064290    -0.0309800    -0.6748690
  H       -2.2893650    -0.4737730    -0.1440310
units angstrom
no_reorient  #important for SAPT in psi4, default
symmetry c1  #important for SAPT in psi4, default
}

set PROPERTIES_ORIGIN ["COM"]
properties('MP2/aug-cc-pvtz', properties = ['dipole'])
--------------------------------------------------------------------------

    Molecular point group: c1
  Charge       = 0
  Multiplicity = 1
  Basis Set: AUG-CC-PVTZ
    Blend: AUG-CC-PVTZ
  Basis Set: (AUG-CC-PVTZ AUX)
    Blend: AUG-CC-PVTZ-JKFIT

    Orbital Energies [Eh]
    ---------------------

    Doubly Occupied:

       1A    -20.621294     2A    -20.572140     3A    -20.563818
       4A    -11.394085     5A    -11.318262     6A    -11.317765
       7A    -11.264412     8A     -1.478004     9A     -1.381667
      10A     -1.337898    11A     -1.106824    12A     -1.009986
      13A     -0.876080    14A     -0.794045    15A     -0.741465
      16A     -0.708778    17A     -0.682858    18A     -0.653125
      19A     -0.624849    20A     -0.608636    21A     -0.574334
      22A     -0.547802    23A     -0.528308    24A     -0.516693
      25A     -0.475896    26A     -0.470196    27A     -0.467119

  @DF-RHF Final Energy:  -379.67207958765715

   => Energetics <=

    Nuclear Repulsion Energy =            318.4100195871865822
    One-Electron Energy =               -1150.8915195826484705
    Two-Electron Energy =                 452.8094204078047937
    Total Energy =                       -379.6720795876571515
  Basis Set: (AUG-CC-PVTZ AUX)
    Blend: AUG-CC-PVTZ-RI
    Molecular point group: c1

    Geometry (in Angstrom), charge = 0, multiplicity = 1:

       Center              X                  Y                   Z               Mass
    ------------   -----------------  -----------------  -----------------  -----------------
         O            1.028441846683     1.056224844528    -0.093010513346    15.994914619570
         O           -1.611365153317    -1.267113155472    -0.154787513346    15.994914619570
         O           -1.195526153317     1.538779844528    -0.064698513346    15.994914619570
         C            0.841862846683    -1.306271155472    -0.195759513346    12.000000000000
         C           -0.345483653317    -0.602459555472     0.434044286654    12.000000000000
         C            1.820077846683    -0.158537155472     0.050799486654    12.000000000000
         C           -0.284574153317     0.746475844528     0.065531486654    12.000000000000
         H            0.680492846683    -1.459451155472    -1.266944513346     1.007825032230
         H            1.163766846683    -2.247210155472     0.255611486654     1.007825032230
         H           -0.420663153317    -0.832775155472     1.498397486654     1.007825032230
         H            2.236255846683    -0.177000155472     1.063248486654     1.007825032230
         H            2.633971846683    -0.094464155472    -0.671976513346     1.007825032230
         H           -2.261822153317    -0.537257155472    -0.141138513346     1.007825032230

  Basis Set: AUG-CC-PVTZ
    Blend: AUG-CC-PVTZ
  Basis Set: (AUG-CC-PVTZ AUX)
    Blend: AUG-CC-PVTZ-JKFIT
	 Reference Energy          =    -379.6720795876571515 [Eh]
	 Singles Energy            =      -0.0000000000000000 [Eh]
	 Same-Spin Energy          =      -0.3705009245397141 [Eh]
	 Opposite-Spin Energy      =      -1.1418079437659625 [Eh]
	 Correlation Energy        =      -1.5123088683056767 [Eh]
	 Total Energy              =    -381.1843884559628464 [Eh]

	 ================> DF-SCS-MP2 Energies <==================
	-----------------------------------------------------------
	 SCS Same-Spin Scale       =       0.3333333333333333 [-]
	 SCS Opposite-Spin Scale   =       1.2000000000000000 [-]
	 SCS Same-Spin Energy      =      -0.1235003081799047 [Eh]
	 SCS Opposite-Spin Energy  =      -1.3701695325191550 [Eh]
	 SCS Correlation Energy    =      -1.4936698406990596 [Eh]
	 SCS Total Energy          =    -381.1657494283562073 [Eh]
	-----------------------------------------------------------

  Dipole Moment: [D]
     X:     3.0070      Y:    -2.2260      Z:     1.1337     Total:     3.9093

*** Psi4 exiting successfully. Buy a developer a beer!
