                               Psi4 1.4a3.dev225

  ==> Input File <==

--------------------------------------------------------------------------
#psi4
#
memory 32 gb

molecule  {
0 1
  O        1.0008990     1.1197090    -0.0959030
  O       -1.6389080    -1.2036290    -0.1576800
  O       -1.2230690     1.6022640    -0.0675910
  C        0.8143200    -1.2427870    -0.1986520
  C       -0.4577570    -0.6687040     0.3963640
  C        1.7925350    -0.0950530     0.0479070
  C       -0.3073351     0.8585097     0.0516817
  H        0.6529500    -1.3959670    -1.2698370
  H        1.1362240    -2.1837260     0.2527190
  H       -0.4482060    -0.7692910     1.4955050
  H        2.2087130    -0.1135160     1.0603560
  H        2.6064290    -0.0309800    -0.6748690
  H       -2.2893650    -0.4737730    -0.1440310
units angstrom
no_reorient  #important for SAPT in psi4, default
symmetry c1  #important for SAPT in psi4, default
}

set PROPERTIES_ORIGIN ["COM"]
properties('MP2/aug-cc-pvtz', properties = ['dipole'])
--------------------------------------------------------------------------

    Molecular point group: c1
  Charge       = 0
  Multiplicity = 1
  Basis Set: AUG-CC-PVTZ
    Blend: AUG-CC-PVTZ
  Basis Set: (AUG-CC-PVTZ AUX)
    Blend: AUG-CC-PVTZ-JKFIT

    Orbital Energies [Eh]
    ---------------------

    Doubly Occupied:

       1A    -20.619860     2A    -20.577769     3A    -20.561385
       4A    -11.389229     5A    -11.318013     6A    -11.314872
       7A    -11.256072     8A     -1.477123     9A     -1.395088
      10A     -1.377130    11A     -1.088562    12A     -0.982622
      13A     -0.856366    14A     -0.794756    15A     -0.734305
      16A     -0.714861    17A     -0.688230    18A     -0.660850
      19A     -0.626555    20A     -0.607988    21A     -0.580720
      22A     -0.560919    23A     -0.536840    24A     -0.524921
      25A     -0.474128    26A     -0.471722    27A     -0.436133

  @DF-RHF Final Energy:  -379.70181880430113

   => Energetics <=

    Nuclear Repulsion Energy =            317.3497833776236803
    One-Electron Energy =               -1148.8491630768780851
    Two-Electron Energy =                 451.7975608949532784
    Total Energy =                       -379.7018188043011264
  Basis Set: (AUG-CC-PVTZ AUX)
    Blend: AUG-CC-PVTZ-RI
    Molecular point group: c1

    Geometry (in Angstrom), charge = 0, multiplicity = 1:

       Center              X                  Y                   Z               Mass
    ------------   -----------------  -----------------  -----------------  -----------------
         O            1.037844642637     1.065772336697    -0.087630408614    15.994914619570
         O           -1.601962357363    -1.257565663303    -0.149407408614    15.994914619570
         O           -1.186123357363     1.548327336697    -0.059318408614    15.994914619570
         C            0.851265642637    -1.296723663303    -0.190379408614    12.000000000000
         C           -0.420811357363    -0.722640663303     0.404636591386    12.000000000000
         C            1.829480642637    -0.148989663303     0.056179591386    12.000000000000
         C           -0.270389457363     0.804573036697     0.059954291386    12.000000000000
         H            0.689895642637    -1.449903663303    -1.261564408614     1.007825032230
         H            1.173169642637    -2.237662663303     0.260991591386     1.007825032230
         H           -0.411260357363    -0.823227663303     1.503777591386     1.007825032230
         H            2.245658642637    -0.167452663303     1.068628591386     1.007825032230
         H            2.643374642637    -0.084916663303    -0.666596408614     1.007825032230
         H           -2.252419357363    -0.527709663303    -0.135758408614     1.007825032230

  Basis Set: AUG-CC-PVTZ
    Blend: AUG-CC-PVTZ
  Basis Set: (AUG-CC-PVTZ AUX)
    Blend: AUG-CC-PVTZ-JKFIT
	 Reference Energy          =    -379.7018188043011264 [Eh]
	 Singles Energy            =      -0.0000000000000000 [Eh]
	 Same-Spin Energy          =      -0.3674062643382400 [Eh]
	 Opposite-Spin Energy      =      -1.1342335603126883 [Eh]
	 Correlation Energy        =      -1.5016398246509284 [Eh]
	 Total Energy              =    -381.2034586289520348 [Eh]

	 ================> DF-SCS-MP2 Energies <==================
	-----------------------------------------------------------
	 SCS Same-Spin Scale       =       0.3333333333333333 [-]
	 SCS Opposite-Spin Scale   =       1.2000000000000000 [-]
	 SCS Same-Spin Energy      =      -0.1224687547794133 [Eh]
	 SCS Opposite-Spin Energy  =      -1.3610802723752260 [Eh]
	 SCS Correlation Energy    =      -1.4835490271546394 [Eh]
	 SCS Total Energy          =    -381.1853678314557783 [Eh]
	-----------------------------------------------------------

  Dipole Moment: [D]
     X:     2.7057      Y:    -2.0664      Z:     0.9335     Total:     3.5302

*** Psi4 exiting successfully. Buy a developer a beer!
