                               Psi4 1.4a3.dev225

  ==> Input File <==

--------------------------------------------------------------------------
#psi4
#
memory 32 gb

molecule  {
0 1
  O        1.0008990     1.1197090    -0.0959030
  O       -1.6389080    -1.2036290    -0.1576800
  O       -1.2230690     1.6022640    -0.0675910
  C        0.8143200    -1.2427870    -0.1986520
  C       -0.4577570    -0.6687040     0.3963640
  C        1.7925350    -0.0950530     0.0479070
  C       -0.2637854     0.8213617     0.0568031
  H        0.6529500    -1.3959670    -1.2698370
  H        1.1362240    -2.1837260     0.2527190
  H       -0.4482060    -0.7692910     1.4955050
  H        2.2087130    -0.1135160     1.0603560
  H        2.6064290    -0.0309800    -0.6748690
  H       -2.2893650    -0.4737730    -0.1440310
units angstrom
no_reorient  #important for SAPT in psi4, default
symmetry c1  #important for SAPT in psi4, default
}

set PROPERTIES_ORIGIN ["COM"]
properties('MP2/aug-cc-pvtz', properties = ['dipole'])
--------------------------------------------------------------------------

    Molecular point group: c1
  Charge       = 0
  Multiplicity = 1
  Basis Set: AUG-CC-PVTZ
    Blend: AUG-CC-PVTZ
  Basis Set: (AUG-CC-PVTZ AUX)
    Blend: AUG-CC-PVTZ-JKFIT

    Orbital Energies [Eh]
    ---------------------

    Doubly Occupied:

       1A    -20.632563     2A    -20.579528     3A    -20.549940
       4A    -11.392547     5A    -11.323523     6A    -11.317914
       7A    -11.260132     8A     -1.488968     9A     -1.385819
      10A     -1.354119    11A     -1.097574    12A     -0.992200
      13A     -0.864519    14A     -0.801948    15A     -0.740934
      16A     -0.715138    17A     -0.689687    18A     -0.663178
      19A     -0.616282    20A     -0.606849    21A     -0.585444
      22A     -0.559179    23A     -0.536164    24A     -0.521060
      25A     -0.474113    26A     -0.463332    27A     -0.440971

  @DF-RHF Final Energy:  -379.69717858393096

   => Energetics <=

    Nuclear Repulsion Energy =            317.5888678837320640
    One-Electron Energy =               -1149.2648422948684583
    Two-Electron Energy =                 451.9787958272054311
    Total Energy =                       -379.6971785839309632
  Basis Set: (AUG-CC-PVTZ AUX)
    Blend: AUG-CC-PVTZ-RI
    Molecular point group: c1

    Geometry (in Angstrom), charge = 0, multiplicity = 1:

       Center              X                  Y                   Z               Mass
    ------------   -----------------  -----------------  -----------------  -----------------
         O            1.032722740028     1.070141332078    -0.088232739101    15.994914619570
         O           -1.607084259972    -1.253196667922    -0.150009739101    15.994914619570
         O           -1.191245259972     1.552696332078    -0.059920739101    15.994914619570
         C            0.846143740028    -1.292354667922    -0.190981739101    12.000000000000
         C           -0.425933259972    -0.718271667922     0.404034260899    12.000000000000
         C            1.824358740028    -0.144620667922     0.055577260899    12.000000000000
         C           -0.231961659972     0.771794032078     0.064473360899    12.000000000000
         H            0.684773740028    -1.445534667922    -1.262166739101     1.007825032230
         H            1.168047740028    -2.233293667922     0.260389260899     1.007825032230
         H           -0.416382259972    -0.818858667922     1.503175260899     1.007825032230
         H            2.240536740028    -0.163083667922     1.068026260899     1.007825032230
         H            2.638252740028    -0.080547667922    -0.667198739101     1.007825032230
         H           -2.257541259972    -0.523340667922    -0.136360739101     1.007825032230

  Basis Set: AUG-CC-PVTZ
    Blend: AUG-CC-PVTZ
  Basis Set: (AUG-CC-PVTZ AUX)
    Blend: AUG-CC-PVTZ-JKFIT
	 Reference Energy          =    -379.6971785839309632 [Eh]
	 Singles Energy            =      -0.0000000000000000 [Eh]
	 Same-Spin Energy          =      -0.3686283355119195 [Eh]
	 Opposite-Spin Energy      =      -1.1365363729322151 [Eh]
	 Correlation Energy        =      -1.5051647084441346 [Eh]
	 Total Energy              =    -381.2023432923750761 [Eh]

	 ================> DF-SCS-MP2 Energies <==================
	-----------------------------------------------------------
	 SCS Same-Spin Scale       =       0.3333333333333333 [-]
	 SCS Opposite-Spin Scale   =       1.2000000000000000 [-]
	 SCS Same-Spin Energy      =      -0.1228761118373065 [Eh]
	 SCS Opposite-Spin Energy  =      -1.3638436475186582 [Eh]
	 SCS Correlation Energy    =      -1.4867197593559647 [Eh]
	 SCS Total Energy          =    -381.1838983432869554 [Eh]
	-----------------------------------------------------------

  Dipole Moment: [D]
     X:     3.1217      Y:    -2.3356      Z:     0.9569     Total:     4.0145

*** Psi4 exiting successfully. Buy a developer a beer!
