                               Psi4 1.3.2 release

  ==> Input File <==

--------------------------------------------------------------------------
#psi4
#
memory 32 gb

molecule  {
0 1
  O        1.0008990     1.1197090    -0.0959030
  O       -1.6389080    -1.2036290    -0.1576800
  O       -1.2230690     1.6022640    -0.0675910
  C        0.8143200    -1.2427870    -0.1986520
  C       -0.4577570    -0.6687040     0.3963640
  C        1.7925350    -0.0950530     0.0479070
  C       -0.3121170     0.8099600     0.0626390
  H        0.6630073    -1.4325432    -1.2654410
  H        1.1362240    -2.1837260     0.2527190
  H       -0.4482060    -0.7692910     1.4955050
  H        2.2087130    -0.1135160     1.0603560
  H        2.6064290    -0.0309800    -0.6748690
  H       -2.2893650    -0.4737730    -0.1440310
units angstrom
no_reorient  #important for SAPT in psi4, default
symmetry c1  #important for SAPT in psi4, default
}

set PROPERTIES_ORIGIN ["COM"]
properties('MP2/aug-cc-pvtz', properties = ['dipole'])
--------------------------------------------------------------------------

    Molecular point group: c1
  Charge       = 0
  Multiplicity = 1
  Basis Set: AUG-CC-PVTZ
    Blend: AUG-CC-PVTZ
  Basis Set: (AUG-CC-PVTZ AUX)
    Blend: AUG-CC-PVTZ-JKFIT

    Orbital Energies [Eh]
    ---------------------

    Doubly Occupied:

       1A    -20.620356     2A    -20.581021     3A    -20.559964
       4A    -11.392646     5A    -11.318778     6A    -11.317397
       7A    -11.258705     8A     -1.469728     9A     -1.388338
      10A     -1.370693    11A     -1.093211    12A     -0.988201
      13A     -0.862824    14A     -0.797472    15A     -0.733757
      16A     -0.714079    17A     -0.689337    18A     -0.658596
      19A     -0.622528    20A     -0.604663    21A     -0.581969
      22A     -0.558948    23A     -0.536525    24A     -0.522868
      25A     -0.475253    26A     -0.468428    27A     -0.446809

  @DF-RHF Final Energy:  -379.70072381684537

   => Energetics <=

    Nuclear Repulsion Energy =            317.4004225519288980
    One-Electron Energy =               -1148.9361059987254521
    Two-Electron Energy =                 451.8349596299512427
    Total Energy =                       -379.7007238168453682
  Basis Set: (AUG-CC-PVTZ AUX)
    Blend: AUG-CC-PVTZ-RI
    Molecular point group: c1

    Geometry (in Angstrom), charge = 0, multiplicity = 1:

       Center              X                  Y                   Z               Mass
    ------------   -----------------  -----------------  -----------------  -----------------
         O            1.038307702687     1.071843575793    -0.088962524091    15.994914619570
         O           -1.601499297313    -1.251494424207    -0.150739524091    15.994914619570
         O           -1.185660297313     1.554398575793    -0.060650524091    15.994914619570
         C            0.851728702687    -1.290652424207    -0.191711524091    12.000000000000
         C           -0.420348297313    -0.716569424207     0.403304475909    12.000000000000
         C            1.829943702687    -0.142918424207     0.054847475909    12.000000000000
         C           -0.274708297313     0.762094575793     0.069579475909    12.000000000000
         H            0.700416002687    -1.480408624207    -1.258500524091     1.007825032230
         H            1.173632702687    -2.231591424207     0.259659475909     1.007825032230
         H           -0.410797297313    -0.817156424207     1.502445475909     1.007825032230
         H            2.246121702687    -0.161381424207     1.067296475909     1.007825032230
         H            2.643837702687    -0.078845424207    -0.667928524091     1.007825032230
         H           -2.251956297313    -0.521638424207    -0.137090524091     1.007825032230

  Basis Set: AUG-CC-PVTZ
    Blend: AUG-CC-PVTZ
  Basis Set: (AUG-CC-PVTZ AUX)
    Blend: AUG-CC-PVTZ-JKFIT
	 Reference Energy          =    -379.7007238168453682 [Eh]
	 Singles Energy            =      -0.0000000000000000 [Eh]
	 Same-Spin Energy          =      -0.3683920184087829 [Eh]
	 Opposite-Spin Energy      =      -1.1363806523244153 [Eh]
	 Correlation Energy        =      -1.5047726707331983 [Eh]
	 Total Energy              =    -381.2054964875785572 [Eh]

	 ================> DF-SCS-MP2 Energies <==================
	-----------------------------------------------------------
	 SCS Same-Spin Scale       =       0.3333333333333333 [-]
	 SCS Opposite-Spin Scale   =       1.2000000000000000 [-]
	 SCS Same-Spin Energy      =      -0.1227973394695943 [Eh]
	 SCS Opposite-Spin Energy  =      -1.3636567827892982 [Eh]
	 SCS Correlation Energy    =      -1.4864541222588925 [Eh]
	 SCS Total Energy          =    -381.1871779391042878 [Eh]
	-----------------------------------------------------------

  Dipole Moment: [D]
     X:     2.6976      Y:    -2.2997      Z:     0.9775     Total:     3.6771

*** Psi4 exiting successfully. Buy a developer a beer!
