                               Psi4 1.3.2 release

  ==> Input File <==

--------------------------------------------------------------------------
#psi4
#
memory 32 gb

molecule  {
0 1
  O        1.0008990     1.1197090    -0.0959030
  O       -1.6272114    -1.2473117    -0.1382543
  O       -1.2230690     1.6022640    -0.0675910
  C        0.8143200    -1.2427870    -0.1986520
  C       -0.4577570    -0.6687040     0.3963640
  C        1.7925350    -0.0950530     0.0479070
  C       -0.3121170     0.8099600     0.0626390
  H        0.6529500    -1.3959670    -1.2698370
  H        1.1362240    -2.1837260     0.2527190
  H       -0.4482060    -0.7692910     1.4955050
  H        2.2087130    -0.1135160     1.0603560
  H        2.6064290    -0.0309800    -0.6748690
  H       -2.2893650    -0.4737730    -0.1440310
units angstrom
no_reorient  #important for SAPT in psi4, default
symmetry c1  #important for SAPT in psi4, default
}

set PROPERTIES_ORIGIN ["COM"]
properties('MP2/aug-cc-pvtz', properties = ['dipole'])
--------------------------------------------------------------------------

    Molecular point group: c1
  Charge       = 0
  Multiplicity = 1
  Basis Set: AUG-CC-PVTZ
    Blend: AUG-CC-PVTZ
  Basis Set: (AUG-CC-PVTZ AUX)
    Blend: AUG-CC-PVTZ-JKFIT

    Orbital Energies [Eh]
    ---------------------

    Doubly Occupied:

       1A    -20.621171     2A    -20.585354     3A    -20.561211
       4A    -11.394011     5A    -11.317808     6A    -11.316936
       7A    -11.257965     8A     -1.470289     9A     -1.384253
      10A     -1.369705    11A     -1.092040    12A     -0.987384
      13A     -0.862150    14A     -0.794337    15A     -0.734782
      16A     -0.709131    17A     -0.686558    18A     -0.658041
      19A     -0.622906    20A     -0.604552    21A     -0.580777
      22A     -0.560918    23A     -0.534554    24A     -0.524538
      25A     -0.473114    26A     -0.468940    27A     -0.447757

  @DF-RHF Final Energy:  -379.69641850559839

   => Energetics <=

    Nuclear Repulsion Energy =            317.0210967471083450
    One-Electron Energy =               -1148.1926659032933458
    Two-Electron Energy =                 451.4751506505866132
    Total Energy =                       -379.6964185055983876
  Basis Set: (AUG-CC-PVTZ AUX)
    Blend: AUG-CC-PVTZ-RI
    Molecular point group: c1

    Geometry (in Angstrom), charge = 0, multiplicity = 1:

       Center              X                  Y                   Z               Mass
    ------------   -----------------  -----------------  -----------------  -----------------
         O            1.036573436474     1.078330174423    -0.091964356188    15.994914619570
         O           -1.591536963526    -1.288690525577    -0.134315656188    15.994914619570
         O           -1.187394563526     1.560885174423    -0.063652356188    15.994914619570
         C            0.849994436474    -1.284165825577    -0.194713356188    12.000000000000
         C           -0.422082563526    -0.710082825577     0.400302643812    12.000000000000
         C            1.828209436474    -0.136431825577     0.051845643812    12.000000000000
         C           -0.276442563526     0.768581174423     0.066577643812    12.000000000000
         H            0.688624436474    -1.437345825577    -1.265898356188     1.007825032230
         H            1.171898436474    -2.225104825577     0.256657643812     1.007825032230
         H           -0.412531563526    -0.810669825577     1.499443643812     1.007825032230
         H            2.244387436474    -0.154894825577     1.064294643812     1.007825032230
         H            2.642103436474    -0.072358825577    -0.670930356188     1.007825032230
         H           -2.253690563526    -0.515151825577    -0.140092356188     1.007825032230

  Basis Set: AUG-CC-PVTZ
    Blend: AUG-CC-PVTZ
  Basis Set: (AUG-CC-PVTZ AUX)
    Blend: AUG-CC-PVTZ-JKFIT
	 Reference Energy          =    -379.6964185055983876 [Eh]
	 Singles Energy            =      -0.0000000000000000 [Eh]
	 Same-Spin Energy          =      -0.3690253872452020 [Eh]
	 Opposite-Spin Energy      =      -1.1379502153475647 [Eh]
	 Correlation Energy        =      -1.5069756025927667 [Eh]
	 Total Energy              =    -381.2033941081911621 [Eh]

	 ================> DF-SCS-MP2 Energies <==================
	-----------------------------------------------------------
	 SCS Same-Spin Scale       =       0.3333333333333333 [-]
	 SCS Opposite-Spin Scale   =       1.2000000000000000 [-]
	 SCS Same-Spin Energy      =      -0.1230084624150673 [Eh]
	 SCS Opposite-Spin Energy  =      -1.3655402584170775 [Eh]
	 SCS Correlation Energy    =      -1.4885487208321448 [Eh]
	 SCS Total Energy          =    -381.1849672264305582 [Eh]
	-----------------------------------------------------------

  Dipole Moment: [D]
     X:     2.6785      Y:    -2.2188      Z:     0.9330     Total:     3.6011

*** Psi4 exiting successfully. Buy a developer a beer!
