                               Psi4 1.3.2 release

  ==> Input File <==

--------------------------------------------------------------------------
#psi4
#
memory 32 gb

molecule  {
0 1
  O        1.0008990     1.1197090    -0.0959030
  O       -1.6389080    -1.2036290    -0.1576800
  O       -1.2230690     1.6022640    -0.0675910
  C        0.8143200    -1.2427870    -0.1986520
  C       -0.4577570    -0.6687040     0.3963640
  C        1.7925350    -0.0950530     0.0479070
  C       -0.3121170     0.8099600     0.0626390
  H        0.6334373    -1.3222996    -1.2747100
  H        1.1362240    -2.1837260     0.2527190
  H       -0.4482060    -0.7692910     1.4955050
  H        2.2087130    -0.1135160     1.0603560
  H        2.6064290    -0.0309800    -0.6748690
  H       -2.2893650    -0.4737730    -0.1440310
units angstrom
no_reorient  #important for SAPT in psi4, default
symmetry c1  #important for SAPT in psi4, default
}

set PROPERTIES_ORIGIN ["COM"]
properties('MP2/aug-cc-pvtz', properties = ['dipole'])
--------------------------------------------------------------------------

    Molecular point group: c1
  Charge       = 0
  Multiplicity = 1
  Basis Set: AUG-CC-PVTZ
    Blend: AUG-CC-PVTZ
  Basis Set: (AUG-CC-PVTZ AUX)
    Blend: AUG-CC-PVTZ-JKFIT

    Orbital Energies [Eh]
    ---------------------

    Doubly Occupied:

       1A    -20.620546     2A    -20.581093     3A    -20.560099
       4A    -11.392728     5A    -11.318232     6A    -11.316940
       7A    -11.259348     8A     -1.469903     9A     -1.388450
      10A     -1.370850    11A     -1.094412    12A     -0.988135
      13A     -0.861046    14A     -0.797591    15A     -0.736221
      16A     -0.714296    17A     -0.687796    18A     -0.658446
      19A     -0.621751    20A     -0.604688    21A     -0.583132
      22A     -0.562677    23A     -0.533272    24A     -0.524584
      25A     -0.474430    26A     -0.468392    27A     -0.447072

  @DF-RHF Final Energy:  -379.70006786583411

   => Energetics <=

    Nuclear Repulsion Energy =            317.5995222663229356
    One-Electron Energy =               -1149.3269195886871330
    Two-Electron Energy =                 452.0273294565300262
    Total Energy =                       -379.7000678658341144
  Basis Set: (AUG-CC-PVTZ AUX)
    Blend: AUG-CC-PVTZ-RI
    Molecular point group: c1

    Geometry (in Angstrom), charge = 0, multiplicity = 1:

       Center              X                  Y                   Z               Mass
    ------------   -----------------  -----------------  -----------------  -----------------
         O            1.038599782383     1.070754637098    -0.088870968910    15.994914619570
         O           -1.601207217617    -1.252583362902    -0.150647968910    15.994914619570
         O           -1.185368217617     1.553309637098    -0.060558968910    15.994914619570
         C            0.852020782383    -1.291741362902    -0.191619968910    12.000000000000
         C           -0.420056217617    -0.717658362902     0.403396031090    12.000000000000
         C            1.830235782383    -0.144007362902     0.054939031090    12.000000000000
         C           -0.274416217617     0.761005637098     0.069671031090    12.000000000000
         H            0.671138082383    -1.371253962902    -1.267677968910     1.007825032230
         H            1.173924782383    -2.232680362902     0.259751031090     1.007825032230
         H           -0.410505217617    -0.818245362902     1.502537031090     1.007825032230
         H            2.246413782383    -0.162470362902     1.067388031090     1.007825032230
         H            2.644129782383    -0.079934362902    -0.667836968910     1.007825032230
         H           -2.251664217617    -0.522727362902    -0.136998968910     1.007825032230

  Basis Set: AUG-CC-PVTZ
    Blend: AUG-CC-PVTZ
  Basis Set: (AUG-CC-PVTZ AUX)
    Blend: AUG-CC-PVTZ-JKFIT
	 Reference Energy          =    -379.7000678658341144 [Eh]
	 Singles Energy            =      -0.0000000000000000 [Eh]
	 Same-Spin Energy          =      -0.3685453109584708 [Eh]
	 Opposite-Spin Energy      =      -1.1366265134965847 [Eh]
	 Correlation Energy        =      -1.5051718244550556 [Eh]
	 Total Energy              =    -381.2052396902891473 [Eh]

	 ================> DF-SCS-MP2 Energies <==================
	-----------------------------------------------------------
	 SCS Same-Spin Scale       =       0.3333333333333333 [-]
	 SCS Opposite-Spin Scale   =       1.2000000000000000 [-]
	 SCS Same-Spin Energy      =      -0.1228484369861569 [Eh]
	 SCS Opposite-Spin Energy  =      -1.3639518161959017 [Eh]
	 SCS Correlation Energy    =      -1.4868002531820586 [Eh]
	 SCS Total Energy          =    -381.1868681190161965 [Eh]
	-----------------------------------------------------------

  Dipole Moment: [D]
     X:     2.6948      Y:    -2.2703      Z:     0.9884     Total:     3.6596

*** Psi4 exiting successfully. Buy a developer a beer!
