                               Psi4 1.4a3.dev225

  ==> Input File <==

--------------------------------------------------------------------------
#psi4
#
memory 32 gb

molecule  {
0 1
  O        1.0008990     1.1197090    -0.0959030
  O       -1.6389080    -1.2036290    -0.1576800
  O       -1.2230690     1.6022640    -0.0675910
  C        0.8143200    -1.2427870    -0.1986520
  C       -0.4577570    -0.6687040     0.3963640
  C        1.7925350    -0.0950530     0.0479070
  C       -0.3102043     0.8293799     0.0582561
  H        0.6529500    -1.3959670    -1.2698370
  H        1.1362240    -2.1837260     0.2527190
  H       -0.4482060    -0.7692910     1.4955050
  H        2.2087130    -0.1135160     1.0603560
  H        2.6064290    -0.0309800    -0.6748690
  H       -2.2893650    -0.4737730    -0.1440310
units angstrom
no_reorient  #important for SAPT in psi4, default
symmetry c1  #important for SAPT in psi4, default
}

set PROPERTIES_ORIGIN ["COM"]
properties('MP2/aug-cc-pvtz', properties = ['dipole'])
--------------------------------------------------------------------------

    Molecular point group: c1
  Charge       = 0
  Multiplicity = 1
  Basis Set: AUG-CC-PVTZ
    Blend: AUG-CC-PVTZ
  Basis Set: (AUG-CC-PVTZ AUX)
    Blend: AUG-CC-PVTZ-JKFIT

    Orbital Energies [Eh]
    ---------------------

    Doubly Occupied:

       1A    -20.620170     2A    -20.579746     3A    -20.560492
       4A    -11.391191     5A    -11.317541     6A    -11.317248
       7A    -11.257777     8A     -1.472618     9A     -1.389386
      10A     -1.375046    11A     -1.091414    12A     -0.985852
      13A     -0.859883    14A     -0.796429    15A     -0.734356
      16A     -0.714430    17A     -0.688409    18A     -0.659422
      19A     -0.624162    20A     -0.605944    21A     -0.581613
      22A     -0.560430    23A     -0.536073    24A     -0.524119
      25A     -0.473901    26A     -0.470582    27A     -0.442967

  @DF-RHF Final Energy:  -379.70205073440297

   => Energetics <=

    Nuclear Repulsion Energy =            317.4168344730123863
    One-Electron Energy =               -1148.9753627602010511
    Two-Electron Energy =                 451.8564775527856909
    Total Energy =                       -379.7020507344029738
  Basis Set: (AUG-CC-PVTZ AUX)
    Blend: AUG-CC-PVTZ-RI
    Molecular point group: c1

    Geometry (in Angstrom), charge = 0, multiplicity = 1:

       Center              X                  Y                   Z               Mass
    ------------   -----------------  -----------------  -----------------  -----------------
         O            1.038182090724     1.069198307453    -0.088403627178    15.994914619570
         O           -1.601624909276    -1.254139692547    -0.150180627178    15.994914619570
         O           -1.185785909276     1.551753307453    -0.060091627178    15.994914619570
         C            0.851603090724    -1.293297692547    -0.191152627178    12.000000000000
         C           -0.420473909276    -0.719214692547     0.403863372822    12.000000000000
         C            1.829818090724    -0.145563692547     0.055406372822    12.000000000000
         C           -0.272921209276     0.778869207453     0.065755472822    12.000000000000
         H            0.690233090724    -1.446477692547    -1.262337627178     1.007825032230
         H            1.173507090724    -2.234236692547     0.260218372822     1.007825032230
         H           -0.410922909276    -0.819801692547     1.503004372822     1.007825032230
         H            2.245996090724    -0.164026692547     1.067855372822     1.007825032230
         H            2.643712090724    -0.081490692547    -0.667369627178     1.007825032230
         H           -2.252081909276    -0.524283692547    -0.136531627178     1.007825032230

  Basis Set: AUG-CC-PVTZ
    Blend: AUG-CC-PVTZ
  Basis Set: (AUG-CC-PVTZ AUX)
    Blend: AUG-CC-PVTZ-JKFIT
	 Reference Energy          =    -379.7020507344029738 [Eh]
	 Singles Energy            =      -0.0000000000000000 [Eh]
	 Same-Spin Energy          =      -0.3679806813430996 [Eh]
	 Opposite-Spin Energy      =      -1.1354859823795120 [Eh]
	 Correlation Energy        =      -1.5034666637226115 [Eh]
	 Total Energy              =    -381.2055173981256075 [Eh]

	 ================> DF-SCS-MP2 Energies <==================
	-----------------------------------------------------------
	 SCS Same-Spin Scale       =       0.3333333333333333 [-]
	 SCS Opposite-Spin Scale   =       1.2000000000000000 [-]
	 SCS Same-Spin Energy      =      -0.1226602271143665 [Eh]
	 SCS Opposite-Spin Energy  =      -1.3625831788554144 [Eh]
	 SCS Correlation Energy    =      -1.4852434059697808 [Eh]
	 SCS Total Energy          =    -381.1872941403727282 [Eh]
	-----------------------------------------------------------

  Dipole Moment: [D]
     X:     2.7008      Y:    -2.2030      Z:     0.9622     Total:     3.6157

*** Psi4 exiting successfully. Buy a developer a beer!
