                               Psi4 1.4a3.dev225

  ==> Input File <==

--------------------------------------------------------------------------
#psi4
#
memory 32 gb

molecule  {
0 1
  O        1.0008990     1.1197090    -0.0959030
  O       -1.6389080    -1.2036290    -0.1576800
  O       -1.2230690     1.6022640    -0.0675910
  C        0.8143200    -1.2427870    -0.1986520
  C       -0.4577570    -0.6687040     0.3963640
  C        1.7925350    -0.0950530     0.0479070
  C       -0.2927844     0.8145207     0.0603047
  H        0.6529500    -1.3959670    -1.2698370
  H        1.1362240    -2.1837260     0.2527190
  H       -0.4482060    -0.7692910     1.4955050
  H        2.2087130    -0.1135160     1.0603560
  H        2.6064290    -0.0309800    -0.6748690
  H       -2.2893650    -0.4737730    -0.1440310
units angstrom
no_reorient  #important for SAPT in psi4, default
symmetry c1  #important for SAPT in psi4, default
}

set PROPERTIES_ORIGIN ["COM"]
properties('MP2/aug-cc-pvtz', properties = ['dipole'])
--------------------------------------------------------------------------

    Molecular point group: c1
  Charge       = 0
  Multiplicity = 1
  Basis Set: AUG-CC-PVTZ
    Blend: AUG-CC-PVTZ
  Basis Set: (AUG-CC-PVTZ AUX)
    Blend: AUG-CC-PVTZ-JKFIT

    Orbital Energies [Eh]
    ---------------------

    Doubly Occupied:

       1A    -20.625297     2A    -20.580425     3A    -20.556032
       4A    -11.392641     5A    -11.319735     6A    -11.318273
       7A    -11.259382     8A     -1.476228     9A     -1.387541
      10A     -1.364790    11A     -1.095077    12A     -0.989682
      13A     -0.863105    14A     -0.799119    15A     -0.736904
      16A     -0.714253    17A     -0.689066    18A     -0.660421
      19A     -0.619908    20A     -0.605321    21A     -0.583570
      22A     -0.559550    23A     -0.535866    24A     -0.522681
      25A     -0.474608    26A     -0.466967    27A     -0.444836

  @DF-RHF Final Energy:  -379.70011709582070

   => Energetics <=

    Nuclear Repulsion Energy =            317.5082686375849335
    One-Electron Energy =               -1149.1342150415616743
    Two-Electron Energy =                 451.9258293081560396
    Total Energy =                       -379.7001170958207013
  Basis Set: (AUG-CC-PVTZ AUX)
    Blend: AUG-CC-PVTZ-RI
    Molecular point group: c1

    Geometry (in Angstrom), charge = 0, multiplicity = 1:

       Center              X                  Y                   Z               Mass
    ------------   -----------------  -----------------  -----------------  -----------------
         O            1.036133327328     1.070945905605    -0.088644564077    15.994914619570
         O           -1.603673672672    -1.252392094395    -0.150421564077    15.994914619570
         O           -1.187834672672     1.553500905605    -0.060332564077    15.994914619570
         C            0.849554327328    -1.291550094395    -0.191393564077    12.000000000000
         C           -0.422522672672    -0.717467094395     0.403622435923    12.000000000000
         C            1.827769327328    -0.143816094395     0.055165435923    12.000000000000
         C           -0.257550072672     0.765757605605     0.067563135923    12.000000000000
         H            0.688184327328    -1.444730094395    -1.262578564077     1.007825032230
         H            1.171458327328    -2.232489094395     0.259977435923     1.007825032230
         H           -0.412971672672    -0.818054094395     1.502763435923     1.007825032230
         H            2.243947327328    -0.162279094395     1.067614435923     1.007825032230
         H            2.641663327328    -0.079743094395    -0.667610564077     1.007825032230
         H           -2.254130672672    -0.522536094395    -0.136772564077     1.007825032230

  Basis Set: AUG-CC-PVTZ
    Blend: AUG-CC-PVTZ
  Basis Set: (AUG-CC-PVTZ AUX)
    Blend: AUG-CC-PVTZ-JKFIT
	 Reference Energy          =    -379.7001170958207013 [Eh]
	 Singles Energy            =      -0.0000000000000000 [Eh]
	 Same-Spin Energy          =      -0.3684943121722137 [Eh]
	 Opposite-Spin Energy      =      -1.1364542996381404 [Eh]
	 Correlation Energy        =      -1.5049486118103541 [Eh]
	 Total Energy              =    -381.2050657076310358 [Eh]

	 ================> DF-SCS-MP2 Energies <==================
	-----------------------------------------------------------
	 SCS Same-Spin Scale       =       0.3333333333333333 [-]
	 SCS Opposite-Spin Scale   =       1.2000000000000000 [-]
	 SCS Same-Spin Energy      =      -0.1228314373907379 [Eh]
	 SCS Opposite-Spin Energy  =      -1.3637451595657684 [Eh]
	 SCS Correlation Energy    =      -1.4865765969565063 [Eh]
	 SCS Total Energy          =    -381.1866936927772258 [Eh]
	-----------------------------------------------------------

  Dipole Moment: [D]
     X:     2.8671      Y:    -2.3067      Z:     0.9708     Total:     3.8057

*** Psi4 exiting successfully. Buy a developer a beer!
