                               Psi4 1.3.2 release

  ==> Input File <==

--------------------------------------------------------------------------
#psi4
#
memory 32 gb

molecule  {
0 1
  O        1.0008990     1.1197090    -0.0959030
  O       -1.6650658    -1.1746786    -0.1276802
  O       -1.2230690     1.6022640    -0.0675910
  C        0.8143200    -1.2427870    -0.1986520
  C       -0.4577570    -0.6687040     0.3963640
  C        1.7925350    -0.0950530     0.0479070
  C       -0.3121170     0.8099600     0.0626390
  H        0.6529500    -1.3959670    -1.2698370
  H        1.1362240    -2.1837260     0.2527190
  H       -0.4482060    -0.7692910     1.4955050
  H        2.2087130    -0.1135160     1.0603560
  H        2.6064290    -0.0309800    -0.6748690
  H       -2.2893650    -0.4737730    -0.1440310
units angstrom
no_reorient  #important for SAPT in psi4, default
symmetry c1  #important for SAPT in psi4, default
}

set PROPERTIES_ORIGIN ["COM"]
properties('MP2/aug-cc-pvtz', properties = ['dipole'])
--------------------------------------------------------------------------

    Molecular point group: c1
  Charge       = 0
  Multiplicity = 1
  Basis Set: AUG-CC-PVTZ
    Blend: AUG-CC-PVTZ
  Basis Set: (AUG-CC-PVTZ AUX)
    Blend: AUG-CC-PVTZ-JKFIT

    Orbital Energies [Eh]
    ---------------------

    Doubly Occupied:

       1A    -20.620331     2A    -20.576181     3A    -20.559484
       4A    -11.392295     5A    -11.319380     6A    -11.318045
       7A    -11.260471     8A     -1.469840     9A     -1.393673
      10A     -1.371466    11A     -1.095644    12A     -0.989504
      13A     -0.862629    14A     -0.802337    15A     -0.734928
      16A     -0.718991    17A     -0.689465    18A     -0.658424
      19A     -0.622175    20A     -0.605744    21A     -0.584959
      22A     -0.559403    23A     -0.536713    24A     -0.524345
      25A     -0.474064    26A     -0.468404    27A     -0.447124

  @DF-RHF Final Energy:  -379.70188950002154

   => Energetics <=

    Nuclear Repulsion Energy =            317.6289489447283358
    One-Electron Energy =               -1149.3496393986622479
    Two-Electron Energy =                 452.0188009539123755
    Total Energy =                       -379.7018895000215366
  Basis Set: (AUG-CC-PVTZ AUX)
    Blend: AUG-CC-PVTZ-RI
    Molecular point group: c1

    Geometry (in Angstrom), charge = 0, multiplicity = 1:

       Center              X                  Y                   Z               Mass
    ------------   -----------------  -----------------  -----------------  -----------------
         O            1.042507650363     1.066943906227    -0.093621996279    15.994914619570
         O           -1.623457149637    -1.227443693773    -0.125399196279    15.994914619570
         O           -1.181460349637     1.549498906227    -0.065309996279    15.994914619570
         C            0.855928650363    -1.295552093773    -0.196370996279    12.000000000000
         C           -0.416148349637    -0.721469093773     0.398645003721    12.000000000000
         C            1.834143650363    -0.147818093773     0.050188003721    12.000000000000
         C           -0.270508349637     0.757194906227     0.064920003721    12.000000000000
         H            0.694558650363    -1.448732093773    -1.267555996279     1.007825032230
         H            1.177832650363    -2.236491093773     0.255000003721     1.007825032230
         H           -0.406597349637    -0.822056093773     1.497786003721     1.007825032230
         H            2.250321650363    -0.166281093773     1.062637003721     1.007825032230
         H            2.648037650363    -0.083745093773    -0.672587996279     1.007825032230
         H           -2.247756349637    -0.526538093773    -0.141749996279     1.007825032230

  Basis Set: AUG-CC-PVTZ
    Blend: AUG-CC-PVTZ
  Basis Set: (AUG-CC-PVTZ AUX)
    Blend: AUG-CC-PVTZ-JKFIT
	 Reference Energy          =    -379.7018895000215366 [Eh]
	 Singles Energy            =      -0.0000000000000000 [Eh]
	 Same-Spin Energy          =      -0.3678427969971727 [Eh]
	 Opposite-Spin Energy      =      -1.1350440759006668 [Eh]
	 Correlation Energy        =      -1.5028868728978395 [Eh]
	 Total Energy              =    -381.2047763729193548 [Eh]

	 ================> DF-SCS-MP2 Energies <==================
	-----------------------------------------------------------
	 SCS Same-Spin Scale       =       0.3333333333333333 [-]
	 SCS Opposite-Spin Scale   =       1.2000000000000000 [-]
	 SCS Same-Spin Energy      =      -0.1226142656657242 [Eh]
	 SCS Opposite-Spin Energy  =      -1.3620528910808001 [Eh]
	 SCS Correlation Energy    =      -1.4846671567465244 [Eh]
	 SCS Total Energy          =    -381.1865566567680617 [Eh]
	-----------------------------------------------------------

  Dipole Moment: [D]
     X:     2.7645      Y:    -2.3217      Z:     0.9251     Total:     3.7268

*** Psi4 exiting successfully. Buy a developer a beer!
