                               Psi4 1.4a3.dev225

  ==> Input File <==

--------------------------------------------------------------------------
#psi4
#
memory 32 gb

molecule  {
0 1
  O        1.0008990     1.1197090    -0.0959030
  O       -1.6389080    -1.2036290    -0.1576800
  O       -1.2230690     1.6022640    -0.0675910
  C        0.8143200    -1.2427870    -0.1986520
  C       -0.4577570    -0.6687040     0.3963640
  C        1.7925350    -0.0950530     0.0479070
  C       -0.2971133     0.7969105     0.0647839
  H        0.6529500    -1.3959670    -1.2698370
  H        1.1362240    -2.1837260     0.2527190
  H       -0.4482060    -0.7692910     1.4955050
  H        2.2087130    -0.1135160     1.0603560
  H        2.6064290    -0.0309800    -0.6748690
  H       -2.2893650    -0.4737730    -0.1440310
units angstrom
no_reorient  #important for SAPT in psi4, default
symmetry c1  #important for SAPT in psi4, default
}

set PROPERTIES_ORIGIN ["COM"]
properties('MP2/aug-cc-pvtz', properties = ['dipole'])
--------------------------------------------------------------------------

    Molecular point group: c1
  Charge       = 0
  Multiplicity = 1
  Basis Set: AUG-CC-PVTZ
    Blend: AUG-CC-PVTZ
  Basis Set: (AUG-CC-PVTZ AUX)
    Blend: AUG-CC-PVTZ-JKFIT

    Orbital Energies [Eh]
    ---------------------

    Doubly Occupied:

       1A    -20.624824     2A    -20.581645     3A    -20.556195
       4A    -11.393964     5A    -11.319361     6A    -11.319105
       7A    -11.260299     8A     -1.473015     9A     -1.388176
      10A     -1.360330    11A     -1.096856    12A     -0.991463
      13A     -0.865016    14A     -0.799748    15A     -0.736783
      16A     -0.714007    17A     -0.689566    18A     -0.659526
      19A     -0.618179    20A     -0.604327    21A     -0.584058
      22A     -0.559537    23A     -0.535547    24A     -0.522347
      25A     -0.475689    26A     -0.465047    27A     -0.448130

  @DF-RHF Final Energy:  -379.69833172552757

   => Energetics <=

    Nuclear Repulsion Energy =            317.5471599828084095
    One-Electron Energy =               -1149.2055070452809105
    Two-Electron Energy =                 451.9600153369449913
    Total Energy =                       -379.6983317255275665
  Basis Set: (AUG-CC-PVTZ AUX)
    Blend: AUG-CC-PVTZ-RI
    Molecular point group: c1

    Geometry (in Angstrom), charge = 0, multiplicity = 1:

       Center              X                  Y                   Z               Mass
    ------------   -----------------  -----------------  -----------------  -----------------
         O            1.036642451483     1.073017050282    -0.089171365093    15.994914619570
         O           -1.603164548517    -1.250320949718    -0.150948365093    15.994914619570
         O           -1.187325548517     1.555572050282    -0.060859365093    15.994914619570
         C            0.850063451483    -1.289478949718    -0.191920365093    12.000000000000
         C           -0.422013548517    -0.715395949718     0.403095634907    12.000000000000
         C            1.828278451483    -0.141744949718     0.054638634907    12.000000000000
         C           -0.261369848517     0.750218550282     0.071515534907    12.000000000000
         H            0.688693451483    -1.442658949718    -1.263105365093     1.007825032230
         H            1.171967451483    -2.230417949718     0.259450634907     1.007825032230
         H           -0.412462548517    -0.815982949718     1.502236634907     1.007825032230
         H            2.244456451483    -0.160207949718     1.067087634907     1.007825032230
         H            2.642172451483    -0.077671949718    -0.668137365093     1.007825032230
         H           -2.253621548517    -0.520464949718    -0.137299365093     1.007825032230

  Basis Set: AUG-CC-PVTZ
    Blend: AUG-CC-PVTZ
  Basis Set: (AUG-CC-PVTZ AUX)
    Blend: AUG-CC-PVTZ-JKFIT
	 Reference Energy          =    -379.6983317255275665 [Eh]
	 Singles Energy            =      -0.0000000000000000 [Eh]
	 Same-Spin Energy          =      -0.3689048225656474 [Eh]
	 Opposite-Spin Energy      =      -1.1373394670896344 [Eh]
	 Correlation Energy        =      -1.5062442896552819 [Eh]
	 Total Energy              =    -381.2045760151828517 [Eh]

	 ================> DF-SCS-MP2 Energies <==================
	-----------------------------------------------------------
	 SCS Same-Spin Scale       =       0.3333333333333333 [-]
	 SCS Opposite-Spin Scale   =       1.2000000000000000 [-]
	 SCS Same-Spin Energy      =      -0.1229682741885491 [Eh]
	 SCS Opposite-Spin Energy  =      -1.3648073605075612 [Eh]
	 SCS Correlation Energy    =      -1.4877756346961104 [Eh]
	 SCS Total Energy          =    -381.1861073602236729 [Eh]
	-----------------------------------------------------------

  Dipole Moment: [D]
     X:     2.8375      Y:    -2.3766      Z:     0.9879     Total:     3.8308

*** Psi4 exiting successfully. Buy a developer a beer!
