                               Psi4 1.3.2 release

  ==> Input File <==

--------------------------------------------------------------------------
#psi4
#
memory 32 gb

molecule  {
0 1
  O        1.0008990     1.1197090    -0.0959030
  O       -1.6389080    -1.2036290    -0.1576800
  O       -1.2230690     1.6022640    -0.0675910
  C        0.8143200    -1.2427870    -0.1986520
  C       -0.4466891    -0.6904593     0.3932267
  C        1.7925350    -0.0950530     0.0479070
  C       -0.3121170     0.8099600     0.0626390
  H        0.6529500    -1.3959670    -1.2698370
  H        1.1362240    -2.1837260     0.2527190
  H       -0.4482060    -0.7692910     1.4955050
  H        2.2087130    -0.1135160     1.0603560
  H        2.6064290    -0.0309800    -0.6748690
  H       -2.2893650    -0.4737730    -0.1440310
units angstrom
no_reorient  #important for SAPT in psi4, default
symmetry c1  #important for SAPT in psi4, default
}

set PROPERTIES_ORIGIN ["COM"]
properties('MP2/aug-cc-pvtz', properties = ['dipole'])
--------------------------------------------------------------------------

    Molecular point group: c1
  Charge       = 0
  Multiplicity = 1
  Basis Set: AUG-CC-PVTZ
    Blend: AUG-CC-PVTZ
  Basis Set: (AUG-CC-PVTZ AUX)
    Blend: AUG-CC-PVTZ-JKFIT

    Orbital Energies [Eh]
    ---------------------

    Doubly Occupied:

       1A    -20.620157     2A    -20.580110     3A    -20.560123
       4A    -11.392668     5A    -11.319167     6A    -11.317749
       7A    -11.258450     8A     -1.469104     9A     -1.387398
      10A     -1.370474    11A     -1.096358    12A     -0.986228
      13A     -0.860676    14A     -0.797732    15A     -0.734150
      16A     -0.715084    17A     -0.687926    18A     -0.658594
      19A     -0.621950    20A     -0.605194    21A     -0.584056
      22A     -0.558389    23A     -0.535771    24A     -0.523736
      25A     -0.477260    26A     -0.468442    27A     -0.443686

  @DF-RHF Final Energy:  -379.70019385833376

   => Energetics <=

    Nuclear Repulsion Energy =            317.3600050706565412
    One-Electron Energy =               -1148.8591340534019309
    Two-Electron Energy =                 451.7989351244115710
    Total Energy =                       -379.7001938583337619
  Basis Set: (AUG-CC-PVTZ AUX)
    Blend: AUG-CC-PVTZ-RI
    Molecular point group: c1

    Geometry (in Angstrom), charge = 0, multiplicity = 1:

       Center              X                  Y                   Z               Mass
    ------------   -----------------  -----------------  -----------------  -----------------
         O            1.037105342945     1.074040943896    -0.088550122835    15.994914619570
         O           -1.602701657055    -1.249297056104    -0.150327122835    15.994914619570
         O           -1.186862657055     1.556595943896    -0.060238122835    15.994914619570
         C            0.850526342945    -1.288455056104    -0.191299122835    12.000000000000
         C           -0.410482757055    -0.736127356104     0.400579577165    12.000000000000
         C            1.828741342945    -0.140721056104     0.055259877165    12.000000000000
         C           -0.275910657055     0.764291943896     0.069991877165    12.000000000000
         H            0.689156342945    -1.441635056104    -1.262484122835     1.007825032230
         H            1.172430342945    -2.229394056104     0.260071877165     1.007825032230
         H           -0.411999657055    -0.814959056104     1.502857877165     1.007825032230
         H            2.244919342945    -0.159184056104     1.067708877165     1.007825032230
         H            2.642635342945    -0.076648056104    -0.667516122835     1.007825032230
         H           -2.253158657055    -0.519441056104    -0.136678122835     1.007825032230

  Basis Set: AUG-CC-PVTZ
    Blend: AUG-CC-PVTZ
  Basis Set: (AUG-CC-PVTZ AUX)
    Blend: AUG-CC-PVTZ-JKFIT
	 Reference Energy          =    -379.7001938583337619 [Eh]
	 Singles Energy            =      -0.0000000000000000 [Eh]
	 Same-Spin Energy          =      -0.3684966922760042 [Eh]
	 Opposite-Spin Energy      =      -1.1364134100828527 [Eh]
	 Correlation Energy        =      -1.5049101023588569 [Eh]
	 Total Energy              =    -381.2051039606926111 [Eh]

	 ================> DF-SCS-MP2 Energies <==================
	-----------------------------------------------------------
	 SCS Same-Spin Scale       =       0.3333333333333333 [-]
	 SCS Opposite-Spin Scale   =       1.2000000000000000 [-]
	 SCS Same-Spin Energy      =      -0.1228322307586681 [Eh]
	 SCS Opposite-Spin Energy  =      -1.3636960920994232 [Eh]
	 SCS Correlation Energy    =      -1.4865283228580912 [Eh]
	 SCS Total Energy          =    -381.1867221811918398 [Eh]
	-----------------------------------------------------------

  Dipole Moment: [D]
     X:     2.7190      Y:    -2.2820      Z:     0.9699     Total:     3.6798

*** Psi4 exiting successfully. Buy a developer a beer!
