                               Psi4 1.3.2 release

  ==> Input File <==

--------------------------------------------------------------------------
#psi4
#
memory 32 gb

molecule  {
0 1
  O        0.9803913     1.1054967    -0.1008159
  O       -1.6389080    -1.2036290    -0.1576800
  O       -1.2230690     1.6022640    -0.0675910
  C        0.8143200    -1.2427870    -0.1986520
  C       -0.4577570    -0.6687040     0.3963640
  C        1.7925350    -0.0950530     0.0479070
  C       -0.3121170     0.8099600     0.0626390
  H        0.6529500    -1.3959670    -1.2698370
  H        1.1362240    -2.1837260     0.2527190
  H       -0.4482060    -0.7692910     1.4955050
  H        2.2087130    -0.1135160     1.0603560
  H        2.6064290    -0.0309800    -0.6748690
  H       -2.2893650    -0.4737730    -0.1440310
units angstrom
no_reorient  #important for SAPT in psi4, default
symmetry c1  #important for SAPT in psi4, default
}

set PROPERTIES_ORIGIN ["COM"]
properties('MP2/aug-cc-pvtz', properties = ['dipole'])
--------------------------------------------------------------------------

    Molecular point group: c1
  Charge       = 0
  Multiplicity = 1
  Basis Set: AUG-CC-PVTZ
    Blend: AUG-CC-PVTZ
  Basis Set: (AUG-CC-PVTZ AUX)
    Blend: AUG-CC-PVTZ-JKFIT

    Orbital Energies [Eh]
    ---------------------

    Doubly Occupied:

       1A    -20.621681     2A    -20.579806     3A    -20.556191
       4A    -11.389811     5A    -11.319406     6A    -11.316861
       7A    -11.258751     8A     -1.477472     9A     -1.387981
      10A     -1.369395    11A     -1.093801    12A     -0.991072
      13A     -0.863387    14A     -0.797920    15A     -0.737753
      16A     -0.715020    17A     -0.688998    18A     -0.659637
      19A     -0.622323    20A     -0.606461    21A     -0.582686
      22A     -0.559985    23A     -0.535012    24A     -0.522352
      25A     -0.474391    26A     -0.468056    27A     -0.445283

  @DF-RHF Final Energy:  -379.70205372254264

   => Energetics <=

    Nuclear Repulsion Energy =            318.1514507563088614
    One-Electron Energy =               -1150.4240309727767908
    Two-Electron Energy =                 452.5705264939253425
    Total Energy =                       -379.7020537225426438
  Basis Set: (AUG-CC-PVTZ AUX)
    Blend: AUG-CC-PVTZ-RI
    Molecular point group: c1

    Geometry (in Angstrom), charge = 0, multiplicity = 1:

       Center              X                  Y                   Z               Mass
    ------------   -----------------  -----------------  -----------------  -----------------
         O            1.021114217082     1.059497971400    -0.093061835572    15.994914619570
         O           -1.598185082918    -1.249627728600    -0.149925935572    15.994914619570
         O           -1.182346082918     1.556265271400    -0.059836935572    15.994914619570
         C            0.855042917082    -1.288785728600    -0.190897935572    12.000000000000
         C           -0.417034082918    -0.714702728600     0.404118064428    12.000000000000
         C            1.833257917082    -0.141051728600     0.055661064428    12.000000000000
         C           -0.271394082918     0.763961271400     0.070393064428    12.000000000000
         H            0.693672917082    -1.441965728600    -1.262082935572     1.007825032230
         H            1.176946917082    -2.229724728600     0.260473064428     1.007825032230
         H           -0.407483082918    -0.815289728600     1.503259064428     1.007825032230
         H            2.249435917082    -0.159514728600     1.068110064428     1.007825032230
         H            2.647151917082    -0.076978728600    -0.667114935572     1.007825032230
         H           -2.248642082918    -0.519771728600    -0.136276935572     1.007825032230

  Basis Set: AUG-CC-PVTZ
    Blend: AUG-CC-PVTZ
  Basis Set: (AUG-CC-PVTZ AUX)
    Blend: AUG-CC-PVTZ-JKFIT
	 Reference Energy          =    -379.7020537225426438 [Eh]
	 Singles Energy            =      -0.0000000000000000 [Eh]
	 Same-Spin Energy          =      -0.3681470719926037 [Eh]
	 Opposite-Spin Energy      =      -1.1355100948631078 [Eh]
	 Correlation Energy        =      -1.5036571668557115 [Eh]
	 Total Energy              =    -381.2057108893983468 [Eh]

	 ================> DF-SCS-MP2 Energies <==================
	-----------------------------------------------------------
	 SCS Same-Spin Scale       =       0.3333333333333333 [-]
	 SCS Opposite-Spin Scale   =       1.2000000000000000 [-]
	 SCS Same-Spin Energy      =      -0.1227156906642012 [Eh]
	 SCS Opposite-Spin Energy  =      -1.3626121138357294 [Eh]
	 SCS Correlation Energy    =      -1.4853278044999307 [Eh]
	 SCS Total Energy          =    -381.1873815270425894 [Eh]
	-----------------------------------------------------------

  Dipole Moment: [D]
     X:     2.8475      Y:    -2.2829      Z:     0.9812     Total:     3.7793

*** Psi4 exiting successfully. Buy a developer a beer!
