                               Psi4 1.3.2 release

  ==> Input File <==

--------------------------------------------------------------------------
#psi4
#
memory 32 gb

molecule  {
0 1
  O        0.9948103     1.1420814    -0.1008463
  O       -1.6389080    -1.2036290    -0.1576800
  O       -1.2230690     1.6022640    -0.0675910
  C        0.8143200    -1.2427870    -0.1986520
  C       -0.4577570    -0.6687040     0.3963640
  C        1.7925350    -0.0950530     0.0479070
  C       -0.3121170     0.8099600     0.0626390
  H        0.6529500    -1.3959670    -1.2698370
  H        1.1362240    -2.1837260     0.2527190
  H       -0.4482060    -0.7692910     1.4955050
  H        2.2087130    -0.1135160     1.0603560
  H        2.6064290    -0.0309800    -0.6748690
  H       -2.2893650    -0.4737730    -0.1440310
units angstrom
no_reorient  #important for SAPT in psi4, default
symmetry c1  #important for SAPT in psi4, default
}

set PROPERTIES_ORIGIN ["COM"]
properties('MP2/aug-cc-pvtz', properties = ['dipole'])
--------------------------------------------------------------------------

    Molecular point group: c1
  Charge       = 0
  Multiplicity = 1
  Basis Set: AUG-CC-PVTZ
    Blend: AUG-CC-PVTZ
  Basis Set: (AUG-CC-PVTZ AUX)
    Blend: AUG-CC-PVTZ-JKFIT

    Orbital Energies [Eh]
    ---------------------

    Doubly Occupied:

       1A    -20.620303     2A    -20.581439     3A    -20.558118
       4A    -11.391191     5A    -11.319481     6A    -11.319253
       7A    -11.260147     8A     -1.466015     9A     -1.387352
      10A     -1.368014    11A     -1.095275    12A     -0.985296
      13A     -0.862145    14A     -0.796669    15A     -0.732887
      16A     -0.713295    17A     -0.687954    18A     -0.656386
      19A     -0.619673    20A     -0.605218    21A     -0.581446
      22A     -0.560540    23A     -0.536685    24A     -0.523568
      25A     -0.475354    26A     -0.468284    27A     -0.446808

  @DF-RHF Final Energy:  -379.69955977219843

   => Energetics <=

    Nuclear Repulsion Energy =            317.0176519986768540
    One-Electron Energy =               -1148.1968353641054819
    Two-Electron Energy =                 451.4796235932301443
    Total Energy =                       -379.6995597721984268
  Basis Set: (AUG-CC-PVTZ AUX)
    Blend: AUG-CC-PVTZ-RI
    Molecular point group: c1

    Geometry (in Angstrom), charge = 0, multiplicity = 1:

       Center              X                  Y                   Z               Mass
    ------------   -----------------  -----------------  -----------------  -----------------
         O            1.033272834404     1.090347500988    -0.093087469941    15.994914619570
         O           -1.600445465596    -1.255362899012    -0.149921169941    15.994914619570
         O           -1.184606465596     1.550530100988    -0.059832169941    15.994914619570
         C            0.852782534404    -1.294520899012    -0.190893169941    12.000000000000
         C           -0.419294465596    -0.720437899012     0.404122830059    12.000000000000
         C            1.830997534404    -0.146786899012     0.055665830059    12.000000000000
         C           -0.273654465596     0.758226100988     0.070397830059    12.000000000000
         H            0.691412534404    -1.447700899012    -1.262078169941     1.007825032230
         H            1.174686534404    -2.235459899012     0.260477830059     1.007825032230
         H           -0.409743465596    -0.821024899012     1.503263830059     1.007825032230
         H            2.247175534404    -0.165249899012     1.068114830059     1.007825032230
         H            2.644891534404    -0.082713899012    -0.667110169941     1.007825032230
         H           -2.250902465596    -0.525506899012    -0.136272169941     1.007825032230

  Basis Set: AUG-CC-PVTZ
    Blend: AUG-CC-PVTZ
  Basis Set: (AUG-CC-PVTZ AUX)
    Blend: AUG-CC-PVTZ-JKFIT
	 Reference Energy          =    -379.6995597721984268 [Eh]
	 Singles Energy            =      -0.0000000000000000 [Eh]
	 Same-Spin Energy          =      -0.3685280504003840 [Eh]
	 Opposite-Spin Energy      =      -1.1370061799911626 [Eh]
	 Correlation Energy        =      -1.5055342303915467 [Eh]
	 Total Energy              =    -381.2050940025899877 [Eh]

	 ================> DF-SCS-MP2 Energies <==================
	-----------------------------------------------------------
	 SCS Same-Spin Scale       =       0.3333333333333333 [-]
	 SCS Opposite-Spin Scale   =       1.2000000000000000 [-]
	 SCS Same-Spin Energy      =      -0.1228426834667947 [Eh]
	 SCS Opposite-Spin Energy  =      -1.3644074159893951 [Eh]
	 SCS Correlation Energy    =      -1.4872500994561897 [Eh]
	 SCS Total Energy          =    -381.1868098716545887 [Eh]
	-----------------------------------------------------------

  Dipole Moment: [D]
     X:     2.7280      Y:    -2.3632      Z:     0.9920     Total:     3.7431

*** Psi4 exiting successfully. Buy a developer a beer!
