                               Psi4 1.3.2 release

  ==> Input File <==

--------------------------------------------------------------------------
#psi4
#
memory 32 gb

molecule  {
0 1
  O        1.0008990     1.1197090    -0.0959030
  O       -1.6389080    -1.2036290    -0.1576800
  O       -1.2230690     1.6022640    -0.0675910
  C        0.8143200    -1.2427870    -0.1986520
  C       -0.5055911    -0.5833778     0.4072168
  C        1.7925350    -0.0950530     0.0479070
  C       -0.3121170     0.8099600     0.0626390
  H        0.6529500    -1.3959670    -1.2698370
  H        1.1362240    -2.1837260     0.2527190
  H       -0.4482060    -0.7692910     1.4955050
  H        2.2087130    -0.1135160     1.0603560
  H        2.6064290    -0.0309800    -0.6748690
  H       -2.2893650    -0.4737730    -0.1440310
units angstrom
no_reorient  #important for SAPT in psi4, default
symmetry c1  #important for SAPT in psi4, default
}

set PROPERTIES_ORIGIN ["COM"]
properties('MP2/aug-cc-pvtz', properties = ['dipole'])
--------------------------------------------------------------------------

    Molecular point group: c1
  Charge       = 0
  Multiplicity = 1
  Basis Set: AUG-CC-PVTZ
    Blend: AUG-CC-PVTZ
  Basis Set: (AUG-CC-PVTZ AUX)
    Blend: AUG-CC-PVTZ-JKFIT

    Orbital Energies [Eh]
    ---------------------

    Doubly Occupied:

       1A    -20.621235     2A    -20.585338     3A    -20.559105
       4A    -11.391563     5A    -11.317662     6A    -11.315317
       7A    -11.260848     8A     -1.472261     9A     -1.392673
      10A     -1.371730    11A     -1.084325    12A     -0.997449
      13A     -0.867575    14A     -0.796326    15A     -0.735963
      16A     -0.710846    17A     -0.692184    18A     -0.658069
      19A     -0.623735    20A     -0.604373    21A     -0.578632
      22A     -0.563764    23A     -0.534731    24A     -0.522741
      25A     -0.469455    26A     -0.464042    27A     -0.453429

  @DF-RHF Final Energy:  -379.69141282048122

   => Energetics <=

    Nuclear Repulsion Energy =            317.8653260599604664
    One-Electron Energy =               -1149.8227305563189020
    Two-Electron Energy =                 452.2659916758772169
    Total Energy =                       -379.6914128204812187
  Basis Set: (AUG-CC-PVTZ AUX)
    Blend: AUG-CC-PVTZ-RI
    Molecular point group: c1

    Geometry (in Angstrom), charge = 0, multiplicity = 1:

       Center              X                  Y                   Z               Mass
    ------------   -----------------  -----------------  -----------------  -----------------
         O            1.044032837451     1.061447033622    -0.090195505689    15.994914619570
         O           -1.595774162549    -1.261890966378    -0.151972505689    15.994914619570
         O           -1.179935162549     1.544002033622    -0.061883505689    15.994914619570
         C            0.857453837451    -1.301048966378    -0.192944505689    12.000000000000
         C           -0.462457262549    -0.641639766378     0.412924294311    12.000000000000
         C            1.835668837451    -0.153314966378     0.053614494311    12.000000000000
         C           -0.268983162549     0.751698033622     0.068346494311    12.000000000000
         H            0.696083837451    -1.454228966378    -1.264129505689     1.007825032230
         H            1.179357837451    -2.241987966378     0.258426494311     1.007825032230
         H           -0.405072162549    -0.827552966378     1.501212494311     1.007825032230
         H            2.251846837451    -0.171777966378     1.066063494311     1.007825032230
         H            2.649562837451    -0.089241966378    -0.669161505689     1.007825032230
         H           -2.246231162549    -0.532034966378    -0.138323505689     1.007825032230

  Basis Set: AUG-CC-PVTZ
    Blend: AUG-CC-PVTZ
  Basis Set: (AUG-CC-PVTZ AUX)
    Blend: AUG-CC-PVTZ-JKFIT
	 Reference Energy          =    -379.6914128204812187 [Eh]
	 Singles Energy            =      -0.0000000000000000 [Eh]
	 Same-Spin Energy          =      -0.3687802050868659 [Eh]
	 Opposite-Spin Energy      =      -1.1376095410360307 [Eh]
	 Correlation Energy        =      -1.5063897461228968 [Eh]
	 Total Energy              =    -381.1978025666041390 [Eh]

	 ================> DF-SCS-MP2 Energies <==================
	-----------------------------------------------------------
	 SCS Same-Spin Scale       =       0.3333333333333333 [-]
	 SCS Opposite-Spin Scale   =       1.2000000000000000 [-]
	 SCS Same-Spin Energy      =      -0.1229267350289553 [Eh]
	 SCS Opposite-Spin Energy  =      -1.3651314492432369 [Eh]
	 SCS Correlation Energy    =      -1.4880581842721923 [Eh]
	 SCS Total Energy          =    -381.1794710047533954 [Eh]
	-----------------------------------------------------------

  Dipole Moment: [D]
     X:     2.5991      Y:    -2.3268      Z:     1.0140     Total:     3.6329

*** Psi4 exiting successfully. Buy a developer a beer!
