                               Psi4 1.3.2 release

  ==> Input File <==

--------------------------------------------------------------------------
#psi4
#
memory 32 gb

molecule  {
0 1
  O        1.0008990     1.1197090    -0.0959030
  O       -1.6389080    -1.2036290    -0.1576800
  O       -1.2230690     1.6022640    -0.0675910
  C        0.8143200    -1.2427870    -0.1986520
  C       -0.4577570    -0.6687040     0.3963640
  C        1.7382038    -0.0116821     0.0380371
  C       -0.3121170     0.8099600     0.0626390
  H        0.6529500    -1.3959670    -1.2698370
  H        1.1362240    -2.1837260     0.2527190
  H       -0.4482060    -0.7692910     1.4955050
  H        2.2087130    -0.1135160     1.0603560
  H        2.6064290    -0.0309800    -0.6748690
  H       -2.2893650    -0.4737730    -0.1440310
units angstrom
no_reorient  #important for SAPT in psi4, default
symmetry c1  #important for SAPT in psi4, default
}

set PROPERTIES_ORIGIN ["COM"]
properties('MP2/aug-cc-pvtz', properties = ['dipole'])
--------------------------------------------------------------------------

    Molecular point group: c1
  Charge       = 0
  Multiplicity = 1
  Basis Set: AUG-CC-PVTZ
    Blend: AUG-CC-PVTZ
  Basis Set: (AUG-CC-PVTZ AUX)
    Blend: AUG-CC-PVTZ-JKFIT

    Orbital Energies [Eh]
    ---------------------

    Doubly Occupied:

       1A    -20.630256     2A    -20.581468     3A    -20.566573
       4A    -11.399298     5A    -11.319134     6A    -11.316330
       7A    -11.256977     8A     -1.498187     9A     -1.397877
      10A     -1.377262    11A     -1.089616    12A     -0.990218
      13A     -0.865476    14A     -0.804936    15A     -0.742227
      16A     -0.717086    17A     -0.696274    18A     -0.667331
      19A     -0.632062    20A     -0.602758    21A     -0.586857
      22A     -0.559637    23A     -0.525892    24A     -0.523382
      25A     -0.471450    26A     -0.461846    27A     -0.451599

  @DF-RHF Final Energy:  -379.69344832065673

   => Energetics <=

    Nuclear Repulsion Energy =            318.9500834283717268
    One-Electron Energy =               -1151.8230402997808142
    Two-Electron Energy =                 453.1795085507523595
    Total Energy =                       -379.6934483206567279
  Basis Set: (AUG-CC-PVTZ AUX)
    Blend: AUG-CC-PVTZ-RI
    Molecular point group: c1

    Geometry (in Angstrom), charge = 0, multiplicity = 1:

       Center              X                  Y                   Z               Mass
    ------------   -----------------  -----------------  -----------------  -----------------
         O            1.044796964723     1.061676997461    -0.087758298287    15.994914619570
         O           -1.595010035277    -1.261661002539    -0.149535298287    15.994914619570
         O           -1.179171035277     1.544231997461    -0.059446298287    15.994914619570
         C            0.858217964723    -1.300819002539    -0.190507298287    12.000000000000
         C           -0.413859035277    -0.726736002539     0.404508701713    12.000000000000
         C            1.782101764723    -0.069714102539     0.046181801713    12.000000000000
         C           -0.268219035277     0.751927997461     0.070783701713    12.000000000000
         H            0.696847964723    -1.453999002539    -1.261692298287     1.007825032230
         H            1.180121964723    -2.241758002539     0.260863701713     1.007825032230
         H           -0.404308035277    -0.827323002539     1.503649701713     1.007825032230
         H            2.252610964723    -0.171548002539     1.068500701713     1.007825032230
         H            2.650326964723    -0.089012002539    -0.666724298287     1.007825032230
         H           -2.245467035277    -0.531805002539    -0.135886298287     1.007825032230

  Basis Set: AUG-CC-PVTZ
    Blend: AUG-CC-PVTZ
  Basis Set: (AUG-CC-PVTZ AUX)
    Blend: AUG-CC-PVTZ-JKFIT
	 Reference Energy          =    -379.6934483206567279 [Eh]
	 Singles Energy            =      -0.0000000000000000 [Eh]
	 Same-Spin Energy          =      -0.3685661618290400 [Eh]
	 Opposite-Spin Energy      =      -1.1357158092376634 [Eh]
	 Correlation Energy        =      -1.5042819710667032 [Eh]
	 Total Energy              =    -381.1977302917234169 [Eh]

	 ================> DF-SCS-MP2 Energies <==================
	-----------------------------------------------------------
	 SCS Same-Spin Scale       =       0.3333333333333333 [-]
	 SCS Opposite-Spin Scale   =       1.2000000000000000 [-]
	 SCS Same-Spin Energy      =      -0.1228553872763467 [Eh]
	 SCS Opposite-Spin Energy  =      -1.3628589710851959 [Eh]
	 SCS Correlation Energy    =      -1.4857143583615426 [Eh]
	 SCS Total Energy          =    -381.1791626790182477 [Eh]
	-----------------------------------------------------------

  Dipole Moment: [D]
     X:     2.4096      Y:    -2.0272      Z:     0.9398     Total:     3.2862

*** Psi4 exiting successfully. Buy a developer a beer!
