                               Psi4 1.3.2 release

  ==> Input File <==

--------------------------------------------------------------------------
#psi4
#
memory 32 gb

molecule  {
0 1
  O        1.0008990     1.1197090    -0.0959030
  O       -1.6389080    -1.2036290    -0.1576800
  O       -1.2230690     1.6022640    -0.0675910
  C        0.8143200    -1.2427870    -0.1986520
  C       -0.4577570    -0.6687040     0.3963640
  C        1.7925350    -0.0950530     0.0479070
  C       -0.2154538     0.8327635     0.0509673
  H        0.6529500    -1.3959670    -1.2698370
  H        1.1362240    -2.1837260     0.2527190
  H       -0.4482060    -0.7692910     1.4955050
  H        2.2087130    -0.1135160     1.0603560
  H        2.6064290    -0.0309800    -0.6748690
  H       -2.2893650    -0.4737730    -0.1440310
units angstrom
no_reorient  #important for SAPT in psi4, default
symmetry c1  #important for SAPT in psi4, default
}

set PROPERTIES_ORIGIN ["COM"]
properties('MP2/aug-cc-pvtz', properties = ['dipole'])
--------------------------------------------------------------------------

    Molecular point group: c1
  Charge       = 0
  Multiplicity = 1
  Basis Set: AUG-CC-PVTZ
    Blend: AUG-CC-PVTZ
  Basis Set: (AUG-CC-PVTZ AUX)
    Blend: AUG-CC-PVTZ-JKFIT

    Orbital Energies [Eh]
    ---------------------

    Doubly Occupied:

       1A    -20.644565     2A    -20.578085     3A    -20.539352
       4A    -11.392098     5A    -11.329951     6A    -11.317533
       7A    -11.261490     8A     -1.515944     9A     -1.382788
      10A     -1.333132    11A     -1.102457    12A     -0.997043
      13A     -0.867058    14A     -0.807729    15A     -0.748851
      16A     -0.718703    17A     -0.691149    18A     -0.667382
      19A     -0.614376    20A     -0.606342    21A     -0.588562
      22A     -0.560186    23A     -0.536610    24A     -0.516605
      25A     -0.473052    26A     -0.454469    27A     -0.432681

  @DF-RHF Final Energy:  -379.68668162798804

   => Energetics <=

    Nuclear Repulsion Energy =            317.7674939660517452
    One-Electron Energy =               -1149.5519645198089620
    Two-Electron Energy =                 452.0977889257692368
    Total Energy =                       -379.6866816279880368
  Basis Set: (AUG-CC-PVTZ AUX)
    Blend: AUG-CC-PVTZ-RI
    Molecular point group: c1

    Geometry (in Angstrom), charge = 0, multiplicity = 1:

       Center              X                  Y                   Z               Mass
    ------------   -----------------  -----------------  -----------------  -----------------
         O            1.027038435701     1.068800360517    -0.087546387662    15.994914619570
         O           -1.612768564299    -1.254537639483    -0.149323387662    15.994914619570
         O           -1.196929564299     1.551355360517    -0.059234387662    15.994914619570
         C            0.840459435701    -1.293695639483    -0.190295387662    12.000000000000
         C           -0.431617564299    -0.719612639483     0.404720612338    12.000000000000
         C            1.818674435701    -0.145961639483     0.056263612338    12.000000000000
         C           -0.189314364299     0.781854860517     0.059323912338    12.000000000000
         H            0.679089435701    -1.446875639483    -1.261480387662     1.007825032230
         H            1.162363435701    -2.234634639483     0.261075612338     1.007825032230
         H           -0.422066564299    -0.820199639483     1.503861612338     1.007825032230
         H            2.234852435701    -0.164424639483     1.068712612338     1.007825032230
         H            2.632568435701    -0.081888639483    -0.666512387662     1.007825032230
         H           -2.263225564299    -0.524681639483    -0.135674387662     1.007825032230

  Basis Set: AUG-CC-PVTZ
    Blend: AUG-CC-PVTZ
  Basis Set: (AUG-CC-PVTZ AUX)
    Blend: AUG-CC-PVTZ-JKFIT
	 Reference Energy          =    -379.6866816279880368 [Eh]
	 Singles Energy            =      -0.0000000000000000 [Eh]
	 Same-Spin Energy          =      -0.3689206908035261 [Eh]
	 Opposite-Spin Energy      =      -1.1367994753065678 [Eh]
	 Correlation Energy        =      -1.5057201661100938 [Eh]
	 Total Energy              =    -381.1924017940981457 [Eh]

	 ================> DF-SCS-MP2 Energies <==================
	-----------------------------------------------------------
	 SCS Same-Spin Scale       =       0.3333333333333333 [-]
	 SCS Opposite-Spin Scale   =       1.2000000000000000 [-]
	 SCS Same-Spin Energy      =      -0.1229735636011754 [Eh]
	 SCS Opposite-Spin Energy  =      -1.3641593703678814 [Eh]
	 SCS Correlation Energy    =      -1.4871329339690567 [Eh]
	 SCS Total Energy          =    -381.1738145619571014 [Eh]
	-----------------------------------------------------------

  Dipole Moment: [D]
     X:     3.5451      Y:    -2.3928      Z:     0.9351     Total:     4.3781

*** Psi4 exiting successfully. Buy a developer a beer!
