                               Psi4 1.3.2 release

  ==> Input File <==

--------------------------------------------------------------------------
#psi4
#
memory 32 gb

molecule  {
0 1
  O        1.0216478     1.1335512    -0.0909463
  O       -1.6389080    -1.2036290    -0.1576800
  O       -1.2230690     1.6022640    -0.0675910
  C        0.8143200    -1.2427870    -0.1986520
  C       -0.4577570    -0.6687040     0.3963640
  C        1.7925350    -0.0950530     0.0479070
  C       -0.3121170     0.8099600     0.0626390
  H        0.6529500    -1.3959670    -1.2698370
  H        1.1362240    -2.1837260     0.2527190
  H       -0.4482060    -0.7692910     1.4955050
  H        2.2087130    -0.1135160     1.0603560
  H        2.6064290    -0.0309800    -0.6748690
  H       -2.2893650    -0.4737730    -0.1440310
units angstrom
no_reorient  #important for SAPT in psi4, default
symmetry c1  #important for SAPT in psi4, default
}

set PROPERTIES_ORIGIN ["COM"]
properties('MP2/aug-cc-pvtz', properties = ['dipole'])
--------------------------------------------------------------------------

    Molecular point group: c1
  Charge       = 0
  Multiplicity = 1
  Basis Set: AUG-CC-PVTZ
    Blend: AUG-CC-PVTZ
  Basis Set: (AUG-CC-PVTZ AUX)
    Blend: AUG-CC-PVTZ-JKFIT

    Orbital Energies [Eh]
    ---------------------

    Doubly Occupied:

       1A    -20.619087     2A    -20.582272     3A    -20.563754
       4A    -11.395457     5A    -11.320276     6A    -11.315128
       7A    -11.259079     8A     -1.462893     9A     -1.388510
      10A     -1.371860    11A     -1.093502    12A     -0.985378
      13A     -0.861016    14A     -0.797198    15A     -0.731605
      16A     -0.713471    17A     -0.688527    18A     -0.657388
      19A     -0.621979    20A     -0.602948    21A     -0.581863
      22A     -0.560442    23A     -0.536253    24A     -0.524615
      25A     -0.475600    26A     -0.468521    27A     -0.448298

  @DF-RHF Final Energy:  -379.69865607297766

   => Energetics <=

    Nuclear Repulsion Energy =            316.7885129512449112
    One-Electron Energy =               -1147.7204973491614055
    Two-Electron Energy =                 451.2333283249388387
    Total Energy =                       -379.6986560729776556
  Basis Set: (AUG-CC-PVTZ AUX)
    Blend: AUG-CC-PVTZ-RI
    Molecular point group: c1

    Geometry (in Angstrom), charge = 0, multiplicity = 1:

       Center              X                  Y                   Z               Mass
    ------------   -----------------  -----------------  -----------------  -----------------
         O            1.055903175784     1.083154530776    -0.084739435300    15.994914619570
         O           -1.604652624216    -1.254025669224    -0.151473135300    15.994914619570
         O           -1.188813624216     1.551867330776    -0.061384135300    15.994914619570
         C            0.848575375784    -1.293183669224    -0.192445135300    12.000000000000
         C           -0.423501624216    -0.719100669224     0.402570864700    12.000000000000
         C            1.826790375784    -0.145449669224     0.054113864700    12.000000000000
         C           -0.277861624216     0.759563330776     0.068845864700    12.000000000000
         H            0.687205375784    -1.446363669224    -1.263630135300     1.007825032230
         H            1.170479375784    -2.234122669224     0.258925864700     1.007825032230
         H           -0.413950624216    -0.819687669224     1.501711864700     1.007825032230
         H            2.242968375784    -0.163912669224     1.066562864700     1.007825032230
         H            2.640684375784    -0.081376669224    -0.668662135300     1.007825032230
         H           -2.255109624216    -0.524169669224    -0.137824135300     1.007825032230

  Basis Set: AUG-CC-PVTZ
    Blend: AUG-CC-PVTZ
  Basis Set: (AUG-CC-PVTZ AUX)
    Blend: AUG-CC-PVTZ-JKFIT
	 Reference Energy          =    -379.6986560729776556 [Eh]
	 Singles Energy            =      -0.0000000000000000 [Eh]
	 Same-Spin Energy          =      -0.3687329833792498 [Eh]
	 Opposite-Spin Energy      =      -1.1374235731133413 [Eh]
	 Correlation Energy        =      -1.5061565564925909 [Eh]
	 Total Energy              =    -381.2048126294702683 [Eh]

	 ================> DF-SCS-MP2 Energies <==================
	-----------------------------------------------------------
	 SCS Same-Spin Scale       =       0.3333333333333333 [-]
	 SCS Opposite-Spin Scale   =       1.2000000000000000 [-]
	 SCS Same-Spin Energy      =      -0.1229109944597499 [Eh]
	 SCS Opposite-Spin Energy  =      -1.3649082877360095 [Eh]
	 SCS Correlation Energy    =      -1.4878192821957594 [Eh]
	 SCS Total Energy          =    -381.1864753551733997 [Eh]
	-----------------------------------------------------------

  Dipole Moment: [D]
     X:     2.5455      Y:    -2.2965      Z:     0.9793     Total:     3.5655

*** Psi4 exiting successfully. Buy a developer a beer!
