                               Psi4 1.4a3.dev225

  ==> Input File <==

--------------------------------------------------------------------------
#psi4
#
memory 32 gb

molecule  {
0 1
  O        1.0008990     1.1197090    -0.0959030
  O       -1.6389080    -1.2036290    -0.1576800
  O       -1.2230690     1.6022640    -0.0675910
  C        0.8143200    -1.2427870    -0.1986520
  C       -0.4577570    -0.6687040     0.3963640
  C        1.7925350    -0.0950530     0.0479070
  C       -0.3271207     0.8230095     0.0604941
  H        0.6529500    -1.3959670    -1.2698370
  H        1.1362240    -2.1837260     0.2527190
  H       -0.4482060    -0.7692910     1.4955050
  H        2.2087130    -0.1135160     1.0603560
  H        2.6064290    -0.0309800    -0.6748690
  H       -2.2893650    -0.4737730    -0.1440310
units angstrom
no_reorient  #important for SAPT in psi4, default
symmetry c1  #important for SAPT in psi4, default
}

set PROPERTIES_ORIGIN ["COM"]
properties('MP2/aug-cc-pvtz', properties = ['dipole'])
--------------------------------------------------------------------------

    Molecular point group: c1
  Charge       = 0
  Multiplicity = 1
  Basis Set: AUG-CC-PVTZ
    Blend: AUG-CC-PVTZ
  Basis Set: (AUG-CC-PVTZ AUX)
    Blend: AUG-CC-PVTZ-JKFIT

    Orbital Energies [Eh]
    ---------------------

    Doubly Occupied:

       1A    -20.615924     2A    -20.580451     3A    -20.563788
       4A    -11.391302     5A    -11.317774     6A    -11.315338
       7A    -11.257510     8A     -1.468806     9A     -1.389820
      10A     -1.378148    11A     -1.090380    12A     -0.984787
      13A     -0.859434    14A     -0.795304    15A     -0.732535
      16A     -0.714686    17A     -0.688364    18A     -0.657731
      19A     -0.625640    20A     -0.605785    21A     -0.580599
      22A     -0.561218    23A     -0.535936    24A     -0.524614
      25A     -0.474677    26A     -0.470513    27A     -0.444908

  @DF-RHF Final Energy:  -379.70182706134091

   => Energetics <=

    Nuclear Repulsion Energy =            317.3938864118585457
    One-Electron Energy =               -1148.9394813817095837
    Two-Electron Energy =                 451.8437679085100740
    Total Energy =                       -379.7018270613409072
  Basis Set: (AUG-CC-PVTZ AUX)
    Blend: AUG-CC-PVTZ-RI
    Molecular point group: c1

    Geometry (in Angstrom), charge = 0, multiplicity = 1:

       Center              X                  Y                   Z               Mass
    ------------   -----------------  -----------------  -----------------  -----------------
         O            1.040171637226     1.069947533473    -0.088666839509    15.994914619570
         O           -1.599635362774    -1.253390466527    -0.150443839509    15.994914619570
         O           -1.183796362774     1.552502533473    -0.060354839509    15.994914619570
         C            0.853592637226    -1.292548466527    -0.191415839509    12.000000000000
         C           -0.418484362774    -0.718465466527     0.403600160491    12.000000000000
         C            1.831807637226    -0.144814466527     0.055143160491    12.000000000000
         C           -0.287848062774     0.773248033473     0.067730260491    12.000000000000
         H            0.692222637226    -1.445728466527    -1.262600839509     1.007825032230
         H            1.175496637226    -2.233487466527     0.259955160491     1.007825032230
         H           -0.408933362774    -0.819052466527     1.502741160491     1.007825032230
         H            2.247985637226    -0.163277466527     1.067592160491     1.007825032230
         H            2.645701637226    -0.080741466527    -0.667632839509     1.007825032230
         H           -2.250092362774    -0.523534466527    -0.136794839509     1.007825032230

  Basis Set: AUG-CC-PVTZ
    Blend: AUG-CC-PVTZ
  Basis Set: (AUG-CC-PVTZ AUX)
    Blend: AUG-CC-PVTZ-JKFIT
	 Reference Energy          =    -379.7018270613409072 [Eh]
	 Singles Energy            =      -0.0000000000000000 [Eh]
	 Same-Spin Energy          =      -0.3679774476927967 [Eh]
	 Opposite-Spin Energy      =      -1.1355881970126016 [Eh]
	 Correlation Energy        =      -1.5035656447053984 [Eh]
	 Total Energy              =    -381.2053927060463252 [Eh]

	 ================> DF-SCS-MP2 Energies <==================
	-----------------------------------------------------------
	 SCS Same-Spin Scale       =       0.3333333333333333 [-]
	 SCS Opposite-Spin Scale   =       1.2000000000000000 [-]
	 SCS Same-Spin Energy      =      -0.1226591492309322 [Eh]
	 SCS Opposite-Spin Energy  =      -1.3627058364151219 [Eh]
	 SCS Correlation Energy    =      -1.4853649856460540 [Eh]
	 SCS Total Energy          =    -381.1871920469869792 [Eh]
	-----------------------------------------------------------

  Dipole Moment: [D]
     X:     2.5510      Y:    -2.1993      Z:     0.9726     Total:     3.5058

*** Psi4 exiting successfully. Buy a developer a beer!
