                               Psi4 1.3.2 release

  ==> Input File <==

--------------------------------------------------------------------------
#psi4
#
memory 32 gb

molecule  {
0 1
  O        1.0852777     1.1728162    -0.0758284
  O       -1.6389080    -1.2036290    -0.1576800
  O       -1.2230690     1.6022640    -0.0675910
  C        0.8143200    -1.2427870    -0.1986520
  C       -0.4577570    -0.6687040     0.3963640
  C        1.7925350    -0.0950530     0.0479070
  C       -0.3121170     0.8099600     0.0626390
  H        0.6529500    -1.3959670    -1.2698370
  H        1.1362240    -2.1837260     0.2527190
  H       -0.4482060    -0.7692910     1.4955050
  H        2.2087130    -0.1135160     1.0603560
  H        2.6064290    -0.0309800    -0.6748690
  H       -2.2893650    -0.4737730    -0.1440310
units angstrom
no_reorient  #important for SAPT in psi4, default
symmetry c1  #important for SAPT in psi4, default
}

set PROPERTIES_ORIGIN ["COM"]
properties('MP2/aug-cc-pvtz', properties = ['dipole'])
--------------------------------------------------------------------------

    Molecular point group: c1
  Charge       = 0
  Multiplicity = 1
  Basis Set: AUG-CC-PVTZ
    Blend: AUG-CC-PVTZ
  Basis Set: (AUG-CC-PVTZ AUX)
    Blend: AUG-CC-PVTZ-JKFIT

    Orbital Energies [Eh]
    ---------------------

    Doubly Occupied:

       1A    -20.614897     2A    -20.585884     3A    -20.574648
       4A    -11.403410     5A    -11.325174     6A    -11.309247
       7A    -11.259668     8A     -1.447851     9A     -1.387942
      10A     -1.372701    11A     -1.094042    12A     -0.977811
      13A     -0.857555    14A     -0.796830    15A     -0.724971
      16A     -0.712230    17A     -0.687729    18A     -0.653911
      19A     -0.619858    20A     -0.598520    21A     -0.579985
      22A     -0.561595    23A     -0.538580    24A     -0.527530
      25A     -0.477352    26A     -0.467225    27A     -0.451063

  @DF-RHF Final Energy:  -379.68759925617542

   => Energetics <=

    Nuclear Repulsion Energy =            314.8318252916256483
    One-Electron Energy =               -1143.8224282036371733
    Two-Electron Energy =                 449.3030036558361644
    Total Energy =                       -379.6875992561754174
  Basis Set: (AUG-CC-PVTZ AUX)
    Blend: AUG-CC-PVTZ-RI
    Molecular point group: c1

    Geometry (in Angstrom), charge = 0, multiplicity = 1:

       Center              X                  Y                   Z               Mass
    ------------   -----------------  -----------------  -----------------  -----------------
         O            1.109558186832     1.116264185338    -0.071991480463    15.994914619570
         O           -1.614627513168    -1.260181014662    -0.153843080463    15.994914619570
         O           -1.198788513168     1.545711985338    -0.063754080463    15.994914619570
         C            0.838600486832    -1.299339014662    -0.194815080463    12.000000000000
         C           -0.433476513168    -0.725256014662     0.400200919537    12.000000000000
         C            1.816815486832    -0.151605014662     0.051743919537    12.000000000000
         C           -0.287836513168     0.753407985338     0.066475919537    12.000000000000
         H            0.677230486832    -1.452519014662    -1.266000080463     1.007825032230
         H            1.160504486832    -2.240278014662     0.256555919537     1.007825032230
         H           -0.423925513168    -0.825843014662     1.499341919537     1.007825032230
         H            2.232993486832    -0.170068014662     1.064192919537     1.007825032230
         H            2.630709486832    -0.087532014662    -0.671032080463     1.007825032230
         H           -2.265084513168    -0.530325014662    -0.140194080463     1.007825032230

  Basis Set: AUG-CC-PVTZ
    Blend: AUG-CC-PVTZ
  Basis Set: (AUG-CC-PVTZ AUX)
    Blend: AUG-CC-PVTZ-JKFIT
	 Reference Energy          =    -379.6875992561754174 [Eh]
	 Singles Energy            =      -0.0000000000000000 [Eh]
	 Same-Spin Energy          =      -0.3697849632321228 [Eh]
	 Opposite-Spin Energy      =      -1.1406591682863485 [Eh]
	 Correlation Energy        =      -1.5104441315184713 [Eh]
	 Total Energy              =    -381.1980433876938719 [Eh]

	 ================> DF-SCS-MP2 Energies <==================
	-----------------------------------------------------------
	 SCS Same-Spin Scale       =       0.3333333333333333 [-]
	 SCS Opposite-Spin Scale   =       1.2000000000000000 [-]
	 SCS Same-Spin Energy      =      -0.1232616544107076 [Eh]
	 SCS Opposite-Spin Energy  =      -1.3687910019436182 [Eh]
	 SCS Correlation Energy    =      -1.4920526563543259 [Eh]
	 SCS Total Energy          =    -381.1796519125297209 [Eh]
	-----------------------------------------------------------

  Dipole Moment: [D]
     X:     2.0945      Y:    -2.3206      Z:     0.9736     Total:     3.2741

*** Psi4 exiting successfully. Buy a developer a beer!
