                               Psi4 1.3.2 release

  ==> Input File <==

--------------------------------------------------------------------------
#psi4
#
memory 32 gb

molecule  {
0 1
  O        1.0008990     1.1197090    -0.0959030
  O       -1.6389080    -1.2036290    -0.1576800
  O       -1.2230690     1.6022640    -0.0675910
  C        0.7960331    -1.1843166    -0.3463999
  C       -0.4577570    -0.6687040     0.3963640
  C        1.7925350    -0.0950530     0.0479070
  C       -0.3121170     0.8099600     0.0626390
  H        0.6529500    -1.3959670    -1.2698370
  H        1.1362240    -2.1837260     0.2527190
  H       -0.4482060    -0.7692910     1.4955050
  H        2.2087130    -0.1135160     1.0603560
  H        2.6064290    -0.0309800    -0.6748690
  H       -2.2893650    -0.4737730    -0.1440310
units angstrom
no_reorient  #important for SAPT in psi4, default
symmetry c1  #important for SAPT in psi4, default
}

set PROPERTIES_ORIGIN ["COM"]
properties('MP2/aug-cc-pvtz', properties = ['dipole'])
--------------------------------------------------------------------------

    Molecular point group: c1
  Charge       = 0
  Multiplicity = 1
  Basis Set: AUG-CC-PVTZ
    Blend: AUG-CC-PVTZ
  Basis Set: (AUG-CC-PVTZ AUX)
    Blend: AUG-CC-PVTZ-JKFIT

    Orbital Energies [Eh]
    ---------------------

    Doubly Occupied:

       1A    -20.617845     2A    -20.580283     3A    -20.558759
       4A    -11.390437     5A    -11.320411     6A    -11.318636
       7A    -11.260298     8A     -1.469376     9A     -1.388008
      10A     -1.370021    11A     -1.090543    12A     -0.988274
      13A     -0.873237    14A     -0.794147    15A     -0.735515
      16A     -0.711870    17A     -0.688647    18A     -0.663612
      19A     -0.629294    20A     -0.614464    21A     -0.573624
      22A     -0.557964    23A     -0.538035    24A     -0.508127
      25A     -0.476193    26A     -0.469991    27A     -0.440148

  @DF-RHF Final Energy:  -379.66914727588329

   => Energetics <=

    Nuclear Repulsion Energy =            317.7755688469271149
    One-Electron Energy =               -1149.6339114180520937
    Two-Electron Energy =                 452.1891952952416318
    Total Energy =                       -379.6691472758832901
  Basis Set: (AUG-CC-PVTZ AUX)
    Blend: AUG-CC-PVTZ-RI
    Molecular point group: c1

    Geometry (in Angstrom), charge = 0, multiplicity = 1:

       Center              X                  Y                   Z               Mass
    ------------   -----------------  -----------------  -----------------  -----------------
         O            1.040557776067     1.064605558069    -0.071542395813    15.994914619570
         O           -1.599249223933    -1.258732441931    -0.133319395813    15.994914619570
         O           -1.183410223933     1.547160558069    -0.043230395813    15.994914619570
         C            0.835691876067    -1.239420041931    -0.322039295813    12.000000000000
         C           -0.418098223933    -0.723807441931     0.420724604187    12.000000000000
         C            1.832193776067    -0.150156441931     0.072267604187    12.000000000000
         C           -0.272458223933     0.754856558069     0.086999604187    12.000000000000
         H            0.692608776067    -1.451070441931    -1.245476395813     1.007825032230
         H            1.175882776067    -2.238829441931     0.277079604187     1.007825032230
         H           -0.408547223933    -0.824394441931     1.519865604187     1.007825032230
         H            2.248371776067    -0.168619441931     1.084716604187     1.007825032230
         H            2.646087776067    -0.086083441931    -0.650508395813     1.007825032230
         H           -2.249706223933    -0.528876441931    -0.119670395813     1.007825032230

  Basis Set: AUG-CC-PVTZ
    Blend: AUG-CC-PVTZ
  Basis Set: (AUG-CC-PVTZ AUX)
    Blend: AUG-CC-PVTZ-JKFIT
	 Reference Energy          =    -379.6691472758832901 [Eh]
	 Singles Energy            =      -0.0000000000000000 [Eh]
	 Same-Spin Energy          =      -0.3687844993495569 [Eh]
	 Opposite-Spin Energy      =      -1.1376174643805397 [Eh]
	 Correlation Energy        =      -1.5064019637300965 [Eh]
	 Total Energy              =    -381.1755492396133604 [Eh]

	 ================> DF-SCS-MP2 Energies <==================
	-----------------------------------------------------------
	 SCS Same-Spin Scale       =       0.3333333333333333 [-]
	 SCS Opposite-Spin Scale   =       1.2000000000000000 [-]
	 SCS Same-Spin Energy      =      -0.1229281664498523 [Eh]
	 SCS Opposite-Spin Energy  =      -1.3651409572566475 [Eh]
	 SCS Correlation Energy    =      -1.4880691237064998 [Eh]
	 SCS Total Energy          =    -381.1572163995897995 [Eh]
	-----------------------------------------------------------

  Dipole Moment: [D]
     X:     2.6748      Y:    -2.2143      Z:     0.9573     Total:     3.6019

*** Psi4 exiting successfully. Buy a developer a beer!
