                               Psi4 1.3.2 release

  ==> Input File <==

--------------------------------------------------------------------------
#psi4
#
memory 32 gb

molecule  {
0 1
  O        0.9883826     1.1645551    -0.1048542
  O       -1.6389080    -1.2036290    -0.1576800
  O       -1.2230690     1.6022640    -0.0675910
  C        0.8143200    -1.2427870    -0.1986520
  C       -0.4577570    -0.6687040     0.3963640
  C        1.7925350    -0.0950530     0.0479070
  C       -0.3121170     0.8099600     0.0626390
  H        0.6529500    -1.3959670    -1.2698370
  H        1.1362240    -2.1837260     0.2527190
  H       -0.4482060    -0.7692910     1.4955050
  H        2.2087130    -0.1135160     1.0603560
  H        2.6064290    -0.0309800    -0.6748690
  H       -2.2893650    -0.4737730    -0.1440310
units angstrom
no_reorient  #important for SAPT in psi4, default
symmetry c1  #important for SAPT in psi4, default
}

set PROPERTIES_ORIGIN ["COM"]
properties('MP2/aug-cc-pvtz', properties = ['dipole'])
--------------------------------------------------------------------------

    Molecular point group: c1
  Charge       = 0
  Multiplicity = 1
  Basis Set: AUG-CC-PVTZ
    Blend: AUG-CC-PVTZ
  Basis Set: (AUG-CC-PVTZ AUX)
    Blend: AUG-CC-PVTZ-JKFIT

    Orbital Energies [Eh]
    ---------------------

    Doubly Occupied:

       1A    -20.620102     2A    -20.581827     3A    -20.556251
       4A    -11.389770     5A    -11.321290     6A    -11.320377
       7A    -11.261378     8A     -1.462602     9A     -1.386693
      10A     -1.364838    11A     -1.096968    12A     -0.982718
      13A     -0.862189    14A     -0.795751    15A     -0.731323
      16A     -0.712678    17A     -0.687025    18A     -0.654395
      19A     -0.617268    20A     -0.605690    21A     -0.580446
      22A     -0.560985    23A     -0.537695    24A     -0.523452
      25A     -0.475686    26A     -0.467922    27A     -0.446625

  @DF-RHF Final Energy:  -379.69756878345885

   => Energetics <=

    Nuclear Repulsion Energy =            316.5816701012724366
    One-Electron Energy =               -1147.3505901857563458
    Two-Electron Energy =                 451.0713513010250040
    Total Energy =                       -379.6975687834588484
  Basis Set: (AUG-CC-PVTZ AUX)
    Blend: AUG-CC-PVTZ-RI
    Molecular point group: c1

    Geometry (in Angstrom), charge = 0, multiplicity = 1:

       Center              X                  Y                   Z               Mass
    ------------   -----------------  -----------------  -----------------  -----------------
         O            1.027852767509     1.109298129887    -0.096467074793    15.994914619570
         O           -1.599437832491    -1.258885970113    -0.149292874793    15.994914619570
         O           -1.183598832491     1.547007029887    -0.059203874793    15.994914619570
         C            0.853790167509    -1.298043970113    -0.190264874793    12.000000000000
         C           -0.418286832491    -0.723960970113     0.404751125207    12.000000000000
         C            1.832005167509    -0.150309970113     0.056294125207    12.000000000000
         C           -0.272646832491     0.754703029887     0.071026125207    12.000000000000
         H            0.692420167509    -1.451223970113    -1.261449874793     1.007825032230
         H            1.175694167509    -2.238982970113     0.261106125207     1.007825032230
         H           -0.408735832491    -0.824547970113     1.503892125207     1.007825032230
         H            2.248183167509    -0.168772970113     1.068743125207     1.007825032230
         H            2.645899167509    -0.086236970113    -0.666481874793     1.007825032230
         H           -2.249894832491    -0.529029970113    -0.135643874793     1.007825032230

  Basis Set: AUG-CC-PVTZ
    Blend: AUG-CC-PVTZ
  Basis Set: (AUG-CC-PVTZ AUX)
    Blend: AUG-CC-PVTZ-JKFIT
	 Reference Energy          =    -379.6975687834588484 [Eh]
	 Singles Energy            =      -0.0000000000000000 [Eh]
	 Same-Spin Energy          =      -0.3686577552148086 [Eh]
	 Opposite-Spin Energy      =      -1.1376284662949816 [Eh]
	 Correlation Energy        =      -1.5062862215097903 [Eh]
	 Total Energy              =    -381.2038550049686592 [Eh]

	 ================> DF-SCS-MP2 Energies <==================
	-----------------------------------------------------------
	 SCS Same-Spin Scale       =       0.3333333333333333 [-]
	 SCS Opposite-Spin Scale   =       1.2000000000000000 [-]
	 SCS Same-Spin Energy      =      -0.1228859184049362 [Eh]
	 SCS Opposite-Spin Energy  =      -1.3651541595539778 [Eh]
	 SCS Correlation Energy    =      -1.4880400779589140 [Eh]
	 SCS Total Energy          =    -381.1856088614177906 [Eh]
	-----------------------------------------------------------

  Dipole Moment: [D]
     X:     2.7587      Y:    -2.4352      Z:     1.0021     Total:     3.8137

*** Psi4 exiting successfully. Buy a developer a beer!
