                               Psi4 1.3.2 release

  ==> Input File <==

--------------------------------------------------------------------------
#psi4
#
memory 32 gb

molecule  {
0 1
  O        1.0008990     1.1197090    -0.0959030
  O       -1.6389080    -1.2036290    -0.1576800
  O       -1.2504624     1.5709911    -0.0593384
  C        0.8143200    -1.2427870    -0.1986520
  C       -0.4577570    -0.6687040     0.3963640
  C        1.7925350    -0.0950530     0.0479070
  C       -0.3121170     0.8099600     0.0626390
  H        0.6529500    -1.3959670    -1.2698370
  H        1.1362240    -2.1837260     0.2527190
  H       -0.4482060    -0.7692910     1.4955050
  H        2.2087130    -0.1135160     1.0603560
  H        2.6064290    -0.0309800    -0.6748690
  H       -2.2893650    -0.4737730    -0.1440310
units angstrom
no_reorient  #important for SAPT in psi4, default
symmetry c1  #important for SAPT in psi4, default
}

set PROPERTIES_ORIGIN ["COM"]
properties('MP2/aug-cc-pvtz', properties = ['dipole'])
--------------------------------------------------------------------------

    Molecular point group: c1
  Charge       = 0
  Multiplicity = 1
  Basis Set: AUG-CC-PVTZ
    Blend: AUG-CC-PVTZ
  Basis Set: (AUG-CC-PVTZ AUX)
    Blend: AUG-CC-PVTZ-JKFIT

    Orbital Energies [Eh]
    ---------------------

    Doubly Occupied:

       1A    -20.622523     2A    -20.579307     3A    -20.560952
       4A    -11.393364     5A    -11.318009     6A    -11.316468
       7A    -11.258271     8A     -1.470048     9A     -1.388807
      10A     -1.371026    11A     -1.093042    12A     -0.988155
      13A     -0.861795    14A     -0.797049    15A     -0.734673
      16A     -0.714340    17A     -0.689031    18A     -0.658843
      19A     -0.622724    20A     -0.604966    21A     -0.581843
      22A     -0.559286    23A     -0.535877    24A     -0.523456
      25A     -0.473859    26A     -0.470123    27A     -0.445947

  @DF-RHF Final Energy:  -379.70041151050043

   => Energetics <=

    Nuclear Repulsion Energy =            317.6147993524883191
    One-Electron Energy =               -1149.3628529097575210
    Two-Electron Energy =                 452.0476420467688285
    Total Energy =                       -379.7004115105004303
  Basis Set: (AUG-CC-PVTZ AUX)
    Blend: AUG-CC-PVTZ-RI
    Molecular point group: c1

    Geometry (in Angstrom), charge = 0, multiplicity = 1:

       Center              X                  Y                   Z               Mass
    ------------   -----------------  -----------------  -----------------  -----------------
         O            1.042701348181     1.076384762331    -0.090212814354    15.994914619570
         O           -1.597105651819    -1.246953237669    -0.151989814354    15.994914619570
         O           -1.208660051819     1.527666862331    -0.053648214354    15.994914619570
         C            0.856122348181    -1.286111237669    -0.192961814354    12.000000000000
         C           -0.415954651819    -0.712028237669     0.402054185646    12.000000000000
         C            1.834337348181    -0.138377237669     0.053597185646    12.000000000000
         C           -0.270314651819     0.766635762331     0.068329185646    12.000000000000
         H            0.694752348181    -1.439291237669    -1.264146814354     1.007825032230
         H            1.178026348181    -2.227050237669     0.258409185646     1.007825032230
         H           -0.406403651819    -0.812615237669     1.501195185646     1.007825032230
         H            2.250515348181    -0.156840237669     1.066046185646     1.007825032230
         H            2.648231348181    -0.074304237669    -0.669178814354     1.007825032230
         H           -2.247562651819    -0.517097237669    -0.138340814354     1.007825032230

  Basis Set: AUG-CC-PVTZ
    Blend: AUG-CC-PVTZ
  Basis Set: (AUG-CC-PVTZ AUX)
    Blend: AUG-CC-PVTZ-JKFIT
	 Reference Energy          =    -379.7004115105004303 [Eh]
	 Singles Energy            =      -0.0000000000000000 [Eh]
	 Same-Spin Energy          =      -0.3684846569253830 [Eh]
	 Opposite-Spin Energy      =      -1.1364538065151495 [Eh]
	 Correlation Energy        =      -1.5049384634405325 [Eh]
	 Total Energy              =    -381.2053499739409403 [Eh]

	 ================> DF-SCS-MP2 Energies <==================
	-----------------------------------------------------------
	 SCS Same-Spin Scale       =       0.3333333333333333 [-]
	 SCS Opposite-Spin Scale   =       1.2000000000000000 [-]
	 SCS Same-Spin Energy      =      -0.1228282189751277 [Eh]
	 SCS Opposite-Spin Energy  =      -1.3637445678181794 [Eh]
	 SCS Correlation Energy    =      -1.4865727867933072 [Eh]
	 SCS Total Energy          =    -381.1869842972937477 [Eh]
	-----------------------------------------------------------

  Dipole Moment: [D]
     X:     2.7604      Y:    -2.2011      Z:     0.9630     Total:     3.6595

*** Psi4 exiting successfully. Buy a developer a beer!
