                               Psi4 1.3.2 release

  ==> Input File <==

--------------------------------------------------------------------------
#psi4
#
memory 32 gb

molecule  {
0 1
  O        0.8816858     1.0290404    -0.1246716
  O       -1.6389080    -1.2036290    -0.1576800
  O       -1.2230690     1.6022640    -0.0675910
  C        0.8143200    -1.2427870    -0.1986520
  C       -0.4577570    -0.6687040     0.3963640
  C        1.7925350    -0.0950530     0.0479070
  C       -0.3121170     0.8099600     0.0626390
  H        0.6529500    -1.3959670    -1.2698370
  H        1.1362240    -2.1837260     0.2527190
  H       -0.4482060    -0.7692910     1.4955050
  H        2.2087130    -0.1135160     1.0603560
  H        2.6064290    -0.0309800    -0.6748690
  H       -2.2893650    -0.4737730    -0.1440310
units angstrom
no_reorient  #important for SAPT in psi4, default
symmetry c1  #important for SAPT in psi4, default
}

set PROPERTIES_ORIGIN ["COM"]
properties('MP2/aug-cc-pvtz', properties = ['dipole'])
--------------------------------------------------------------------------

    Molecular point group: c1
  Charge       = 0
  Multiplicity = 1
  Basis Set: AUG-CC-PVTZ
    Blend: AUG-CC-PVTZ
  Basis Set: (AUG-CC-PVTZ AUX)
    Blend: AUG-CC-PVTZ-JKFIT

    Orbital Energies [Eh]
    ---------------------

    Doubly Occupied:

       1A    -20.627177     2A    -20.573452     3A    -20.536636
       4A    -11.374840     5A    -11.331221     6A    -11.307720
       7A    -11.258199     8A     -1.525425     9A     -1.383237
      10A     -1.360948    11A     -1.098134    12A     -1.006199
      13A     -0.869283    14A     -0.802266    15A     -0.756954
      16A     -0.723185    17A     -0.689650    18A     -0.663837
      19A     -0.623089    20A     -0.613986    21A     -0.583230
      22A     -0.559758    23A     -0.534664    24A     -0.513341
      25A     -0.470319    26A     -0.463116    27A     -0.434503

  @DF-RHF Final Energy:  -379.69105831036694

   => Energetics <=

    Nuclear Repulsion Energy =            321.7512682199801475
    One-Electron Energy =               -1157.5159163874727710
    Two-Electron Energy =                 456.0735898571256826
    Total Energy =                       -379.6910583103669410
  Basis Set: (AUG-CC-PVTZ AUX)
    Blend: AUG-CC-PVTZ-RI
    Molecular point group: c1

    Geometry (in Angstrom), charge = 0, multiplicity = 1:

       Center              X                  Y                   Z               Mass
    ------------   -----------------  -----------------  -----------------  -----------------
         O            0.937882203626     0.995027280401    -0.113177816377    15.994914619570
         O           -1.582711596374    -1.237642119599    -0.146186216377    15.994914619570
         O           -1.166872596374     1.568250880401    -0.056097216377    15.994914619570
         C            0.870516403626    -1.276800119599    -0.187158216377    12.000000000000
         C           -0.401560596374    -0.702717119599     0.407857783623    12.000000000000
         C            1.848731403626    -0.129066119599     0.059400783623    12.000000000000
         C           -0.255920596374     0.775946880401     0.074132783623    12.000000000000
         H            0.709146403626    -1.429980119599    -1.258343216377     1.007825032230
         H            1.192420403626    -2.217739119599     0.264212783623     1.007825032230
         H           -0.392009596374    -0.803304119599     1.506998783623     1.007825032230
         H            2.264909403626    -0.147529119599     1.071849783623     1.007825032230
         H            2.662625403626    -0.064993119599    -0.663375216377     1.007825032230
         H           -2.233168596374    -0.507786119599    -0.132537216377     1.007825032230

  Basis Set: AUG-CC-PVTZ
    Blend: AUG-CC-PVTZ
  Basis Set: (AUG-CC-PVTZ AUX)
    Blend: AUG-CC-PVTZ-JKFIT
	 Reference Energy          =    -379.6910583103669410 [Eh]
	 Singles Energy            =      -0.0000000000000000 [Eh]
	 Same-Spin Energy          =      -0.3671183815972653 [Eh]
	 Opposite-Spin Energy      =      -1.1316484038054400 [Eh]
	 Correlation Energy        =      -1.4987667854027054 [Eh]
	 Total Energy              =    -381.1898250957696632 [Eh]

	 ================> DF-SCS-MP2 Energies <==================
	-----------------------------------------------------------
	 SCS Same-Spin Scale       =       0.3333333333333333 [-]
	 SCS Opposite-Spin Scale   =       1.2000000000000000 [-]
	 SCS Same-Spin Energy      =      -0.1223727938657551 [Eh]
	 SCS Opposite-Spin Energy  =      -1.3579780845665279 [Eh]
	 SCS Correlation Energy    =      -1.4803508784322830 [Eh]
	 SCS Total Energy          =    -381.1714091887992026 [Eh]
	-----------------------------------------------------------

  Dipole Moment: [D]
     X:     3.6052      Y:    -2.2577      Z:     0.9781     Total:     4.3648

*** Psi4 exiting successfully. Buy a developer a beer!
