                               Psi4 1.3.2 release

  ==> Input File <==

--------------------------------------------------------------------------
#psi4
#
memory 32 gb

molecule  {
0 1
  O        1.0008990     1.1197090    -0.0959030
  O       -1.6389080    -1.2036290    -0.1576800
  O       -1.2230690     1.6022640    -0.0675910
  C        0.8143200    -1.2427870    -0.1986520
  C       -0.3822893    -0.6682650     0.5360901
  C        1.7925350    -0.0950530     0.0479070
  C       -0.3121170     0.8099600     0.0626390
  H        0.6529500    -1.3959670    -1.2698370
  H        1.1362240    -2.1837260     0.2527190
  H       -0.4482060    -0.7692910     1.4955050
  H        2.2087130    -0.1135160     1.0603560
  H        2.6064290    -0.0309800    -0.6748690
  H       -2.2893650    -0.4737730    -0.1440310
units angstrom
no_reorient  #important for SAPT in psi4, default
symmetry c1  #important for SAPT in psi4, default
}

set PROPERTIES_ORIGIN ["COM"]
properties('MP2/aug-cc-pvtz', properties = ['dipole'])
--------------------------------------------------------------------------

    Molecular point group: c1
  Charge       = 0
  Multiplicity = 1
  Basis Set: AUG-CC-PVTZ
    Blend: AUG-CC-PVTZ
  Basis Set: (AUG-CC-PVTZ AUX)
    Blend: AUG-CC-PVTZ-JKFIT

    Orbital Energies [Eh]
    ---------------------

    Doubly Occupied:

       1A    -20.620630     2A    -20.569657     3A    -20.562796
       4A    -11.397754     5A    -11.318443     6A    -11.317054
       7A    -11.263497     8A     -1.470225     9A     -1.378032
      10A     -1.338391    11A     -1.099412    12A     -0.991686
      13A     -0.869713    14A     -0.800314    15A     -0.738559
      16A     -0.704399    17A     -0.679889    18A     -0.669146
      19A     -0.619946    20A     -0.606361    21A     -0.565977
      22A     -0.549546    23A     -0.534044    24A     -0.520412
      25A     -0.483299    26A     -0.469355    27A     -0.448059

  @DF-RHF Final Energy:  -379.66952825027715

   => Energetics <=

    Nuclear Repulsion Energy =            316.1156886370685584
    One-Electron Energy =               -1146.3972420511720429
    Two-Electron Energy =                 450.6120251638262744
    Total Energy =                       -379.6695282502771533
  Basis Set: (AUG-CC-PVTZ AUX)
    Blend: AUG-CC-PVTZ-RI
    Molecular point group: c1

    Geometry (in Angstrom), charge = 0, multiplicity = 1:

       Center              X                  Y                   Z               Mass
    ------------   -----------------  -----------------  -----------------  -----------------
         O            1.029531249354     1.071430660862    -0.105352360766    15.994914619570
         O           -1.610275750646    -1.251907339138    -0.167129360766    15.994914619570
         O           -1.194436750646     1.553985660862    -0.077040360766    15.994914619570
         C            0.842952249354    -1.291065339138    -0.208101360766    12.000000000000
         C           -0.353657050646    -0.716543339138     0.526640739234    12.000000000000
         C            1.821167249354    -0.143331339138     0.038457639234    12.000000000000
         C           -0.283484750646     0.761681660862     0.053189639234    12.000000000000
         H            0.681582249354    -1.444245339138    -1.279286360766     1.007825032230
         H            1.164856249354    -2.232004339138     0.243269639234     1.007825032230
         H           -0.419573750646    -0.817569339138     1.486055639234     1.007825032230
         H            2.237345249354    -0.161794339138     1.050906639234     1.007825032230
         H            2.635061249354    -0.079258339138    -0.684318360766     1.007825032230
         H           -2.260732750646    -0.522051339138    -0.153480360766     1.007825032230

  Basis Set: AUG-CC-PVTZ
    Blend: AUG-CC-PVTZ
  Basis Set: (AUG-CC-PVTZ AUX)
    Blend: AUG-CC-PVTZ-JKFIT
	 Reference Energy          =    -379.6695282502771533 [Eh]
	 Singles Energy            =      -0.0000000000000000 [Eh]
	 Same-Spin Energy          =      -0.3691201420552859 [Eh]
	 Opposite-Spin Energy      =      -1.1399710512923691 [Eh]
	 Correlation Energy        =      -1.5090911933476550 [Eh]
	 Total Energy              =    -381.1786194436248252 [Eh]

	 ================> DF-SCS-MP2 Energies <==================
	-----------------------------------------------------------
	 SCS Same-Spin Scale       =       0.3333333333333333 [-]
	 SCS Opposite-Spin Scale   =       1.2000000000000000 [-]
	 SCS Same-Spin Energy      =      -0.1230400473517620 [Eh]
	 SCS Opposite-Spin Energy  =      -1.3679652615508429 [Eh]
	 SCS Correlation Energy    =      -1.4910053089026047 [Eh]
	 SCS Total Energy          =    -381.1605335591797825 [Eh]
	-----------------------------------------------------------

  Dipole Moment: [D]
     X:     3.0009      Y:    -2.1571      Z:     1.2037     Total:     3.8869

*** Psi4 exiting successfully. Buy a developer a beer!
