                               Psi4 1.3.2 release

  ==> Input File <==

--------------------------------------------------------------------------
#psi4
#
memory 32 gb

molecule  {
0 1
  O        1.0008990     1.1197090    -0.0959030
  O       -1.6389080    -1.2036290    -0.1576800
  O       -1.2230690     1.6022640    -0.0675910
  C        0.8143200    -1.2427870    -0.1986520
  C       -0.4577570    -0.6687040     0.3963640
  C        1.7925350    -0.0950530     0.0479070
  C       -0.4621536     0.9404550     0.0411897
  H        0.6529500    -1.3959670    -1.2698370
  H        1.1362240    -2.1837260     0.2527190
  H       -0.4482060    -0.7692910     1.4955050
  H        2.2087130    -0.1135160     1.0603560
  H        2.6064290    -0.0309800    -0.6748690
  H       -2.2893650    -0.4737730    -0.1440310
units angstrom
no_reorient  #important for SAPT in psi4, default
symmetry c1  #important for SAPT in psi4, default
}

set PROPERTIES_ORIGIN ["COM"]
properties('MP2/aug-cc-pvtz', properties = ['dipole'])
--------------------------------------------------------------------------

    Molecular point group: c1
  Charge       = 0
  Multiplicity = 1
  Basis Set: AUG-CC-PVTZ
    Blend: AUG-CC-PVTZ
  Basis Set: (AUG-CC-PVTZ AUX)
    Blend: AUG-CC-PVTZ-JKFIT

    Orbital Energies [Eh]
    ---------------------

    Doubly Occupied:

       1A    -20.598807     2A    -20.575828     3A    -20.571422
       4A    -11.376785     5A    -11.309539     6A    -11.296848
       7A    -11.244440     8A     -1.585914     9A     -1.381873
      10A     -1.361668    11A     -1.064759    12A     -0.951392
      13A     -0.840010    14A     -0.785119    15A     -0.748996
      16A     -0.727116    17A     -0.702513    18A     -0.665095
      19A     -0.645859    20A     -0.630572    21A     -0.584487
      22A     -0.561636    23A     -0.539354    24A     -0.513347
      25A     -0.470000    26A     -0.455590    27A     -0.405233

  @DF-RHF Final Energy:  -379.61635616131446

   => Energetics <=

    Nuclear Repulsion Energy =            317.4633830853501308
    One-Electron Energy =               -1148.9710713093199956
    Two-Electron Energy =                 451.8913320626553514
    Total Energy =                       -379.6163561613144566
  Basis Set: (AUG-CC-PVTZ AUX)
    Blend: AUG-CC-PVTZ-RI
    Molecular point group: c1

    Geometry (in Angstrom), charge = 0, multiplicity = 1:

       Center              X                  Y                   Z               Mass
    ------------   -----------------  -----------------  -----------------  -----------------
         O            1.056052926027     1.056134707830    -0.086396439099    15.994914619570
         O           -1.583754073973    -1.267203292170    -0.148173439099    15.994914619570
         O           -1.167915073973     1.538689707830    -0.058084439099    15.994914619570
         C            0.869473926027    -1.306361292170    -0.189145439099    12.000000000000
         C           -0.402603073973    -0.732278292170     0.405870560901    12.000000000000
         C            1.847688926027    -0.158627292170     0.057413560901    12.000000000000
         C           -0.406999673973     0.876880707830     0.050696260901    12.000000000000
         H            0.708103926027    -1.459541292170    -1.260330439099     1.007825032230
         H            1.191377926027    -2.247300292170     0.262225560901     1.007825032230
         H           -0.393052073973    -0.832865292170     1.505011560901     1.007825032230
         H            2.263866926027    -0.177090292170     1.069862560901     1.007825032230
         H            2.661582926027    -0.094554292170    -0.665362439099     1.007825032230
         H           -2.234211073973    -0.537347292170    -0.134524439099     1.007825032230

  Basis Set: AUG-CC-PVTZ
    Blend: AUG-CC-PVTZ
  Basis Set: (AUG-CC-PVTZ AUX)
    Blend: AUG-CC-PVTZ-JKFIT
	 Reference Energy          =    -379.6163561613144566 [Eh]
	 Singles Energy            =      -0.0000000000000000 [Eh]
	 Same-Spin Energy          =      -0.3650411744338954 [Eh]
	 Opposite-Spin Energy      =      -1.1298646710146916 [Eh]
	 Correlation Energy        =      -1.4949058454485868 [Eh]
	 Total Energy              =    -381.1112620067630701 [Eh]

	 ================> DF-SCS-MP2 Energies <==================
	-----------------------------------------------------------
	 SCS Same-Spin Scale       =       0.3333333333333333 [-]
	 SCS Opposite-Spin Scale   =       1.2000000000000000 [-]
	 SCS Same-Spin Energy      =      -0.1216803914779651 [Eh]
	 SCS Opposite-Spin Energy  =      -1.3558376052176297 [Eh]
	 SCS Correlation Energy    =      -1.4775179966955949 [Eh]
	 SCS Total Energy          =    -381.0938741580100668 [Eh]
	-----------------------------------------------------------

  Dipole Moment: [D]
     X:     1.0533      Y:    -1.2752      Z:     0.8865     Total:     1.8766

*** Psi4 exiting successfully. Buy a developer a beer!
