                               Psi4 1.3.2 release

  ==> Input File <==

--------------------------------------------------------------------------
#psi4
#
memory 32 gb

molecule  {
0 1
  O        1.0008990     1.1197090    -0.0959030
  O       -1.6389080    -1.2036290    -0.1576800
  O       -1.2230690     1.6022640    -0.0675910
  C        0.8143200    -1.2427870    -0.1986520
  C       -0.4577570    -0.6687040     0.3963640
  C        1.7925350    -0.0950530     0.0479070
  C       -0.3871353     0.8752075     0.0519144
  H        0.6529500    -1.3959670    -1.2698370
  H        1.1362240    -2.1837260     0.2527190
  H       -0.4482060    -0.7692910     1.4955050
  H        2.2087130    -0.1135160     1.0603560
  H        2.6064290    -0.0309800    -0.6748690
  H       -2.2893650    -0.4737730    -0.1440310
units angstrom
no_reorient  #important for SAPT in psi4, default
symmetry c1  #important for SAPT in psi4, default
}

set PROPERTIES_ORIGIN ["COM"]
properties('MP2/aug-cc-pvtz', properties = ['dipole'])
--------------------------------------------------------------------------

    Molecular point group: c1
  Charge       = 0
  Multiplicity = 1
  Basis Set: AUG-CC-PVTZ
    Blend: AUG-CC-PVTZ
  Basis Set: (AUG-CC-PVTZ AUX)
    Blend: AUG-CC-PVTZ-JKFIT

    Orbital Energies [Eh]
    ---------------------

    Doubly Occupied:

       1A    -20.597181     2A    -20.578985     3A    -20.578189
       4A    -11.385231     5A    -11.314219     6A    -11.307493
       7A    -11.251814     8A     -1.500175     9A     -1.392923
      10A     -1.380458    11A     -1.078380    12A     -0.970472
      13A     -0.849161    14A     -0.787445    15A     -0.730413
      16A     -0.719803    17A     -0.690457    18A     -0.654879
      19A     -0.633308    20A     -0.620301    21A     -0.576004
      22A     -0.567135    23A     -0.540188    24A     -0.523518
      25A     -0.475606    26A     -0.467151    27A     -0.431008

  @DF-RHF Final Energy:  -379.68838782560903

   => Energetics <=

    Nuclear Repulsion Energy =            317.2540339980832300
    One-Electron Energy =               -1148.6810492575264107
    Two-Electron Energy =                 451.7386274338340968
    Total Energy =                       -379.6883878256090270
  Basis Set: (AUG-CC-PVTZ AUX)
    Blend: AUG-CC-PVTZ-RI
    Molecular point group: c1

    Geometry (in Angstrom), charge = 0, multiplicity = 1:

       Center              X                  Y                   Z               Mass
    ------------   -----------------  -----------------  -----------------  -----------------
         O            1.047229985191     1.063808499853    -0.087657776580    15.994914619570
         O           -1.592577014809    -1.259529500147    -0.149434776580    15.994914619570
         O           -1.176738014809     1.546363499853    -0.059345776580    15.994914619570
         C            0.860650985191    -1.298687500147    -0.190406776580    12.000000000000
         C           -0.411426014809    -0.724604500147     0.404609223420    12.000000000000
         C            1.838865985191    -0.150953500147     0.056152223420    12.000000000000
         C           -0.340804314809     0.819306999853     0.060159623420    12.000000000000
         H            0.699280985191    -1.451867500147    -1.261591776580     1.007825032230
         H            1.182554985191    -2.239626500147     0.260964223420     1.007825032230
         H           -0.401875014809    -0.825191500147     1.503750223420     1.007825032230
         H            2.255043985191    -0.169416500147     1.068601223420     1.007825032230
         H            2.652759985191    -0.086880500147    -0.666623776580     1.007825032230
         H           -2.243034014809    -0.529673500147    -0.135785776580     1.007825032230

  Basis Set: AUG-CC-PVTZ
    Blend: AUG-CC-PVTZ
  Basis Set: (AUG-CC-PVTZ AUX)
    Blend: AUG-CC-PVTZ-JKFIT
	 Reference Energy          =    -379.6883878256090270 [Eh]
	 Singles Energy            =      -0.0000000000000000 [Eh]
	 Same-Spin Energy          =      -0.3664402614799830 [Eh]
	 Opposite-Spin Energy      =      -1.1326436710933929 [Eh]
	 Correlation Energy        =      -1.4990839325733760 [Eh]
	 Total Energy              =    -381.1874717581824257 [Eh]

	 ================> DF-SCS-MP2 Energies <==================
	-----------------------------------------------------------
	 SCS Same-Spin Scale       =       0.3333333333333333 [-]
	 SCS Opposite-Spin Scale   =       1.2000000000000000 [-]
	 SCS Same-Spin Energy      =      -0.1221467538266610 [Eh]
	 SCS Opposite-Spin Energy  =      -1.3591724053120715 [Eh]
	 SCS Correlation Energy    =      -1.4813191591387325 [Eh]
	 SCS Total Energy          =    -381.1697069847477337 [Eh]
	-----------------------------------------------------------

  Dipole Moment: [D]
     X:     1.9256      Y:    -1.8096      Z:     0.9373     Total:     2.8038

*** Psi4 exiting successfully. Buy a developer a beer!
