                               Psi4 1.3.2 release

  ==> Input File <==

--------------------------------------------------------------------------
#psi4
#
memory 32 gb

molecule  {
0 1
  O        1.0008990     1.1197090    -0.0959030
  O       -1.6389080    -1.2036290    -0.1576800
  O       -1.2230690     1.6022640    -0.0675910
  C        0.8143200    -1.2427870    -0.1986520
  C       -0.4798523    -0.6702503     0.3482621
  C        1.7925350    -0.0950530     0.0479070
  C       -0.3121170     0.8099600     0.0626390
  H        0.6529500    -1.3959670    -1.2698370
  H        1.1362240    -2.1837260     0.2527190
  H       -0.4482060    -0.7692910     1.4955050
  H        2.2087130    -0.1135160     1.0603560
  H        2.6064290    -0.0309800    -0.6748690
  H       -2.2893650    -0.4737730    -0.1440310
units angstrom
no_reorient  #important for SAPT in psi4, default
symmetry c1  #important for SAPT in psi4, default
}

set PROPERTIES_ORIGIN ["COM"]
properties('MP2/aug-cc-pvtz', properties = ['dipole'])
--------------------------------------------------------------------------

    Molecular point group: c1
  Charge       = 0
  Multiplicity = 1
  Basis Set: AUG-CC-PVTZ
    Blend: AUG-CC-PVTZ
  Basis Set: (AUG-CC-PVTZ AUX)
    Blend: AUG-CC-PVTZ-JKFIT

    Orbital Energies [Eh]
    ---------------------

    Doubly Occupied:

       1A    -20.620537     2A    -20.585144     3A    -20.559092
       4A    -11.391793     5A    -11.320685     6A    -11.317116
       7A    -11.258171     8A     -1.470009     9A     -1.402589
      10A     -1.372799    11A     -1.092235    12A     -0.987346
      13A     -0.861410    14A     -0.800907    15A     -0.733935
      16A     -0.717970    17A     -0.689892    18A     -0.655657
      19A     -0.625910    20A     -0.603274    21A     -0.590273
      22A     -0.562728    23A     -0.535553    24A     -0.525253
      25A     -0.468473    26A     -0.466626    27A     -0.444381

  @DF-RHF Final Energy:  -379.69884176131461

   => Energetics <=

    Nuclear Repulsion Energy =            317.8958238956673199
    One-Electron Energy =               -1149.8698106654501316
    Two-Electron Energy =                 452.2751450084682574
    Total Energy =                       -379.6988417613146112
  Basis Set: (AUG-CC-PVTZ AUX)
    Blend: AUG-CC-PVTZ-RI
    Molecular point group: c1

    Geometry (in Angstrom), charge = 0, multiplicity = 1:

       Center              X                  Y                   Z               Mass
    ------------   -----------------  -----------------  -----------------  -----------------
         O            1.041005683949     1.071664153015    -0.083261813109    15.994914619570
         O           -1.598801316051    -1.251673846985    -0.145038813109    15.994914619570
         O           -1.182962316051     1.554219153015    -0.054949813109    15.994914619570
         C            0.854426683949    -1.290831846985    -0.186010813109    12.000000000000
         C           -0.439745616051    -0.718295146985     0.360903286891    12.000000000000
         C            1.832641683949    -0.143097846985     0.060548186891    12.000000000000
         C           -0.272010316051     0.761915153015     0.075280186891    12.000000000000
         H            0.693056683949    -1.444011846985    -1.257195813109     1.007825032230
         H            1.176330683949    -2.231770846985     0.265360186891     1.007825032230
         H           -0.408099316051    -0.817335846985     1.508146186891     1.007825032230
         H            2.248819683949    -0.161560846985     1.072997186891     1.007825032230
         H            2.646535683949    -0.079024846985    -0.662227813109     1.007825032230
         H           -2.249258316051    -0.521817846985    -0.131389813109     1.007825032230

  Basis Set: AUG-CC-PVTZ
    Blend: AUG-CC-PVTZ
  Basis Set: (AUG-CC-PVTZ AUX)
    Blend: AUG-CC-PVTZ-JKFIT
	 Reference Energy          =    -379.6988417613146112 [Eh]
	 Singles Energy            =      -0.0000000000000000 [Eh]
	 Same-Spin Energy          =      -0.3684919389219823 [Eh]
	 Opposite-Spin Energy      =      -1.1359768862932071 [Eh]
	 Correlation Energy        =      -1.5044688252151894 [Eh]
	 Total Energy              =    -381.2033105865298239 [Eh]

	 ================> DF-SCS-MP2 Energies <==================
	-----------------------------------------------------------
	 SCS Same-Spin Scale       =       0.3333333333333333 [-]
	 SCS Opposite-Spin Scale   =       1.2000000000000000 [-]
	 SCS Same-Spin Energy      =      -0.1228306463073274 [Eh]
	 SCS Opposite-Spin Energy  =      -1.3631722635518486 [Eh]
	 SCS Correlation Energy    =      -1.4860029098591760 [Eh]
	 SCS Total Energy          =    -381.1848446711737779 [Eh]
	-----------------------------------------------------------

  Dipole Moment: [D]
     X:     2.5878      Y:    -2.3387      Z:     0.8701     Total:     3.5949

*** Psi4 exiting successfully. Buy a developer a beer!
