                               Psi4 1.3.2 release

  ==> Input File <==

--------------------------------------------------------------------------
#psi4
#
memory 32 gb

molecule  {
0 1
  O        0.9601310     1.0909188    -0.1056836
  O       -1.6389080    -1.2036290    -0.1576800
  O       -1.2230690     1.6022640    -0.0675910
  C        0.8143200    -1.2427870    -0.1986520
  C       -0.4577570    -0.6687040     0.3963640
  C        1.7925350    -0.0950530     0.0479070
  C       -0.3121170     0.8099600     0.0626390
  H        0.6529500    -1.3959670    -1.2698370
  H        1.1362240    -2.1837260     0.2527190
  H       -0.4482060    -0.7692910     1.4955050
  H        2.2087130    -0.1135160     1.0603560
  H        2.6064290    -0.0309800    -0.6748690
  H       -2.2893650    -0.4737730    -0.1440310
units angstrom
no_reorient  #important for SAPT in psi4, default
symmetry c1  #important for SAPT in psi4, default
}

set PROPERTIES_ORIGIN ["COM"]
properties('MP2/aug-cc-pvtz', properties = ['dipole'])
--------------------------------------------------------------------------

    Molecular point group: c1
  Charge       = 0
  Multiplicity = 1
  Basis Set: AUG-CC-PVTZ
    Blend: AUG-CC-PVTZ
  Basis Set: (AUG-CC-PVTZ AUX)
    Blend: AUG-CC-PVTZ-JKFIT

    Orbital Energies [Eh]
    ---------------------

    Doubly Occupied:

       1A    -20.622902     2A    -20.578556     3A    -20.552336
       4A    -11.386897     5A    -11.321647     6A    -11.315104
       7A    -11.258609     8A     -1.485903     9A     -1.387359
      10A     -1.367894    11A     -1.094209    12A     -0.994058
      13A     -0.864575    14A     -0.798469    15A     -0.741234
      16A     -0.716112    17A     -0.689203    18A     -0.660670
      19A     -0.622261    20A     -0.608315    21A     -0.582968
      22A     -0.559848    23A     -0.534602    24A     -0.520984
      25A     -0.473731    26A     -0.467444    27A     -0.443473

  @DF-RHF Final Energy:  -379.70228777373563

   => Energetics <=

    Nuclear Repulsion Energy =            318.8499959459418278
    One-Electron Energy =               -1151.8058486772472406
    Two-Electron Energy =                 453.2535649575697789
    Total Energy =                       -379.7022877737356339
  Basis Set: (AUG-CC-PVTZ AUX)
    Blend: AUG-CC-PVTZ-RI
    Molecular point group: c1

    Geometry (in Angstrom), charge = 0, multiplicity = 1:

       Center              X                  Y                   Z               Mass
    ------------   -----------------  -----------------  -----------------  -----------------
         O            1.004030006352     1.047205363907    -0.097166454584    15.994914619570
         O           -1.595008993648    -1.247342436093    -0.149162854584    15.994914619570
         O           -1.179169993648     1.558550563907    -0.059073854584    15.994914619570
         C            0.858219006352    -1.286500436093    -0.190134854584    12.000000000000
         C           -0.413857993648    -0.712417436093     0.404881145416    12.000000000000
         C            1.836434006352    -0.138766436093     0.056424145416    12.000000000000
         C           -0.268217993648     0.766246563907     0.071156145416    12.000000000000
         H            0.696849006352    -1.439680436093    -1.261319854584     1.007825032230
         H            1.180123006352    -2.227439436093     0.261236145416     1.007825032230
         H           -0.404306993648    -0.813004436093     1.504022145416     1.007825032230
         H            2.252612006352    -0.157229436093     1.068873145416     1.007825032230
         H            2.650328006352    -0.074693436093    -0.666351854584     1.007825032230
         H           -2.245465993648    -0.517486436093    -0.135513854584     1.007825032230

  Basis Set: AUG-CC-PVTZ
    Blend: AUG-CC-PVTZ
  Basis Set: (AUG-CC-PVTZ AUX)
    Blend: AUG-CC-PVTZ-JKFIT
	 Reference Energy          =    -379.7022877737356339 [Eh]
	 Singles Energy            =      -0.0000000000000000 [Eh]
	 Same-Spin Energy          =      -0.3678904282097432 [Eh]
	 Opposite-Spin Energy      =      -1.1346302925846239 [Eh]
	 Correlation Energy        =      -1.5025207207943669 [Eh]
	 Total Energy              =    -381.2048084945300275 [Eh]

	 ================> DF-SCS-MP2 Energies <==================
	-----------------------------------------------------------
	 SCS Same-Spin Scale       =       0.3333333333333333 [-]
	 SCS Opposite-Spin Scale   =       1.2000000000000000 [-]
	 SCS Same-Spin Energy      =      -0.1226301427365810 [Eh]
	 SCS Opposite-Spin Energy  =      -1.3615563511015487 [Eh]
	 SCS Correlation Energy    =      -1.4841864938381297 [Eh]
	 SCS Total Energy          =    -381.1864742675737716 [Eh]
	-----------------------------------------------------------

  Dipole Moment: [D]
     X:     2.9989      Y:    -2.2770      Z:     0.9816     Total:     3.8912

*** Psi4 exiting successfully. Buy a developer a beer!
