                               Psi4 1.3.2 release

  ==> Input File <==

--------------------------------------------------------------------------
#psi4
#
memory 32 gb

molecule  {
0 1
  O        0.9883235     1.1643526    -0.1057399
  O       -1.6389080    -1.2036290    -0.1576800
  O       -1.2230690     1.6022640    -0.0675910
  C        0.8143200    -1.2427870    -0.1986520
  C       -0.4577570    -0.6687040     0.3963640
  C        1.7925350    -0.0950530     0.0479070
  C       -0.3121170     0.8099600     0.0626390
  H        0.6529500    -1.3959670    -1.2698370
  H        1.1362240    -2.1837260     0.2527190
  H       -0.4482060    -0.7692910     1.4955050
  H        2.2087130    -0.1135160     1.0603560
  H        2.6064290    -0.0309800    -0.6748690
  H       -2.2893650    -0.4737730    -0.1440310
units angstrom
no_reorient  #important for SAPT in psi4, default
symmetry c1  #important for SAPT in psi4, default
}

set PROPERTIES_ORIGIN ["COM"]
properties('MP2/aug-cc-pvtz', properties = ['dipole'])
--------------------------------------------------------------------------

    Molecular point group: c1
  Charge       = 0
  Multiplicity = 1
  Basis Set: AUG-CC-PVTZ
    Blend: AUG-CC-PVTZ
  Basis Set: (AUG-CC-PVTZ AUX)
    Blend: AUG-CC-PVTZ-JKFIT

    Orbital Energies [Eh]
    ---------------------

    Doubly Occupied:

       1A    -20.620105     2A    -20.581830     3A    -20.556251
       4A    -11.389771     5A    -11.321288     6A    -11.320374
       7A    -11.261369     8A     -1.462612     9A     -1.386696
      10A     -1.364844    11A     -1.096961    12A     -0.982722
      13A     -0.862190    14A     -0.795751    15A     -0.731351
      16A     -0.712666    17A     -0.687036    18A     -0.654363
      19A     -0.617271    20A     -0.605704    21A     -0.580442
      22A     -0.560979    23A     -0.537678    24A     -0.523474
      25A     -0.475685    26A     -0.467926    27A     -0.446622

  @DF-RHF Final Energy:  -379.69757140968693

   => Energetics <=

    Nuclear Repulsion Energy =            316.5839622618328804
    One-Electron Energy =               -1147.3551425331802420
    Two-Electron Energy =                 451.0736088616604320
    Total Energy =                       -379.6975714096869297
  Basis Set: (AUG-CC-PVTZ AUX)
    Blend: AUG-CC-PVTZ-RI
    Molecular point group: c1

    Geometry (in Angstrom), charge = 0, multiplicity = 1:

       Center              X                  Y                   Z               Mass
    ------------   -----------------  -----------------  -----------------  -----------------
         O            1.027802932272     1.109127374633    -0.097213928761    15.994914619570
         O           -1.599428567728    -1.258854225367    -0.149154028761    15.994914619570
         O           -1.183589567728     1.547038774633    -0.059065028761    15.994914619570
         C            0.853799432272    -1.298012225367    -0.190126028761    12.000000000000
         C           -0.418277567728    -0.723929225367     0.404889971239    12.000000000000
         C            1.832014432272    -0.150278225367     0.056432971239    12.000000000000
         C           -0.272637567728     0.754734774633     0.071164971239    12.000000000000
         H            0.692429432272    -1.451192225367    -1.261311028761     1.007825032230
         H            1.175703432272    -2.238951225367     0.261244971239     1.007825032230
         H           -0.408726567728    -0.824516225367     1.504030971239     1.007825032230
         H            2.248192432272    -0.168741225367     1.068881971239     1.007825032230
         H            2.645908432272    -0.086205225367    -0.666343028761     1.007825032230
         H           -2.249885567728    -0.528998225367    -0.135505028761     1.007825032230

  Basis Set: AUG-CC-PVTZ
    Blend: AUG-CC-PVTZ
  Basis Set: (AUG-CC-PVTZ AUX)
    Blend: AUG-CC-PVTZ-JKFIT
	 Reference Energy          =    -379.6975714096869297 [Eh]
	 Singles Energy            =      -0.0000000000000000 [Eh]
	 Same-Spin Energy          =      -0.3686580521101863 [Eh]
	 Opposite-Spin Energy      =      -1.1376274818498042 [Eh]
	 Correlation Energy        =      -1.5062855339599905 [Eh]
	 Total Energy              =    -381.2038569436469402 [Eh]

	 ================> DF-SCS-MP2 Energies <==================
	-----------------------------------------------------------
	 SCS Same-Spin Scale       =       0.3333333333333333 [-]
	 SCS Opposite-Spin Scale   =       1.2000000000000000 [-]
	 SCS Same-Spin Energy      =      -0.1228860173700621 [Eh]
	 SCS Opposite-Spin Energy  =      -1.3651529782197651 [Eh]
	 SCS Correlation Energy    =      -1.4880389955898272 [Eh]
	 SCS Total Energy          =    -381.1856104052767478 [Eh]
	-----------------------------------------------------------

  Dipole Moment: [D]
     X:     2.7587      Y:    -2.4348      Z:     1.0031     Total:     3.8138

*** Psi4 exiting successfully. Buy a developer a beer!
