                               Psi4 1.3.2 release

  ==> Input File <==

--------------------------------------------------------------------------
#psi4
#
memory 32 gb

molecule  {
0 1
  O        1.0008990     1.1197090    -0.0959030
  O       -1.6389080    -1.2036290    -0.1576800
  O       -1.3017877     1.5057030    -0.0423977
  C        0.8143200    -1.2427870    -0.1986520
  C       -0.4577570    -0.6687040     0.3963640
  C        1.7925350    -0.0950530     0.0479070
  C       -0.3121170     0.8099600     0.0626390
  H        0.6529500    -1.3959670    -1.2698370
  H        1.1362240    -2.1837260     0.2527190
  H       -0.4482060    -0.7692910     1.4955050
  H        2.2087130    -0.1135160     1.0603560
  H        2.6064290    -0.0309800    -0.6748690
  H       -2.2893650    -0.4737730    -0.1440310
units angstrom
no_reorient  #important for SAPT in psi4, default
symmetry c1  #important for SAPT in psi4, default
}

set PROPERTIES_ORIGIN ["COM"]
properties('MP2/aug-cc-pvtz', properties = ['dipole'])
--------------------------------------------------------------------------

    Molecular point group: c1
  Charge       = 0
  Multiplicity = 1
  Basis Set: AUG-CC-PVTZ
    Blend: AUG-CC-PVTZ
  Basis Set: (AUG-CC-PVTZ AUX)
    Blend: AUG-CC-PVTZ-JKFIT

    Orbital Energies [Eh]
    ---------------------

    Doubly Occupied:

       1A    -20.626624     2A    -20.575622     3A    -20.562702
       4A    -11.394834     5A    -11.319389     6A    -11.312169
       7A    -11.256869     8A     -1.470806     9A     -1.391272
      10A     -1.369726    11A     -1.091884    12A     -0.988008
      13A     -0.860881    14A     -0.796088    15A     -0.734993
      16A     -0.714872    17A     -0.689340    18A     -0.659372
      19A     -0.623801    20A     -0.605644    21A     -0.580800
      22A     -0.557268    23A     -0.536450    24A     -0.522721
      25A     -0.473379    26A     -0.471338    27A     -0.443448

  @DF-RHF Final Energy:  -379.69768202521811

   => Energetics <=

    Nuclear Repulsion Energy =            317.9902985617234208
    One-Electron Energy =               -1150.1153613474716622
    Two-Electron Energy =                 452.4273807605301272
    Total Energy =                       -379.6976820252181142
  Basis Set: (AUG-CC-PVTZ AUX)
    Blend: AUG-CC-PVTZ-RI
    Molecular point group: c1

    Geometry (in Angstrom), charge = 0, multiplicity = 1:

       Center              X                  Y                   Z               Mass
    ------------   -----------------  -----------------  -----------------  -----------------
         O            1.050747316632     1.086619597642    -0.092868509259    15.994914619570
         O           -1.589059683368    -1.236718402358    -0.154645509259    15.994914619570
         O           -1.251939383368     1.472613597642    -0.039363209259    15.994914619570
         C            0.864168316632    -1.275876402358    -0.195617509259    12.000000000000
         C           -0.407908683368    -0.701793402358     0.399398490741    12.000000000000
         C            1.842383316632    -0.128142402358     0.050941490741    12.000000000000
         C           -0.262268683368     0.776870597642     0.065673490741    12.000000000000
         H            0.702798316632    -1.429056402358    -1.266802509259     1.007825032230
         H            1.186072316632    -2.216815402358     0.255753490741     1.007825032230
         H           -0.398357683368    -0.802380402358     1.498539490741     1.007825032230
         H            2.258561316632    -0.146605402358     1.063390490741     1.007825032230
         H            2.656277316632    -0.064069402358    -0.671834509259     1.007825032230
         H           -2.239516683368    -0.506862402358    -0.140996509259     1.007825032230

  Basis Set: AUG-CC-PVTZ
    Blend: AUG-CC-PVTZ
  Basis Set: (AUG-CC-PVTZ AUX)
    Blend: AUG-CC-PVTZ-JKFIT
	 Reference Energy          =    -379.6976820252181142 [Eh]
	 Singles Energy            =      -0.0000000000000000 [Eh]
	 Same-Spin Energy          =      -0.3686811926356509 [Eh]
	 Opposite-Spin Energy      =      -1.1366325448818593 [Eh]
	 Correlation Energy        =      -1.5053137375175103 [Eh]
	 Total Energy              =    -381.2029957627356112 [Eh]

	 ================> DF-SCS-MP2 Energies <==================
	-----------------------------------------------------------
	 SCS Same-Spin Scale       =       0.3333333333333333 [-]
	 SCS Opposite-Spin Scale   =       1.2000000000000000 [-]
	 SCS Same-Spin Energy      =      -0.1228937308785503 [Eh]
	 SCS Opposite-Spin Energy  =      -1.3639590538582311 [Eh]
	 SCS Correlation Energy    =      -1.4868527847367814 [Eh]
	 SCS Total Energy          =    -381.1845348099548687 [Eh]
	-----------------------------------------------------------

  Dipole Moment: [D]
     X:     2.8787      Y:    -2.0144      Z:     0.9275     Total:     3.6339

*** Psi4 exiting successfully. Buy a developer a beer!
