                               Psi4 1.3.2 release

  ==> Input File <==

--------------------------------------------------------------------------
#psi4
#
memory 32 gb

molecule  {
0 1
  O        1.0008990     1.1197090    -0.0959030
  O       -1.6579716    -1.1143624    -0.1944835
  O       -1.2230690     1.6022640    -0.0675910
  C        0.8143200    -1.2427870    -0.1986520
  C       -0.4577570    -0.6687040     0.3963640
  C        1.7925350    -0.0950530     0.0479070
  C       -0.3121170     0.8099600     0.0626390
  H        0.6529500    -1.3959670    -1.2698370
  H        1.1362240    -2.1837260     0.2527190
  H       -0.4482060    -0.7692910     1.4955050
  H        2.2087130    -0.1135160     1.0603560
  H        2.6064290    -0.0309800    -0.6748690
  H       -2.2893650    -0.4737730    -0.1440310
units angstrom
no_reorient  #important for SAPT in psi4, default
symmetry c1  #important for SAPT in psi4, default
}

set PROPERTIES_ORIGIN ["COM"]
properties('MP2/aug-cc-pvtz', properties = ['dipole'])
--------------------------------------------------------------------------

    Molecular point group: c1
  Charge       = 0
  Multiplicity = 1
  Basis Set: AUG-CC-PVTZ
    Blend: AUG-CC-PVTZ
  Basis Set: (AUG-CC-PVTZ AUX)
    Blend: AUG-CC-PVTZ-JKFIT

    Orbital Energies [Eh]
    ---------------------

    Doubly Occupied:

       1A    -20.618825     2A    -20.571572     3A    -20.557389
       4A    -11.389919     5A    -11.320570     6A    -11.317800
       7A    -11.260919     8A     -1.468903     9A     -1.400649
      10A     -1.370373    11A     -1.097058    12A     -0.990378
      13A     -0.862829    14A     -0.805022    15A     -0.735084
      16A     -0.725628    17A     -0.690388    18A     -0.659142
      19A     -0.620916    20A     -0.604580    21A     -0.585207
      22A     -0.558091    23A     -0.537400    24A     -0.520253
      25A     -0.479215    26A     -0.466907    27A     -0.444772

  @DF-RHF Final Energy:  -379.69837610207617

   => Energetics <=

    Nuclear Repulsion Energy =            318.4450754919329256
    One-Electron Energy =               -1150.9673257705067044
    Two-Electron Energy =                 452.8238741764976112
    Total Energy =                       -379.6983761020761676
  Basis Set: (AUG-CC-PVTZ AUX)
    Blend: AUG-CC-PVTZ-RI
    Molecular point group: c1

    Geometry (in Angstrom), charge = 0, multiplicity = 1:

       Center              X                  Y                   Z               Mass
    ------------   -----------------  -----------------  -----------------  -----------------
         O            1.041395533933     1.057488486730    -0.083149631886    15.994914619570
         O           -1.617475066067    -1.176582913270    -0.181730131886    15.994914619570
         O           -1.182572466067     1.540043486730    -0.054837631886    15.994914619570
         C            0.854816533933    -1.305007513270    -0.185898631886    12.000000000000
         C           -0.417260466067    -0.730924513270     0.409117368114    12.000000000000
         C            1.833031533933    -0.157273513270     0.060660368114    12.000000000000
         C           -0.271620466067     0.747739486730     0.075392368114    12.000000000000
         H            0.693446533933    -1.458187513270    -1.257083631886     1.007825032230
         H            1.176720533933    -2.245946513270     0.265472368114     1.007825032230
         H           -0.407709466067    -0.831511513270     1.508258368114     1.007825032230
         H            2.249209533933    -0.175736513270     1.073109368114     1.007825032230
         H            2.646925533933    -0.093200513270    -0.662115631886     1.007825032230
         H           -2.248868466067    -0.535993513270    -0.131277631886     1.007825032230

  Basis Set: AUG-CC-PVTZ
    Blend: AUG-CC-PVTZ
  Basis Set: (AUG-CC-PVTZ AUX)
    Blend: AUG-CC-PVTZ-JKFIT
	 Reference Energy          =    -379.6983761020761676 [Eh]
	 Singles Energy            =      -0.0000000000000000 [Eh]
	 Same-Spin Energy          =      -0.3674102597193404 [Eh]
	 Opposite-Spin Energy      =      -1.1339077246829792 [Eh]
	 Correlation Energy        =      -1.5013179844023194 [Eh]
	 Total Energy              =    -381.1996940864784733 [Eh]

	 ================> DF-SCS-MP2 Energies <==================
	-----------------------------------------------------------
	 SCS Same-Spin Scale       =       0.3333333333333333 [-]
	 SCS Opposite-Spin Scale   =       1.2000000000000000 [-]
	 SCS Same-Spin Energy      =      -0.1224700865731135 [Eh]
	 SCS Opposite-Spin Energy  =      -1.3606892696195749 [Eh]
	 SCS Correlation Energy    =      -1.4831593561926883 [Eh]
	 SCS Total Energy          =    -381.1815354582688542 [Eh]
	-----------------------------------------------------------

  Dipole Moment: [D]
     X:     2.7324      Y:    -2.4420      Z:     1.0797     Total:     3.8204

*** Psi4 exiting successfully. Buy a developer a beer!
