                               Psi4 1.3.2 release

  ==> Input File <==

--------------------------------------------------------------------------
#psi4
#
memory 32 gb

molecule  {
0 1
  O        1.0008990     1.1197090    -0.0959030
  O       -1.6389080    -1.2036290    -0.1576800
  O       -1.2230690     1.6022640    -0.0675910
  C        0.8278373    -1.1940675    -0.2144025
  C       -0.4577570    -0.6687040     0.3963640
  C        1.7925350    -0.0950530     0.0479070
  C       -0.3121170     0.8099600     0.0626390
  H        0.6529500    -1.3959670    -1.2698370
  H        1.1362240    -2.1837260     0.2527190
  H       -0.4482060    -0.7692910     1.4955050
  H        2.2087130    -0.1135160     1.0603560
  H        2.6064290    -0.0309800    -0.6748690
  H       -2.2893650    -0.4737730    -0.1440310
units angstrom
no_reorient  #important for SAPT in psi4, default
symmetry c1  #important for SAPT in psi4, default
}

set PROPERTIES_ORIGIN ["COM"]
properties('MP2/aug-cc-pvtz', properties = ['dipole'])
--------------------------------------------------------------------------

    Molecular point group: c1
  Charge       = 0
  Multiplicity = 1
  Basis Set: AUG-CC-PVTZ
    Blend: AUG-CC-PVTZ
  Basis Set: (AUG-CC-PVTZ AUX)
    Blend: AUG-CC-PVTZ-JKFIT

    Orbital Energies [Eh]
    ---------------------

    Doubly Occupied:

       1A    -20.619539     2A    -20.581999     3A    -20.559292
       4A    -11.391690     5A    -11.318561     6A    -11.315880
       7A    -11.259853     8A     -1.470387     9A     -1.388719
      10A     -1.370796    11A     -1.098451    12A     -0.991606
      13A     -0.858685    14A     -0.798439    15A     -0.735774
      16A     -0.714984    17A     -0.687393    18A     -0.660271
      19A     -0.623729    20A     -0.605736    21A     -0.581904
      22A     -0.552765    23A     -0.543995    24A     -0.520316
      25A     -0.475994    26A     -0.469029    27A     -0.444670

  @DF-RHF Final Energy:  -379.69749703941727

   => Energetics <=

    Nuclear Repulsion Energy =            318.1054912516295872
    One-Electron Energy =               -1150.3250617110761596
    Two-Electron Energy =                 452.5220734200293009
    Total Energy =                       -379.6974970394172715
  Basis Set: (AUG-CC-PVTZ AUX)
    Blend: AUG-CC-PVTZ-RI
    Molecular point group: c1

    Geometry (in Angstrom), charge = 0, multiplicity = 1:

       Center              X                  Y                   Z               Mass
    ------------   -----------------  -----------------  -----------------  -----------------
         O            1.036817267752     1.065752366432    -0.087066677897    15.994914619570
         O           -1.602989732248    -1.257585633568    -0.148843677897    15.994914619570
         O           -1.187150732248     1.548307366432    -0.058754677897    15.994914619570
         C            0.863755567752    -1.248024133568    -0.205566177897    12.000000000000
         C           -0.421838732248    -0.722660633568     0.405200322103    12.000000000000
         C            1.828453267752    -0.149009633568     0.056743322103    12.000000000000
         C           -0.276198732248     0.756003366432     0.071475322103    12.000000000000
         H            0.688868267752    -1.449923633568    -1.261000677897     1.007825032230
         H            1.172142267752    -2.237682633568     0.261555322103     1.007825032230
         H           -0.412287732248    -0.823247633568     1.504341322103     1.007825032230
         H            2.244631267752    -0.167472633568     1.069192322103     1.007825032230
         H            2.642347267752    -0.084936633568    -0.666032677897     1.007825032230
         H           -2.253446732248    -0.527729633568    -0.135194677897     1.007825032230

  Basis Set: AUG-CC-PVTZ
    Blend: AUG-CC-PVTZ
  Basis Set: (AUG-CC-PVTZ AUX)
    Blend: AUG-CC-PVTZ-JKFIT
	 Reference Energy          =    -379.6974970394172715 [Eh]
	 Singles Energy            =      -0.0000000000000000 [Eh]
	 Same-Spin Energy          =      -0.3687253584617892 [Eh]
	 Opposite-Spin Energy      =      -1.1366483612146832 [Eh]
	 Correlation Energy        =      -1.5053737196764723 [Eh]
	 Total Energy              =    -381.2028707590937415 [Eh]

	 ================> DF-SCS-MP2 Energies <==================
	-----------------------------------------------------------
	 SCS Same-Spin Scale       =       0.3333333333333333 [-]
	 SCS Opposite-Spin Scale   =       1.2000000000000000 [-]
	 SCS Same-Spin Energy      =      -0.1229084528205964 [Eh]
	 SCS Opposite-Spin Energy  =      -1.3639780334576197 [Eh]
	 SCS Correlation Energy    =      -1.4868864862782161 [Eh]
	 SCS Total Energy          =    -381.1843835256954662 [Eh]
	-----------------------------------------------------------

  Dipole Moment: [D]
     X:     2.6911      Y:    -2.2858      Z:     0.9708     Total:     3.6619

*** Psi4 exiting successfully. Buy a developer a beer!
