                               Psi4 1.3.2 release

  ==> Input File <==

--------------------------------------------------------------------------
#psi4
#
memory 32 gb

molecule  {
0 1
  O        1.0008990     1.1197090    -0.0959030
  O       -1.6389080    -1.2036290    -0.1576800
  O       -1.2230690     1.6022640    -0.0675910
  C        0.8228106    -1.2595104    -0.1487214
  C       -0.4577570    -0.6687040     0.3963640
  C        1.7925350    -0.0950530     0.0479070
  C       -0.3121170     0.8099600     0.0626390
  H        0.6529500    -1.3959670    -1.2698370
  H        1.1362240    -2.1837260     0.2527190
  H       -0.4482060    -0.7692910     1.4955050
  H        2.2087130    -0.1135160     1.0603560
  H        2.6064290    -0.0309800    -0.6748690
  H       -2.2893650    -0.4737730    -0.1440310
units angstrom
no_reorient  #important for SAPT in psi4, default
symmetry c1  #important for SAPT in psi4, default
}

set PROPERTIES_ORIGIN ["COM"]
properties('MP2/aug-cc-pvtz', properties = ['dipole'])
--------------------------------------------------------------------------

    Molecular point group: c1
  Charge       = 0
  Multiplicity = 1
  Basis Set: AUG-CC-PVTZ
    Blend: AUG-CC-PVTZ
  Basis Set: (AUG-CC-PVTZ AUX)
    Blend: AUG-CC-PVTZ-JKFIT

    Orbital Energies [Eh]
    ---------------------

    Doubly Occupied:

       1A    -20.621578     2A    -20.581513     3A    -20.560628
       4A    -11.393726     5A    -11.318982     6A    -11.317670
       7A    -11.260024     8A     -1.470241     9A     -1.388704
      10A     -1.371189    11A     -1.094919    12A     -0.988577
      13A     -0.862097    14A     -0.798784    15A     -0.733937
      16A     -0.715158    17A     -0.691330    18A     -0.657814
      19A     -0.622905    20A     -0.600566    21A     -0.587485
      22A     -0.565179    23A     -0.532762    24A     -0.520006
      25A     -0.473379    26A     -0.467492    27A     -0.448453

  @DF-RHF Final Energy:  -379.69744131171672

   => Energetics <=

    Nuclear Repulsion Energy =            317.3299326206038700
    One-Electron Energy =               -1148.7645474794455822
    Two-Electron Energy =                 451.7371735471250531
    Total Energy =                       -379.6974413117167160
  Basis Set: (AUG-CC-PVTZ AUX)
    Blend: AUG-CC-PVTZ-RI
    Molecular point group: c1

    Geometry (in Angstrom), charge = 0, multiplicity = 1:

       Center              X                  Y                   Z               Mass
    ------------   -----------------  -----------------  -----------------  -----------------
         O            1.037408460523     1.073449139550    -0.094791465840    15.994914619570
         O           -1.602398539477    -1.249888860450    -0.156568465840    15.994914619570
         O           -1.186559539477     1.556004139550    -0.066479465840    15.994914619570
         C            0.859320060523    -1.305770260450    -0.147609865840    12.000000000000
         C           -0.421247539477    -0.714963860450     0.397475534160    12.000000000000
         C            1.829044460523    -0.141312860450     0.049018534160    12.000000000000
         C           -0.275607539477     0.763700139550     0.063750534160    12.000000000000
         H            0.689459460523    -1.442226860450    -1.268725465840     1.007825032230
         H            1.172733460523    -2.229985860450     0.253830534160     1.007825032230
         H           -0.411696539477    -0.815550860450     1.496616534160     1.007825032230
         H            2.245222460523    -0.159775860450     1.061467534160     1.007825032230
         H            2.642938460523    -0.077239860450    -0.673757465840     1.007825032230
         H           -2.252855539477    -0.520032860450    -0.142919465840     1.007825032230

  Basis Set: AUG-CC-PVTZ
    Blend: AUG-CC-PVTZ
  Basis Set: (AUG-CC-PVTZ AUX)
    Blend: AUG-CC-PVTZ-JKFIT
	 Reference Energy          =    -379.6974413117167160 [Eh]
	 Singles Energy            =      -0.0000000000000000 [Eh]
	 Same-Spin Energy          =      -0.3685323746502207 [Eh]
	 Opposite-Spin Energy      =      -1.1367202087265922 [Eh]
	 Correlation Energy        =      -1.5052525833768129 [Eh]
	 Total Energy              =    -381.2026938950935460 [Eh]

	 ================> DF-SCS-MP2 Energies <==================
	-----------------------------------------------------------
	 SCS Same-Spin Scale       =       0.3333333333333333 [-]
	 SCS Opposite-Spin Scale   =       1.2000000000000000 [-]
	 SCS Same-Spin Energy      =      -0.1228441248834069 [Eh]
	 SCS Opposite-Spin Energy  =      -1.3640642504719105 [Eh]
	 SCS Correlation Energy    =      -1.4869083753553174 [Eh]
	 SCS Total Energy          =    -381.1843496870720287 [Eh]
	-----------------------------------------------------------

  Dipole Moment: [D]
     X:     2.6987      Y:    -2.2955      Z:     1.0013     Total:     3.6817

*** Psi4 exiting successfully. Buy a developer a beer!
