                               Psi4 1.3.2 release

  ==> Input File <==

--------------------------------------------------------------------------
#psi4
#
memory 32 gb

molecule  {
0 1
  O        0.9742818     1.2089692    -0.1136014
  O       -1.6389080    -1.2036290    -0.1576800
  O       -1.2230690     1.6022640    -0.0675910
  C        0.8143200    -1.2427870    -0.1986520
  C       -0.4577570    -0.6687040     0.3963640
  C        1.7925350    -0.0950530     0.0479070
  C       -0.3121170     0.8099600     0.0626390
  H        0.6529500    -1.3959670    -1.2698370
  H        1.1362240    -2.1837260     0.2527190
  H       -0.4482060    -0.7692910     1.4955050
  H        2.2087130    -0.1135160     1.0603560
  H        2.6064290    -0.0309800    -0.6748690
  H       -2.2893650    -0.4737730    -0.1440310
units angstrom
no_reorient  #important for SAPT in psi4, default
symmetry c1  #important for SAPT in psi4, default
}

set PROPERTIES_ORIGIN ["COM"]
properties('MP2/aug-cc-pvtz', properties = ['dipole'])
--------------------------------------------------------------------------

    Molecular point group: c1
  Charge       = 0
  Multiplicity = 1
  Basis Set: AUG-CC-PVTZ
    Blend: AUG-CC-PVTZ
  Basis Set: (AUG-CC-PVTZ AUX)
    Blend: AUG-CC-PVTZ-JKFIT

    Orbital Energies [Eh]
    ---------------------

    Doubly Occupied:

       1A    -20.619423     2A    -20.582593     3A    -20.552559
       4A    -11.387083     5A    -11.325384     6A    -11.322156
       7A    -11.263785     8A     -1.456749     9A     -1.386094
      10A     -1.357591    11A     -1.100288    12A     -0.978408
      13A     -0.862569    14A     -0.793733    15A     -0.728518
      16A     -0.711958    17A     -0.684976    18A     -0.650814
      19A     -0.613115    20A     -0.606346    21A     -0.578104
      22A     -0.562109    23A     -0.539308    24A     -0.522839
      25A     -0.476242    26A     -0.466648    27A     -0.445962

  @DF-RHF Final Energy:  -379.69161216744698

   => Energetics <=

    Nuclear Repulsion Energy =            315.7505947050541408
    One-Electron Energy =               -1145.7337045854810640
    Two-Electron Energy =                 450.2914977129799468
    Total Energy =                       -379.6916121674469764
  Basis Set: (AUG-CC-PVTZ AUX)
    Blend: AUG-CC-PVTZ-RI
    Molecular point group: c1

    Geometry (in Angstrom), charge = 0, multiplicity = 1:

       Center              X                  Y                   Z               Mass
    ------------   -----------------  -----------------  -----------------  -----------------
         O            1.015962467826     1.146749690021    -0.103843027178    15.994914619570
         O           -1.597227332174    -1.265848509979    -0.147921627178    15.994914619570
         O           -1.181388332174     1.540044490021    -0.057832627178    15.994914619570
         C            0.856000667826    -1.305006509979    -0.188893627178    12.000000000000
         C           -0.416076332174    -0.730923509979     0.406122372822    12.000000000000
         C            1.834215667826    -0.157272509979     0.057665372822    12.000000000000
         C           -0.270436332174     0.747740490021     0.072397372822    12.000000000000
         H            0.694630667826    -1.458186509979    -1.260078627178     1.007825032230
         H            1.177904667826    -2.245945509979     0.262477372822     1.007825032230
         H           -0.406525332174    -0.831510509979     1.505263372822     1.007825032230
         H            2.250393667826    -0.175735509979     1.070114372822     1.007825032230
         H            2.648109667826    -0.093199509979    -0.665110627178     1.007825032230
         H           -2.247684332174    -0.535992509979    -0.134272627178     1.007825032230

  Basis Set: AUG-CC-PVTZ
    Blend: AUG-CC-PVTZ
  Basis Set: (AUG-CC-PVTZ AUX)
    Blend: AUG-CC-PVTZ-JKFIT
	 Reference Energy          =    -379.6916121674469764 [Eh]
	 Singles Energy            =      -0.0000000000000000 [Eh]
	 Same-Spin Energy          =      -0.3690015462989171 [Eh]
	 Opposite-Spin Energy      =      -1.1390323830947915 [Eh]
	 Correlation Energy        =      -1.5080339293937086 [Eh]
	 Total Energy              =    -381.1996460968406950 [Eh]

	 ================> DF-SCS-MP2 Energies <==================
	-----------------------------------------------------------
	 SCS Same-Spin Scale       =       0.3333333333333333 [-]
	 SCS Opposite-Spin Scale   =       1.2000000000000000 [-]
	 SCS Same-Spin Energy      =      -0.1230005154329724 [Eh]
	 SCS Opposite-Spin Energy  =      -1.3668388597137497 [Eh]
	 SCS Correlation Energy    =      -1.4898393751467220 [Eh]
	 SCS Total Energy          =    -381.1814515425937202 [Eh]
	-----------------------------------------------------------

  Dipole Moment: [D]
     X:     2.8169      Y:    -2.5724      Z:     1.0221     Total:     3.9493

*** Psi4 exiting successfully. Buy a developer a beer!
