                               Psi4 1.3.2 release

  ==> Input File <==

--------------------------------------------------------------------------
#psi4
#
memory 32 gb

molecule  {
0 1
  O        1.0008990     1.1197090    -0.0959030
  O       -1.6389080    -1.2036290    -0.1576800
  O       -1.2230690     1.6022640    -0.0675910
  C        0.8397882    -1.1447080    -0.2294089
  C       -0.4577570    -0.6687040     0.3963640
  C        1.7925350    -0.0950530     0.0479070
  C       -0.3121170     0.8099600     0.0626390
  H        0.6529500    -1.3959670    -1.2698370
  H        1.1362240    -2.1837260     0.2527190
  H       -0.4482060    -0.7692910     1.4955050
  H        2.2087130    -0.1135160     1.0603560
  H        2.6064290    -0.0309800    -0.6748690
  H       -2.2893650    -0.4737730    -0.1440310
units angstrom
no_reorient  #important for SAPT in psi4, default
symmetry c1  #important for SAPT in psi4, default
}

set PROPERTIES_ORIGIN ["COM"]
properties('MP2/aug-cc-pvtz', properties = ['dipole'])
--------------------------------------------------------------------------

    Molecular point group: c1
  Charge       = 0
  Multiplicity = 1
  Basis Set: AUG-CC-PVTZ
    Blend: AUG-CC-PVTZ
  Basis Set: (AUG-CC-PVTZ AUX)
    Blend: AUG-CC-PVTZ-JKFIT

    Orbital Energies [Eh]
    ---------------------

    Doubly Occupied:

       1A    -20.618770     2A    -20.583058     3A    -20.558710
       4A    -11.390890     5A    -11.318849     6A    -11.314487
       7A    -11.261491     8A     -1.471350     9A     -1.389235
      10A     -1.371028    11A     -1.103959    12A     -0.995440
      13A     -0.855634    14A     -0.799442    15A     -0.737259
      16A     -0.716337    17A     -0.686492    18A     -0.662664
      19A     -0.625844    20A     -0.606561    21A     -0.585077
      22A     -0.550983    23A     -0.544270    24A     -0.514241
      25A     -0.477137    26A     -0.469347    27A     -0.441932

  @DF-RHF Final Energy:  -379.68816395500335

   => Energetics <=

    Nuclear Repulsion Energy =            318.7782221186670313
    One-Electron Energy =               -1151.6317980925293796
    Two-Electron Energy =                 453.1654120188590014
    Total Energy =                       -379.6881639550033469
  Basis Set: (AUG-CC-PVTZ AUX)
    Blend: AUG-CC-PVTZ-RI
    Molecular point group: c1

    Geometry (in Angstrom), charge = 0, multiplicity = 1:

       Center              X                  Y                   Z               Mass
    ------------   -----------------  -----------------  -----------------  -----------------
         O            1.035411716258     1.059947170257    -0.085301767477    15.994914619570
         O           -1.604395283742    -1.263390829743    -0.147078767477    15.994914619570
         O           -1.188556283742     1.542502170257    -0.056989767477    15.994914619570
         C            0.874300916258    -1.204469829743    -0.218807667477    12.000000000000
         C           -0.423244283742    -0.728465829743     0.406965232523    12.000000000000
         C            1.827047716258    -0.154814829743     0.058508232523    12.000000000000
         C           -0.277604283742     0.750198170257     0.073240232523    12.000000000000
         H            0.687462716258    -1.455728829743    -1.259235767477     1.007825032230
         H            1.170736716258    -2.243487829743     0.263320232523     1.007825032230
         H           -0.413693283742    -0.829052829743     1.506106232523     1.007825032230
         H            2.243225716258    -0.173277829743     1.070957232523     1.007825032230
         H            2.640941716258    -0.090741829743    -0.664267767477     1.007825032230
         H           -2.254852283742    -0.533534829743    -0.133429767477     1.007825032230

  Basis Set: AUG-CC-PVTZ
    Blend: AUG-CC-PVTZ
  Basis Set: (AUG-CC-PVTZ AUX)
    Blend: AUG-CC-PVTZ-JKFIT
	 Reference Energy          =    -379.6881639550033469 [Eh]
	 Singles Energy            =      -0.0000000000000000 [Eh]
	 Same-Spin Energy          =      -0.3692250507146616 [Eh]
	 Opposite-Spin Energy      =      -1.1372400797983933 [Eh]
	 Correlation Energy        =      -1.5064651305130548 [Eh]
	 Total Energy              =    -381.1946290855163966 [Eh]

	 ================> DF-SCS-MP2 Energies <==================
	-----------------------------------------------------------
	 SCS Same-Spin Scale       =       0.3333333333333333 [-]
	 SCS Opposite-Spin Scale   =       1.2000000000000000 [-]
	 SCS Same-Spin Energy      =      -0.1230750169048872 [Eh]
	 SCS Opposite-Spin Energy  =      -1.3646880957580718 [Eh]
	 SCS Correlation Energy    =      -1.4877631126629589 [Eh]
	 SCS Total Energy          =    -381.1759270676662936 [Eh]
	-----------------------------------------------------------

  Dipole Moment: [D]
     X:     2.6824      Y:    -2.2722      Z:     0.9603     Total:     3.6442

*** Psi4 exiting successfully. Buy a developer a beer!
