                               Psi4 1.3.2 release

  ==> Input File <==

--------------------------------------------------------------------------
#psi4
#
memory 32 gb

molecule  {
0 1
  O        1.0008990     1.1197090    -0.0959030
  O       -1.6389080    -1.2036290    -0.1576800
  O       -1.2230690     1.6022640    -0.0675910
  C        0.8143200    -1.2427870    -0.1986520
  C       -0.4577570    -0.6687040     0.3963640
  C        1.7056565    -0.1455638     0.0635243
  C       -0.3121170     0.8099600     0.0626390
  H        0.6529500    -1.3959670    -1.2698370
  H        1.1362240    -2.1837260     0.2527190
  H       -0.4482060    -0.7692910     1.4955050
  H        2.2087130    -0.1135160     1.0603560
  H        2.6064290    -0.0309800    -0.6748690
  H       -2.2893650    -0.4737730    -0.1440310
units angstrom
no_reorient  #important for SAPT in psi4, default
symmetry c1  #important for SAPT in psi4, default
}

set PROPERTIES_ORIGIN ["COM"]
properties('MP2/aug-cc-pvtz', properties = ['dipole'])
--------------------------------------------------------------------------

    Molecular point group: c1
  Charge       = 0
  Multiplicity = 1
  Basis Set: AUG-CC-PVTZ
    Blend: AUG-CC-PVTZ
  Basis Set: (AUG-CC-PVTZ AUX)
    Blend: AUG-CC-PVTZ-JKFIT

    Orbital Energies [Eh]
    ---------------------

    Doubly Occupied:

       1A    -20.623365     2A    -20.582092     3A    -20.560487
       4A    -11.392884     5A    -11.320764     6A    -11.319991
       7A    -11.256339     8A     -1.473967     9A     -1.389830
      10A     -1.372355    11A     -1.113420    12A     -0.983845
      13A     -0.861572    14A     -0.801404    15A     -0.737845
      16A     -0.709162    17A     -0.692414    18A     -0.654562
      19A     -0.622350    20A     -0.607850    21A     -0.577821
      22A     -0.567427    23A     -0.551157    24A     -0.517754
      25A     -0.474461    26A     -0.461781    27A     -0.447205

  @DF-RHF Final Energy:  -379.68671128404748

   => Energetics <=

    Nuclear Repulsion Energy =            319.0128821583174386
    One-Electron Energy =               -1152.0509782701631138
    Two-Electron Energy =                 453.3513848277981992
    Total Energy =                       -379.6867112840474761
  Basis Set: (AUG-CC-PVTZ AUX)
    Blend: AUG-CC-PVTZ-RI
    Molecular point group: c1

    Geometry (in Angstrom), charge = 0, multiplicity = 1:

       Center              X                  Y                   Z               Mass
    ------------   -----------------  -----------------  -----------------  -----------------
         O            1.048624869411     1.077422893037    -0.090755860984    15.994914619570
         O           -1.591182130589    -1.245915106963    -0.152532860984    15.994914619570
         O           -1.175343130589     1.559977893037    -0.062443860984    15.994914619570
         C            0.862045869411    -1.285073106963    -0.193504860984    12.000000000000
         C           -0.410031130589    -0.710990106963     0.401511139016    12.000000000000
         C            1.753382369411    -0.187849906963     0.068671439016    12.000000000000
         C           -0.264391130589     0.767673893037     0.067786139016    12.000000000000
         H            0.700675869411    -1.438253106963    -1.264689860984     1.007825032230
         H            1.183949869411    -2.226012106963     0.257866139016     1.007825032230
         H           -0.400480130589    -0.811577106963     1.500652139016     1.007825032230
         H            2.256438869411    -0.155802106963     1.065503139016     1.007825032230
         H            2.654154869411    -0.073266106963    -0.669721860984     1.007825032230
         H           -2.241639130589    -0.516059106963    -0.138883860984     1.007825032230

  Basis Set: AUG-CC-PVTZ
    Blend: AUG-CC-PVTZ
  Basis Set: (AUG-CC-PVTZ AUX)
    Blend: AUG-CC-PVTZ-JKFIT
	 Reference Energy          =    -379.6867112840474761 [Eh]
	 Singles Energy            =      -0.0000000000000000 [Eh]
	 Same-Spin Energy          =      -0.3697882211498236 [Eh]
	 Opposite-Spin Energy      =      -1.1382532479139957 [Eh]
	 Correlation Energy        =      -1.5080414690638193 [Eh]
	 Total Energy              =    -381.1947527531112883 [Eh]

	 ================> DF-SCS-MP2 Energies <==================
	-----------------------------------------------------------
	 SCS Same-Spin Scale       =       0.3333333333333333 [-]
	 SCS Opposite-Spin Scale   =       1.2000000000000000 [-]
	 SCS Same-Spin Energy      =      -0.1232627403832745 [Eh]
	 SCS Opposite-Spin Energy  =      -1.3659038974967947 [Eh]
	 SCS Correlation Energy    =      -1.4891666378800692 [Eh]
	 SCS Total Energy          =    -381.1758779219275652 [Eh]
	-----------------------------------------------------------

  Dipole Moment: [D]
     X:     2.5400      Y:    -2.3604      Z:     1.0031     Total:     3.6096

*** Psi4 exiting successfully. Buy a developer a beer!
