                               Psi4 1.4a3.dev225

  ==> Input File <==

--------------------------------------------------------------------------
#psi4
#
memory 32 gb

molecule  {
0 1
  O        1.0008990     1.1197090    -0.0959030
  O       -1.6389080    -1.2036290    -0.1576800
  O       -1.2230690     1.6022640    -0.0675910
  C        0.8143200    -1.2427870    -0.1986520
  C       -0.4577570    -0.6687040     0.3963640
  C        1.7925350    -0.0950530     0.0479070
  C       -0.3496262     0.8425837     0.0572767
  H        0.6529500    -1.3959670    -1.2698370
  H        1.1362240    -2.1837260     0.2527190
  H       -0.4482060    -0.7692910     1.4955050
  H        2.2087130    -0.1135160     1.0603560
  H        2.6064290    -0.0309800    -0.6748690
  H       -2.2893650    -0.4737730    -0.1440310
units angstrom
no_reorient  #important for SAPT in psi4, default
symmetry c1  #important for SAPT in psi4, default
}

set PROPERTIES_ORIGIN ["COM"]
properties('MP2/aug-cc-pvtz', properties = ['dipole'])
--------------------------------------------------------------------------

    Molecular point group: c1
  Charge       = 0
  Multiplicity = 1
  Basis Set: AUG-CC-PVTZ
    Blend: AUG-CC-PVTZ
  Basis Set: (AUG-CC-PVTZ AUX)
    Blend: AUG-CC-PVTZ-JKFIT

    Orbital Energies [Eh]
    ---------------------

    Doubly Occupied:

       1A    -20.609059     2A    -20.579579     3A    -20.569461
       4A    -11.389135     5A    -11.316495     6A    -11.312453
       7A    -11.255396     8A     -1.473700     9A     -1.394258
      10A     -1.381651    11A     -1.085744    12A     -0.979554
      13A     -0.855410    14A     -0.792133    15A     -0.730257
      16A     -0.716265    17A     -0.688510    18A     -0.656723
      19A     -0.629403    20A     -0.609286    21A     -0.578175
      22A     -0.563450    23A     -0.537273    24A     -0.525333
      25A     -0.475410    26A     -0.470550    27A     -0.440688

  @DF-RHF Final Energy:  -379.70032061952605

   => Energetics <=

    Nuclear Repulsion Energy =            317.3136644140903400
    One-Electron Energy =               -1148.7972662870829481
    Two-Electron Energy =                 451.7832812534665550
    Total Energy =                       -379.7003206195260532
  Basis Set: (AUG-CC-PVTZ AUX)
    Blend: AUG-CC-PVTZ-RI
    Molecular point group: c1

    Geometry (in Angstrom), charge = 0, multiplicity = 1:

       Center              X                  Y                   Z               Mass
    ------------   -----------------  -----------------  -----------------  -----------------
         O            1.042818520653     1.067645401746    -0.088288439440    15.994914619570
         O           -1.596988479347    -1.255692598254    -0.150065439440    15.994914619570
         O           -1.181149479347     1.550200401746    -0.059976439440    15.994914619570
         C            0.856239520653    -1.294850598254    -0.191037439440    12.000000000000
         C           -0.415837479347    -0.720767598254     0.403978560560    12.000000000000
         C            1.834454520653    -0.147116598254     0.055521560560    12.000000000000
         C           -0.307706679347     0.790520101746     0.064891260560    12.000000000000
         H            0.694869520653    -1.448030598254    -1.262222439440     1.007825032230
         H            1.178143520653    -2.235789598254     0.260333560560     1.007825032230
         H           -0.406286479347    -0.821354598254     1.503119560560     1.007825032230
         H            2.250632520653    -0.165579598254     1.067970560560     1.007825032230
         H            2.648348520653    -0.083043598254    -0.667254439440     1.007825032230
         H           -2.247445479347    -0.525836598254    -0.136416439440     1.007825032230

  Basis Set: AUG-CC-PVTZ
    Blend: AUG-CC-PVTZ
  Basis Set: (AUG-CC-PVTZ AUX)
    Blend: AUG-CC-PVTZ-JKFIT
	 Reference Energy          =    -379.7003206195260532 [Eh]
	 Singles Energy            =      -0.0000000000000000 [Eh]
	 Same-Spin Energy          =      -0.3673515391029368 [Eh]
	 Opposite-Spin Energy      =      -1.1343957688998847 [Eh]
	 Correlation Energy        =      -1.5017473080028214 [Eh]
	 Total Energy              =    -381.2020679275289012 [Eh]

	 ================> DF-SCS-MP2 Energies <==================
	-----------------------------------------------------------
	 SCS Same-Spin Scale       =       0.3333333333333333 [-]
	 SCS Opposite-Spin Scale   =       1.2000000000000000 [-]
	 SCS Same-Spin Energy      =      -0.1224505130343123 [Eh]
	 SCS Opposite-Spin Energy  =      -1.3612749226798615 [Eh]
	 SCS Correlation Energy    =      -1.4837254357141738 [Eh]
	 SCS Total Energy          =    -381.1840460552402305 [Eh]
	-----------------------------------------------------------

  Dipole Moment: [D]
     X:     2.3246      Y:    -2.0584      Z:     0.9601     Total:     3.2500

*** Psi4 exiting successfully. Buy a developer a beer!
