                               Psi4 1.3.2 release

  ==> Input File <==

--------------------------------------------------------------------------
#psi4
#
memory 32 gb

molecule  {
0 1
  O        1.0008990     1.1197090    -0.0959030
  O       -1.6389080    -1.2036290    -0.1576800
  O       -1.2230690     1.6022640    -0.0675910
  C        0.8143200    -1.2427870    -0.1986520
  C       -0.4577570    -0.6687040     0.3963640
  C        1.7495518    -0.1210643     0.0558081
  C       -0.3121170     0.8099600     0.0626390
  H        0.6529500    -1.3959670    -1.2698370
  H        1.1362240    -2.1837260     0.2527190
  H       -0.4482060    -0.7692910     1.4955050
  H        2.2087130    -0.1135160     1.0603560
  H        2.6064290    -0.0309800    -0.6748690
  H       -2.2893650    -0.4737730    -0.1440310
units angstrom
no_reorient  #important for SAPT in psi4, default
symmetry c1  #important for SAPT in psi4, default
}

set PROPERTIES_ORIGIN ["COM"]
properties('MP2/aug-cc-pvtz', properties = ['dipole'])
--------------------------------------------------------------------------

    Molecular point group: c1
  Charge       = 0
  Multiplicity = 1
  Basis Set: AUG-CC-PVTZ
    Blend: AUG-CC-PVTZ
  Basis Set: (AUG-CC-PVTZ AUX)
    Blend: AUG-CC-PVTZ-JKFIT

    Orbital Energies [Eh]
    ---------------------

    Doubly Occupied:

       1A    -20.621787     2A    -20.581511     3A    -20.560163
       4A    -11.392660     5A    -11.319563     6A    -11.318318
       7A    -11.257673     8A     -1.471735     9A     -1.389039
      10A     -1.371466    11A     -1.102842    12A     -0.985808
      13A     -0.861965    14A     -0.799273    15A     -0.736040
      16A     -0.711345    17A     -0.690414    18A     -0.655857
      19A     -0.622361    20A     -0.606063    21A     -0.579752
      22A     -0.562385    23A     -0.545274    24A     -0.521094
      25A     -0.474402    26A     -0.466312    27A     -0.447136

  @DF-RHF Final Energy:  -379.69687539513859

   => Energetics <=

    Nuclear Repulsion Energy =            318.2213965949540011
    One-Electron Energy =               -1150.5320630999367495
    Two-Electron Energy =                 452.6137911098441009
    Total Energy =                       -379.6968753951385906
  Basis Set: (AUG-CC-PVTZ AUX)
    Blend: AUG-CC-PVTZ-RI
    Molecular point group: c1

    Geometry (in Angstrom), charge = 0, multiplicity = 1:

       Center              X                  Y                   Z               Mass
    ------------   -----------------  -----------------  -----------------  -----------------
         O            1.043462320608     1.074541494245    -0.089848354734    15.994914619570
         O           -1.596344679392    -1.248796505755    -0.151625354734    15.994914619570
         O           -1.180505679392     1.557096494245    -0.061536354734    15.994914619570
         C            0.856883320608    -1.287954505755    -0.192597354734    12.000000000000
         C           -0.415193679392    -0.713871505755     0.402418645266    12.000000000000
         C            1.792115120608    -0.166231805755     0.061862745266    12.000000000000
         C           -0.269553679392     0.764792494245     0.068693645266    12.000000000000
         H            0.695513320608    -1.441134505755    -1.263782354734     1.007825032230
         H            1.178787320608    -2.228893505755     0.258773645266     1.007825032230
         H           -0.405642679392    -0.814458505755     1.501559645266     1.007825032230
         H            2.251276320608    -0.158683505755     1.066410645266     1.007825032230
         H            2.648992320608    -0.076147505755    -0.668814354734     1.007825032230
         H           -2.246801679392    -0.518940505755    -0.137976354734     1.007825032230

  Basis Set: AUG-CC-PVTZ
    Blend: AUG-CC-PVTZ
  Basis Set: (AUG-CC-PVTZ AUX)
    Blend: AUG-CC-PVTZ-JKFIT
	 Reference Energy          =    -379.6968753951385906 [Eh]
	 Singles Energy            =      -0.0000000000000000 [Eh]
	 Same-Spin Energy          =      -0.3689957662873429 [Eh]
	 Opposite-Spin Energy      =      -1.1371398596659128 [Eh]
	 Correlation Energy        =      -1.5061356259532557 [Eh]
	 Total Energy              =    -381.2030110210918679 [Eh]

	 ================> DF-SCS-MP2 Energies <==================
	-----------------------------------------------------------
	 SCS Same-Spin Scale       =       0.3333333333333333 [-]
	 SCS Opposite-Spin Scale   =       1.2000000000000000 [-]
	 SCS Same-Spin Energy      =      -0.1229985887624476 [Eh]
	 SCS Opposite-Spin Energy  =      -1.3645678315990952 [Eh]
	 SCS Correlation Energy    =      -1.4875664203615429 [Eh]
	 SCS Total Energy          =    -381.1844418155001222 [Eh]
	-----------------------------------------------------------

  Dipole Moment: [D]
     X:     2.6252      Y:    -2.3258      Z:     0.9907     Total:     3.6445

*** Psi4 exiting successfully. Buy a developer a beer!
