                               Psi4 1.3.2 release

  ==> Input File <==

--------------------------------------------------------------------------
#psi4
#
memory 32 gb

molecule  {
0 1
  O        1.0008990     1.1197090    -0.0959030
  O       -1.6389080    -1.2036290    -0.1576800
  O       -1.2230690     1.6022640    -0.0675910
  C        0.8143200    -1.2427870    -0.1986520
  C       -0.4577570    -0.6687040     0.3963640
  C        1.7925350    -0.0950530     0.0479070
  C       -0.1620804     0.6794650     0.0840883
  H        0.6529500    -1.3959670    -1.2698370
  H        1.1362240    -2.1837260     0.2527190
  H       -0.4482060    -0.7692910     1.4955050
  H        2.2087130    -0.1135160     1.0603560
  H        2.6064290    -0.0309800    -0.6748690
  H       -2.2893650    -0.4737730    -0.1440310
units angstrom
no_reorient  #important for SAPT in psi4, default
symmetry c1  #important for SAPT in psi4, default
}

set PROPERTIES_ORIGIN ["COM"]
properties('MP2/aug-cc-pvtz', properties = ['dipole'])
--------------------------------------------------------------------------

    Molecular point group: c1
  Charge       = 0
  Multiplicity = 1
  Basis Set: AUG-CC-PVTZ
    Blend: AUG-CC-PVTZ
  Basis Set: (AUG-CC-PVTZ AUX)
    Blend: AUG-CC-PVTZ-JKFIT

    Orbital Energies [Eh]
    ---------------------

    Doubly Occupied:

       1A    -20.662284     2A    -20.587182     3A    -20.520281
       4A    -11.402622     5A    -11.335479     6A    -11.325137
       7A    -11.272835     8A     -1.532651     9A     -1.392652
      10A     -1.252739    11A     -1.131212    12A     -1.015887
      13A     -0.891091    14A     -0.821280    15A     -0.762755
      16A     -0.723079    17A     -0.707388    18A     -0.675600
      19A     -0.618907    20A     -0.599726    21A     -0.580919
      22A     -0.561664    23A     -0.539152    24A     -0.505395
      25A     -0.485210    26A     -0.427264    27A     -0.415047

  @DF-RHF Final Energy:  -379.62489930431445

   => Energetics <=

    Nuclear Repulsion Energy =            318.7486032264482105
    One-Electron Energy =               -1151.2561297027771161
    Two-Electron Energy =                 452.8826271720143950
    Total Energy =                       -379.6248993043144537
  Basis Set: (AUG-CC-PVTZ AUX)
    Blend: AUG-CC-PVTZ-RI
    Molecular point group: c1

    Geometry (in Angstrom), charge = 0, multiplicity = 1:

       Center              X                  Y                   Z               Mass
    ------------   -----------------  -----------------  -----------------  -----------------
         O            1.020761162683     1.086829875925    -0.091441765502    15.994914619570
         O           -1.619045837317    -1.236508124075    -0.153218765502    15.994914619570
         O           -1.203206837317     1.569384875925    -0.063129765502    15.994914619570
         C            0.834182162683    -1.275666124075    -0.194190765502    12.000000000000
         C           -0.437894837317    -0.701583124075     0.400825234498    12.000000000000
         C            1.812397162683    -0.127932124075     0.052368234498    12.000000000000
         C           -0.142218237317     0.646585875925     0.088549534498    12.000000000000
         H            0.672812162683    -1.428846124075    -1.265375765502     1.007825032230
         H            1.156086162683    -2.216605124075     0.257180234498     1.007825032230
         H           -0.428343837317    -0.802170124075     1.499966234498     1.007825032230
         H            2.228575162683    -0.146395124075     1.064817234498     1.007825032230
         H            2.626291162683    -0.063859124075    -0.670407765502     1.007825032230
         H           -2.269502837317    -0.506652124075    -0.139569765502     1.007825032230

  Basis Set: AUG-CC-PVTZ
    Blend: AUG-CC-PVTZ
  Basis Set: (AUG-CC-PVTZ AUX)
    Blend: AUG-CC-PVTZ-JKFIT
	 Reference Energy          =    -379.6248993043144537 [Eh]
	 Singles Energy            =      -0.0000000000000000 [Eh]
	 Same-Spin Energy          =      -0.3740681596487161 [Eh]
	 Opposite-Spin Energy      =      -1.1467487844191584 [Eh]
	 Correlation Energy        =      -1.5208169440678745 [Eh]
	 Total Energy              =    -381.1457162483823140 [Eh]

	 ================> DF-SCS-MP2 Energies <==================
	-----------------------------------------------------------
	 SCS Same-Spin Scale       =       0.3333333333333333 [-]
	 SCS Opposite-Spin Scale   =       1.2000000000000000 [-]
	 SCS Same-Spin Energy      =      -0.1246893865495720 [Eh]
	 SCS Opposite-Spin Energy  =      -1.3760985413029900 [Eh]
	 SCS Correlation Energy    =      -1.5007879278525620 [Eh]
	 SCS Total Energy          =    -381.1256872321670244 [Eh]
	-----------------------------------------------------------

  Dipole Moment: [D]
     X:     3.9592      Y:    -3.0601      Z:     1.0425     Total:     5.1113

*** Psi4 exiting successfully. Buy a developer a beer!
