                               Psi4 1.3.2 release

  ==> Input File <==

--------------------------------------------------------------------------
#psi4
#
memory 32 gb

molecule  {
0 1
  O        1.0008990     1.1197090    -0.0959030
  O       -1.6389080    -1.2036290    -0.1576800
  O       -1.2230690     1.6022640    -0.0675910
  C        0.8501584    -1.0947685    -0.2436529
  C       -0.4577570    -0.6687040     0.3963640
  C        1.7925350    -0.0950530     0.0479070
  C       -0.3121170     0.8099600     0.0626390
  H        0.6529500    -1.3959670    -1.2698370
  H        1.1362240    -2.1837260     0.2527190
  H       -0.4482060    -0.7692910     1.4955050
  H        2.2087130    -0.1135160     1.0603560
  H        2.6064290    -0.0309800    -0.6748690
  H       -2.2893650    -0.4737730    -0.1440310
units angstrom
no_reorient  #important for SAPT in psi4, default
symmetry c1  #important for SAPT in psi4, default
}

set PROPERTIES_ORIGIN ["COM"]
properties('MP2/aug-cc-pvtz', properties = ['dipole'])
--------------------------------------------------------------------------

    Molecular point group: c1
  Charge       = 0
  Multiplicity = 1
  Basis Set: AUG-CC-PVTZ
    Blend: AUG-CC-PVTZ
  Basis Set: (AUG-CC-PVTZ AUX)
    Blend: AUG-CC-PVTZ-JKFIT

    Orbital Energies [Eh]
    ---------------------

    Doubly Occupied:

       1A    -20.618152     2A    -20.584213     3A    -20.558272
       4A    -11.390293     5A    -11.319423     6A    -11.313092
       7A    -11.263819     8A     -1.472746     9A     -1.389925
      10A     -1.371456    11A     -1.110057    12A     -0.999665
      13A     -0.852981    14A     -0.800476    15A     -0.738977
      16A     -0.718186    17A     -0.686017    18A     -0.665902
      19A     -0.628617    20A     -0.607128    21A     -0.589775
      22A     -0.554943    23A     -0.539053    24A     -0.504821
      25A     -0.478325    26A     -0.469512    27A     -0.438516

  @DF-RHF Final Energy:  -379.67290228954994

   => Energetics <=

    Nuclear Repulsion Energy =            319.4818421340081613
    One-Electron Energy =               -1152.9807978874348464
    Two-Electron Energy =                 453.8260534638767467
    Total Energy =                       -379.6729022895499384
  Basis Set: (AUG-CC-PVTZ AUX)
    Blend: AUG-CC-PVTZ-RI
    Molecular point group: c1

    Geometry (in Angstrom), charge = 0, multiplicity = 1:

       Center              X                  Y                   Z               Mass
    ------------   -----------------  -----------------  -----------------  -----------------
         O            1.034192071704     1.054073759984    -0.083626523313    15.994914619570
         O           -1.605614928296    -1.269264240016    -0.145403523313    15.994914619570
         O           -1.189775928296     1.536628759984    -0.055314523313    15.994914619570
         C            0.883451471704    -1.160403740016    -0.231376423313    12.000000000000
         C           -0.424463928296    -0.734339240016     0.408640476687    12.000000000000
         C            1.825828071704    -0.160688240016     0.060183476687    12.000000000000
         C           -0.278823928296     0.744324759984     0.074915476687    12.000000000000
         H            0.686243071704    -1.461602240016    -1.257560523313     1.007825032230
         H            1.169517071704    -2.249361240016     0.264995476687     1.007825032230
         H           -0.414912928296    -0.834926240016     1.507781476687     1.007825032230
         H            2.242006071704    -0.179151240016     1.072632476687     1.007825032230
         H            2.639722071704    -0.096615240016    -0.662592523313     1.007825032230
         H           -2.256071928296    -0.539408240016    -0.131754523313     1.007825032230

  Basis Set: AUG-CC-PVTZ
    Blend: AUG-CC-PVTZ
  Basis Set: (AUG-CC-PVTZ AUX)
    Blend: AUG-CC-PVTZ-JKFIT
	 Reference Energy          =    -379.6729022895499384 [Eh]
	 Singles Energy            =      -0.0000000000000000 [Eh]
	 Same-Spin Energy          =      -0.3699348721473676 [Eh]
	 Opposite-Spin Energy      =      -1.1382168839306588 [Eh]
	 Correlation Energy        =      -1.5081517560780264 [Eh]
	 Total Energy              =    -381.1810540456279455 [Eh]

	 ================> DF-SCS-MP2 Energies <==================
	-----------------------------------------------------------
	 SCS Same-Spin Scale       =       0.3333333333333333 [-]
	 SCS Opposite-Spin Scale   =       1.2000000000000000 [-]
	 SCS Same-Spin Energy      =      -0.1233116240491225 [Eh]
	 SCS Opposite-Spin Energy  =      -1.3658602607167905 [Eh]
	 SCS Correlation Energy    =      -1.4891718847659130 [Eh]
	 SCS Total Energy          =    -381.1620741743158760 [Eh]
	-----------------------------------------------------------

  Dipole Moment: [D]
     X:     2.6704      Y:    -2.2476      Z:     0.9486     Total:     3.6170

*** Psi4 exiting successfully. Buy a developer a beer!
