                               Psi4 1.3.2 release

  ==> Input File <==

--------------------------------------------------------------------------
#psi4
#
memory 32 gb

molecule  {
0 1
  O        1.0008990     1.1197090    -0.0959030
  O       -1.6389080    -1.2036290    -0.1576800
  O       -1.2230690     1.6022640    -0.0675910
  C        0.8143200    -1.2427870    -0.1986520
  C       -0.4310193    -0.6246905     0.4087046
  C        1.7925350    -0.0950530     0.0479070
  C       -0.3121170     0.8099600     0.0626390
  H        0.6529500    -1.3959670    -1.2698370
  H        1.1362240    -2.1837260     0.2527190
  H       -0.4482060    -0.7692910     1.4955050
  H        2.2087130    -0.1135160     1.0603560
  H        2.6064290    -0.0309800    -0.6748690
  H       -2.2893650    -0.4737730    -0.1440310
units angstrom
no_reorient  #important for SAPT in psi4, default
symmetry c1  #important for SAPT in psi4, default
}

set PROPERTIES_ORIGIN ["COM"]
properties('MP2/aug-cc-pvtz', properties = ['dipole'])
--------------------------------------------------------------------------

    Molecular point group: c1
  Charge       = 0
  Multiplicity = 1
  Basis Set: AUG-CC-PVTZ
    Blend: AUG-CC-PVTZ
  Basis Set: (AUG-CC-PVTZ AUX)
    Blend: AUG-CC-PVTZ-JKFIT

    Orbital Energies [Eh]
    ---------------------

    Doubly Occupied:

       1A    -20.620802     2A    -20.578120     3A    -20.561338
       4A    -11.393693     5A    -11.317555     6A    -11.317468
       7A    -11.260444     8A     -1.472234     9A     -1.381607
      10A     -1.363100    11A     -1.097522    12A     -0.994807
      13A     -0.867097    14A     -0.795314    15A     -0.736883
      16A     -0.709714    17A     -0.687817    18A     -0.657415
      19A     -0.621311    20A     -0.606344    21A     -0.575050
      22A     -0.559557    23A     -0.535078    24A     -0.522183
      25A     -0.476206    26A     -0.469106    27A     -0.455147

  @DF-RHF Final Energy:  -379.69678280402599

   => Energetics <=

    Nuclear Repulsion Energy =            317.7467982223176364
    One-Electron Energy =               -1149.6213344708976365
    Two-Electron Energy =                 452.1777534445539573
    Total Energy =                       -379.6967828040259860
  Basis Set: (AUG-CC-PVTZ AUX)
    Blend: AUG-CC-PVTZ-RI
    Molecular point group: c1

    Geometry (in Angstrom), charge = 0, multiplicity = 1:

       Center              X                  Y                   Z               Mass
    ------------   -----------------  -----------------  -----------------  -----------------
         O            1.035262409710     1.066305841511    -0.090370486612    15.994914619570
         O           -1.604544590290    -1.257032158489    -0.152147486612    15.994914619570
         O           -1.188705590290     1.548860841511    -0.062058486612    15.994914619570
         C            0.848683409710    -1.296190158489    -0.193119486612    12.000000000000
         C           -0.396655890290    -0.678093658489     0.414237113388    12.000000000000
         C            1.826898409710    -0.148456158489     0.053439513388    12.000000000000
         C           -0.277753590290     0.756556841511     0.068171513388    12.000000000000
         H            0.687313409710    -1.449370158489    -1.264304486612     1.007825032230
         H            1.170587409710    -2.237129158489     0.258251513388     1.007825032230
         H           -0.413842590290    -0.822694158489     1.501037513388     1.007825032230
         H            2.243076409710    -0.166919158489     1.065888513388     1.007825032230
         H            2.640792409710    -0.084383158489    -0.669336486612     1.007825032230
         H           -2.255001590290    -0.527176158489    -0.138498486612     1.007825032230

  Basis Set: AUG-CC-PVTZ
    Blend: AUG-CC-PVTZ
  Basis Set: (AUG-CC-PVTZ AUX)
    Blend: AUG-CC-PVTZ-JKFIT
	 Reference Energy          =    -379.6967828040259860 [Eh]
	 Singles Energy            =      -0.0000000000000000 [Eh]
	 Same-Spin Energy          =      -0.3688247474208413 [Eh]
	 Opposite-Spin Energy      =      -1.1377488449909878 [Eh]
	 Correlation Energy        =      -1.5065735924118291 [Eh]
	 Total Energy              =    -381.2033563964378118 [Eh]

	 ================> DF-SCS-MP2 Energies <==================
	-----------------------------------------------------------
	 SCS Same-Spin Scale       =       0.3333333333333333 [-]
	 SCS Opposite-Spin Scale   =       1.2000000000000000 [-]
	 SCS Same-Spin Energy      =      -0.1229415824736138 [Eh]
	 SCS Opposite-Spin Energy  =      -1.3652986139891854 [Eh]
	 SCS Correlation Energy    =      -1.4882401964627991 [Eh]
	 SCS Total Energy          =    -381.1850230004887976 [Eh]
	-----------------------------------------------------------

  Dipole Moment: [D]
     X:     2.8065      Y:    -2.2626      Z:     1.0383     Total:     3.7515

*** Psi4 exiting successfully. Buy a developer a beer!
