                               Psi4 1.3.2 release

  ==> Input File <==

--------------------------------------------------------------------------
#psi4
#
memory 32 gb

molecule  {
0 1
  O        1.0008990     1.1197090    -0.0959030
  O       -1.6332387    -1.2255552    -0.1480501
  O       -1.2230690     1.6022640    -0.0675910
  C        0.8143200    -1.2427870    -0.1986520
  C       -0.4577570    -0.6687040     0.3963640
  C        1.7925350    -0.0950530     0.0479070
  C       -0.3121170     0.8099600     0.0626390
  H        0.6529500    -1.3959670    -1.2698370
  H        1.1362240    -2.1837260     0.2527190
  H       -0.4482060    -0.7692910     1.4955050
  H        2.2087130    -0.1135160     1.0603560
  H        2.6064290    -0.0309800    -0.6748690
  H       -2.2893650    -0.4737730    -0.1440310
units angstrom
no_reorient  #important for SAPT in psi4, default
symmetry c1  #important for SAPT in psi4, default
}

set PROPERTIES_ORIGIN ["COM"]
properties('MP2/aug-cc-pvtz', properties = ['dipole'])
--------------------------------------------------------------------------

    Molecular point group: c1
  Charge       = 0
  Multiplicity = 1
  Basis Set: AUG-CC-PVTZ
    Blend: AUG-CC-PVTZ
  Basis Set: (AUG-CC-PVTZ AUX)
    Blend: AUG-CC-PVTZ-JKFIT

    Orbital Energies [Eh]
    ---------------------

    Doubly Occupied:

       1A    -20.620791     2A    -20.583239     3A    -20.560612
       4A    -11.393341     5A    -11.318178     6A    -11.317084
       7A    -11.258431     8A     -1.470027     9A     -1.386091
      10A     -1.370368    11A     -1.092789    12A     -0.987753
      13A     -0.862158    14A     -0.795863    15A     -0.734645
      16A     -0.711472    17A     -0.687816    18A     -0.658312
      19A     -0.622579    20A     -0.604617    21A     -0.581546
      22A     -0.560587    23A     -0.535069    24A     -0.524100
      25A     -0.474027    26A     -0.468715    27A     -0.447345

  @DF-RHF Final Energy:  -379.69902468012941

   => Energetics <=

    Nuclear Repulsion Energy =            317.2387195076125863
    One-Electron Energy =               -1148.6203761232325178
    Two-Electron Energy =                 451.6826319354905195
    Total Energy =                       -379.6990246801294120
  Basis Set: (AUG-CC-PVTZ AUX)
    Blend: AUG-CC-PVTZ-RI
    Molecular point group: c1

    Geometry (in Angstrom), charge = 0, multiplicity = 1:

       Center              X                  Y                   Z               Mass
    ------------   -----------------  -----------------  -----------------  -----------------
         O            1.037518301202     1.074919534591    -0.090428725656    15.994914619570
         O           -1.596619398798    -1.270344665409    -0.142575825656    15.994914619570
         O           -1.186449698798     1.557474534591    -0.062116725656    15.994914619570
         C            0.850939301202    -1.287576465409    -0.193177725656    12.000000000000
         C           -0.421137698798    -0.713493465409     0.401838274344    12.000000000000
         C            1.829154301202    -0.139842465409     0.053381274344    12.000000000000
         C           -0.275497698798     0.765170534591     0.068113274344    12.000000000000
         H            0.689569301202    -1.440756465409    -1.264362725656     1.007825032230
         H            1.172843301202    -2.228515465409     0.258193274344     1.007825032230
         H           -0.411586698798    -0.814080465409     1.500979274344     1.007825032230
         H            2.245332301202    -0.158305465409     1.065830274344     1.007825032230
         H            2.643048301202    -0.075769465409    -0.669394725656     1.007825032230
         H           -2.252745698798    -0.518562465409    -0.138556725656     1.007825032230

  Basis Set: AUG-CC-PVTZ
    Blend: AUG-CC-PVTZ
  Basis Set: (AUG-CC-PVTZ AUX)
    Blend: AUG-CC-PVTZ-JKFIT
	 Reference Energy          =    -379.6990246801294120 [Eh]
	 Singles Energy            =      -0.0000000000000000 [Eh]
	 Same-Spin Energy          =      -0.3687204304335249 [Eh]
	 Opposite-Spin Energy      =      -1.1371769746833627 [Eh]
	 Correlation Energy        =      -1.5058974051168876 [Eh]
	 Total Energy              =    -381.2049220852463236 [Eh]

	 ================> DF-SCS-MP2 Energies <==================
	-----------------------------------------------------------
	 SCS Same-Spin Scale       =       0.3333333333333333 [-]
	 SCS Opposite-Spin Scale   =       1.2000000000000000 [-]
	 SCS Same-Spin Energy      =      -0.1229068101445083 [Eh]
	 SCS Opposite-Spin Energy  =      -1.3646123696200352 [Eh]
	 SCS Correlation Energy    =      -1.4875191797645435 [Eh]
	 SCS Total Energy          =    -381.1865438598939591 [Eh]
	-----------------------------------------------------------

  Dipole Moment: [D]
     X:     2.6874      Y:    -2.2537      Z:     0.9566     Total:     3.6354

*** Psi4 exiting successfully. Buy a developer a beer!
