                               Psi4 1.3.2 release

  ==> Input File <==

--------------------------------------------------------------------------
#psi4
#
memory 32 gb

molecule  {
0 1
  O        0.9741636     1.2085644    -0.1153716
  O       -1.6389080    -1.2036290    -0.1576800
  O       -1.2230690     1.6022640    -0.0675910
  C        0.8143200    -1.2427870    -0.1986520
  C       -0.4577570    -0.6687040     0.3963640
  C        1.7925350    -0.0950530     0.0479070
  C       -0.3121170     0.8099600     0.0626390
  H        0.6529500    -1.3959670    -1.2698370
  H        1.1362240    -2.1837260     0.2527190
  H       -0.4482060    -0.7692910     1.4955050
  H        2.2087130    -0.1135160     1.0603560
  H        2.6064290    -0.0309800    -0.6748690
  H       -2.2893650    -0.4737730    -0.1440310
units angstrom
no_reorient  #important for SAPT in psi4, default
symmetry c1  #important for SAPT in psi4, default
}

set PROPERTIES_ORIGIN ["COM"]
properties('MP2/aug-cc-pvtz', properties = ['dipole'])
--------------------------------------------------------------------------

    Molecular point group: c1
  Charge       = 0
  Multiplicity = 1
  Basis Set: AUG-CC-PVTZ
    Blend: AUG-CC-PVTZ
  Basis Set: (AUG-CC-PVTZ AUX)
    Blend: AUG-CC-PVTZ-JKFIT

    Orbital Energies [Eh]
    ---------------------

    Doubly Occupied:

       1A    -20.619430     2A    -20.582599     3A    -20.552560
       4A    -11.387085     5A    -11.325380     6A    -11.322151
       7A    -11.263766     8A     -1.456765     9A     -1.386097
      10A     -1.357604    11A     -1.100273    12A     -0.978415
      13A     -0.862571    14A     -0.793731    15A     -0.728568
      16A     -0.711940    17A     -0.684996    18A     -0.650751
      19A     -0.613111    20A     -0.606386    21A     -0.578100
      22A     -0.562096    23A     -0.539272    24A     -0.522889
      25A     -0.476239    26A     -0.466655    27A     -0.445957

  @DF-RHF Final Energy:  -379.69161993027524

   => Energetics <=

    Nuclear Repulsion Energy =            315.7549596478889953
    One-Electron Energy =               -1145.7423886588892401
    Two-Electron Energy =                 450.2958090807250073
    Total Energy =                       -379.6916199302752375
  Basis Set: (AUG-CC-PVTZ AUX)
    Blend: AUG-CC-PVTZ-RI
    Molecular point group: c1

    Geometry (in Angstrom), charge = 0, multiplicity = 1:

       Center              X                  Y                   Z               Mass
    ------------   -----------------  -----------------  -----------------  -----------------
         O            1.015862797352     1.146408348160    -0.105335723230    15.994914619570
         O           -1.597208802648    -1.265785051840    -0.147644123230    15.994914619570
         O           -1.181369802648     1.540107948160    -0.057555123230    15.994914619570
         C            0.856019197352    -1.304943051840    -0.188616123230    12.000000000000
         C           -0.416057802648    -0.730860051840     0.406399876770    12.000000000000
         C            1.834234197352    -0.157209051840     0.057942876770    12.000000000000
         C           -0.270417802648     0.747803948160     0.072674876770    12.000000000000
         H            0.694649197352    -1.458123051840    -1.259801123230     1.007825032230
         H            1.177923197352    -2.245882051840     0.262754876770     1.007825032230
         H           -0.406506802648    -0.831447051840     1.505540876770     1.007825032230
         H            2.250412197352    -0.175672051840     1.070391876770     1.007825032230
         H            2.648128197352    -0.093136051840    -0.664833123230     1.007825032230
         H           -2.247665802648    -0.535929051840    -0.133995123230     1.007825032230

  Basis Set: AUG-CC-PVTZ
    Blend: AUG-CC-PVTZ
  Basis Set: (AUG-CC-PVTZ AUX)
    Blend: AUG-CC-PVTZ-JKFIT
	 Reference Energy          =    -379.6916199302752375 [Eh]
	 Singles Energy            =      -0.0000000000000000 [Eh]
	 Same-Spin Energy          =      -0.3690020413710605 [Eh]
	 Opposite-Spin Energy      =      -1.1390303332418212 [Eh]
	 Correlation Energy        =      -1.5080323746128816 [Eh]
	 Total Energy              =    -381.1996523048881045 [Eh]

	 ================> DF-SCS-MP2 Energies <==================
	-----------------------------------------------------------
	 SCS Same-Spin Scale       =       0.3333333333333333 [-]
	 SCS Opposite-Spin Scale   =       1.2000000000000000 [-]
	 SCS Same-Spin Energy      =      -0.1230006804570202 [Eh]
	 SCS Opposite-Spin Energy  =      -1.3668363998901853 [Eh]
	 SCS Correlation Energy    =      -1.4898370803472054 [Eh]
	 SCS Total Energy          =    -381.1814570106224664 [Eh]
	-----------------------------------------------------------

  Dipole Moment: [D]
     X:     2.8170      Y:    -2.5718      Z:     1.0241     Total:     3.9495

*** Psi4 exiting successfully. Buy a developer a beer!
