                               Psi4 1.4a3.dev225

  ==> Input File <==

--------------------------------------------------------------------------
#psi4
#
memory 32 gb

molecule  {
0 1
  O        1.0008990     1.1197090    -0.0959030
  O       -1.6389080    -1.2036290    -0.1576800
  O       -1.2230690     1.6022640    -0.0675910
  C        0.8143200    -1.2427870    -0.1986520
  C       -0.4577570    -0.6687040     0.3963640
  C        1.8197006    -0.1367385     0.0528419
  C       -0.3121170     0.8099600     0.0626390
  H        0.6529500    -1.3959670    -1.2698370
  H        1.1362240    -2.1837260     0.2527190
  H       -0.4482060    -0.7692910     1.4955050
  H        2.2087130    -0.1135160     1.0603560
  H        2.6064290    -0.0309800    -0.6748690
  H       -2.2893650    -0.4737730    -0.1440310
units angstrom
no_reorient  #important for SAPT in psi4, default
symmetry c1  #important for SAPT in psi4, default
}

set PROPERTIES_ORIGIN ["COM"]
properties('MP2/aug-cc-pvtz', properties = ['dipole'])
--------------------------------------------------------------------------

    Molecular point group: c1
  Charge       = 0
  Multiplicity = 1
  Basis Set: AUG-CC-PVTZ
    Blend: AUG-CC-PVTZ
  Basis Set: (AUG-CC-PVTZ AUX)
    Blend: AUG-CC-PVTZ-JKFIT

    Orbital Energies [Eh]
    ---------------------

    Doubly Occupied:

       1A    -20.614949     2A    -20.580917     3A    -20.556871
       4A    -11.389464     5A    -11.319137     6A    -11.318479
       7A    -11.260180     8A     -1.459155     9A     -1.385410
      10A     -1.365357    11A     -1.095926    12A     -0.988160
      13A     -0.862006    14A     -0.793824    15A     -0.731453
      16A     -0.713161    17A     -0.685564    18A     -0.656386
      19A     -0.618596    20A     -0.604989    21A     -0.581530
      22A     -0.560379    23A     -0.539110    24A     -0.521844
      25A     -0.475777    26A     -0.468456    27A     -0.444349

  @DF-RHF Final Energy:  -379.69805916340385

   => Energetics <=

    Nuclear Repulsion Energy =            316.7595440914842015
    One-Electron Energy =               -1147.7323529238042283
    Two-Electron Energy =                 451.2747496689161153
    Total Energy =                       -379.6980591634038547
  Basis Set: (AUG-CC-PVTZ AUX)
    Blend: AUG-CC-PVTZ-RI
    Molecular point group: c1

    Geometry (in Angstrom), charge = 0, multiplicity = 1:

       Center              X                  Y                   Z               Mass
    ------------   -----------------  -----------------  -----------------  -----------------
         O            1.035212084171     1.076384944966    -0.089499498427    15.994914619570
         O           -1.604594915829    -1.246953055034    -0.151276498427    15.994914619570
         O           -1.188755915829     1.558939944966    -0.061187498427    15.994914619570
         C            0.848633084171    -1.286111055034    -0.192248498427    12.000000000000
         C           -0.423443915829    -0.712028055034     0.402767501573    12.000000000000
         C            1.854013684171    -0.180062555034     0.059245401573    12.000000000000
         C           -0.277803915829     0.766635944966     0.069042501573    12.000000000000
         H            0.687263084171    -1.439291055034    -1.263433498427     1.007825032230
         H            1.170537084171    -2.227050055034     0.259122501573     1.007825032230
         H           -0.413892915829    -0.812615055034     1.501908501573     1.007825032230
         H            2.243026084171    -0.156840055034     1.066759501573     1.007825032230
         H            2.640742084171    -0.074304055034    -0.668465498427     1.007825032230
         H           -2.255051915829    -0.517097055034    -0.137627498427     1.007825032230

  Basis Set: AUG-CC-PVTZ
    Blend: AUG-CC-PVTZ
  Basis Set: (AUG-CC-PVTZ AUX)
    Blend: AUG-CC-PVTZ-JKFIT
	 Reference Energy          =    -379.6980591634038547 [Eh]
	 Singles Energy            =      -0.0000000000000000 [Eh]
	 Same-Spin Energy          =      -0.3685822362102703 [Eh]
	 Opposite-Spin Energy      =      -1.1371662028074931 [Eh]
	 Correlation Energy        =      -1.5057484390177636 [Eh]
	 Total Energy              =    -381.2038076024215911 [Eh]

	 ================> DF-SCS-MP2 Energies <==================
	-----------------------------------------------------------
	 SCS Same-Spin Scale       =       0.3333333333333333 [-]
	 SCS Opposite-Spin Scale   =       1.2000000000000000 [-]
	 SCS Same-Spin Energy      =      -0.1228607454034234 [Eh]
	 SCS Opposite-Spin Energy  =      -1.3645994433689916 [Eh]
	 SCS Correlation Energy    =      -1.4874601887724150 [Eh]
	 SCS Total Energy          =    -381.1855193521762430 [Eh]
	-----------------------------------------------------------

  Dipole Moment: [D]
     X:     2.8204      Y:    -2.4121      Z:     0.9962     Total:     3.8426

*** Psi4 exiting successfully. Buy a developer a beer!
