                               Psi4 1.3.2 release

  ==> Input File <==

--------------------------------------------------------------------------
#psi4
#
memory 32 gb

molecule  {
0 1
  O        1.0008990     1.1197090    -0.0959030
  O       -1.6389080    -1.2036290    -0.1576800
  O       -1.2230690     1.6022640    -0.0675910
  C        0.8143200    -1.2427870    -0.1986520
  C       -0.4461264    -0.6681931     0.4201467
  C        1.7925350    -0.0950530     0.0479070
  C       -0.3121170     0.8099600     0.0626390
  H        0.6529500    -1.3959670    -1.2698370
  H        1.1362240    -2.1837260     0.2527190
  H       -0.4482060    -0.7692910     1.4955050
  H        2.2087130    -0.1135160     1.0603560
  H        2.6064290    -0.0309800    -0.6748690
  H       -2.2893650    -0.4737730    -0.1440310
units angstrom
no_reorient  #important for SAPT in psi4, default
symmetry c1  #important for SAPT in psi4, default
}

set PROPERTIES_ORIGIN ["COM"]
properties('MP2/aug-cc-pvtz', properties = ['dipole'])
--------------------------------------------------------------------------

    Molecular point group: c1
  Charge       = 0
  Multiplicity = 1
  Basis Set: AUG-CC-PVTZ
    Blend: AUG-CC-PVTZ
  Basis Set: (AUG-CC-PVTZ AUX)
    Blend: AUG-CC-PVTZ-JKFIT

    Orbital Energies [Eh]
    ---------------------

    Doubly Occupied:

       1A    -20.620375     2A    -20.579098     3A    -20.560453
       4A    -11.393265     5A    -11.317841     6A    -11.317340
       7A    -11.259429     8A     -1.469748     9A     -1.383354
      10A     -1.367973    11A     -1.094360    12A     -0.988627
      13A     -0.862831    14A     -0.796713    15A     -0.735160
      16A     -0.711953    17A     -0.688039    18A     -0.660243
      19A     -0.620946    20A     -0.605291    21A     -0.578396
      22A     -0.558495    23A     -0.535946    24A     -0.522785
      25A     -0.478364    26A     -0.468521    27A     -0.447564

  @DF-RHF Final Energy:  -379.69960997466228

   => Energetics <=

    Nuclear Repulsion Energy =            317.2435385889506847
    One-Electron Energy =               -1148.6400699087364501
    Two-Electron Energy =                 451.6969213451234282
    Total Energy =                       -379.6996099746622804
  Basis Set: (AUG-CC-PVTZ AUX)
    Blend: AUG-CC-PVTZ-RI
    Molecular point group: c1

    Geometry (in Angstrom), charge = 0, multiplicity = 1:

       Center              X                  Y                   Z               Mass
    ------------   -----------------  -----------------  -----------------  -----------------
         O            1.037039163509     1.071422204666    -0.091716197876    15.994914619570
         O           -1.602767836491    -1.251915795334    -0.153493197876    15.994914619570
         O           -1.186928836491     1.553977204666    -0.063404197876    15.994914619570
         C            0.850460163509    -1.291073795334    -0.194465197876    12.000000000000
         C           -0.409986236491    -0.716479895334     0.424333502124    12.000000000000
         C            1.828675163509    -0.143339795334     0.052093802124    12.000000000000
         C           -0.275976836491     0.761673204666     0.066825802124    12.000000000000
         H            0.689090163509    -1.444253795334    -1.265650197876     1.007825032230
         H            1.172364163509    -2.232012795334     0.256905802124     1.007825032230
         H           -0.412065836491    -0.817577795334     1.499691802124     1.007825032230
         H            2.244853163509    -0.161802795334     1.064542802124     1.007825032230
         H            2.642569163509    -0.079266795334    -0.670682197876     1.007825032230
         H           -2.253224836491    -0.522059795334    -0.139844197876     1.007825032230

  Basis Set: AUG-CC-PVTZ
    Blend: AUG-CC-PVTZ
  Basis Set: (AUG-CC-PVTZ AUX)
    Blend: AUG-CC-PVTZ-JKFIT
	 Reference Energy          =    -379.6996099746622804 [Eh]
	 Singles Energy            =      -0.0000000000000000 [Eh]
	 Same-Spin Energy          =      -0.3684492708294220 [Eh]
	 Opposite-Spin Energy      =      -1.1367999132793951 [Eh]
	 Correlation Energy        =      -1.5052491841088171 [Eh]
	 Total Energy              =    -381.2048591587711144 [Eh]

	 ================> DF-SCS-MP2 Energies <==================
	-----------------------------------------------------------
	 SCS Same-Spin Scale       =       0.3333333333333333 [-]
	 SCS Opposite-Spin Scale   =       1.2000000000000000 [-]
	 SCS Same-Spin Energy      =      -0.1228164236098073 [Eh]
	 SCS Opposite-Spin Energy  =      -1.3641598959352741 [Eh]
	 SCS Correlation Energy    =      -1.4869763195450814 [Eh]
	 SCS Total Energy          =    -381.1865862942073591 [Eh]
	-----------------------------------------------------------

  Dipole Moment: [D]
     X:     2.7490      Y:    -2.2662      Z:     1.0283     Total:     3.7081

*** Psi4 exiting successfully. Buy a developer a beer!
