                               Psi4 1.3.2 release

  ==> Input File <==

--------------------------------------------------------------------------
#psi4
#
memory 32 gb

molecule  {
0 1
  O        1.0008990     1.1197090    -0.0959030
  O       -1.6389080    -1.2036290    -0.1576800
  O       -1.2230690     1.6022640    -0.0675910
  C        0.8143200    -1.2427870    -0.1986520
  C       -0.3968607    -0.8014463     0.3750438
  C        1.7925350    -0.0950530     0.0479070
  C       -0.3121170     0.8099600     0.0626390
  H        0.6529500    -1.3959670    -1.2698370
  H        1.1362240    -2.1837260     0.2527190
  H       -0.4482060    -0.7692910     1.4955050
  H        2.2087130    -0.1135160     1.0603560
  H        2.6064290    -0.0309800    -0.6748690
  H       -2.2893650    -0.4737730    -0.1440310
units angstrom
no_reorient  #important for SAPT in psi4, default
symmetry c1  #important for SAPT in psi4, default
}

set PROPERTIES_ORIGIN ["COM"]
properties('MP2/aug-cc-pvtz', properties = ['dipole'])
--------------------------------------------------------------------------

    Molecular point group: c1
  Charge       = 0
  Multiplicity = 1
  Basis Set: AUG-CC-PVTZ
    Blend: AUG-CC-PVTZ
  Basis Set: (AUG-CC-PVTZ AUX)
    Blend: AUG-CC-PVTZ-JKFIT

    Orbital Energies [Eh]
    ---------------------

    Doubly Occupied:

       1A    -20.618791     2A    -20.576395     3A    -20.560157
       4A    -11.390885     5A    -11.324243     6A    -11.320502
       7A    -11.256460     8A     -1.465542     9A     -1.383175
      10A     -1.369056    11A     -1.112615    12A     -0.979331
      13A     -0.852007    14A     -0.798953    15A     -0.732367
      16A     -0.720649    17A     -0.683686    18A     -0.658999
      19A     -0.622671    20A     -0.610123    21A     -0.589073
      22A     -0.551579    23A     -0.536633    24A     -0.522976
      25A     -0.483973    26A     -0.468084    27A     -0.422552

  @DF-RHF Final Energy:  -379.67957074690980

   => Energetics <=

    Nuclear Repulsion Energy =            316.8133294221606207
    One-Electron Energy =               -1147.7628438249714691
    Two-Electron Energy =                 451.2699436559009882
    Total Energy =                       -379.6795707469098033
  Basis Set: (AUG-CC-PVTZ AUX)
    Blend: AUG-CC-PVTZ-RI
    Molecular point group: c1

    Geometry (in Angstrom), charge = 0, multiplicity = 1:

       Center              X                  Y                   Z               Mass
    ------------   -----------------  -----------------  -----------------  -----------------
         O            1.031244999200     1.087094182034    -0.086411622616    15.994914619570
         O           -1.608562000800    -1.236243817966    -0.148188622616    15.994914619570
         O           -1.192723000800     1.569649182034    -0.058099622616    15.994914619570
         C            0.844665999200    -1.275401817966    -0.189160622616    12.000000000000
         C           -0.366514700800    -0.834061117966     0.384535177384    12.000000000000
         C            1.822880999200    -0.127667817966     0.057398377384    12.000000000000
         C           -0.281771000800     0.777345182034     0.072130377384    12.000000000000
         H            0.683295999200    -1.428581817966    -1.260345622616     1.007825032230
         H            1.166569999200    -2.216340817966     0.262210377384     1.007825032230
         H           -0.417860000800    -0.801905817966     1.504996377384     1.007825032230
         H            2.239058999200    -0.146130817966     1.069847377384     1.007825032230
         H            2.636774999200    -0.063594817966    -0.665377622616     1.007825032230
         H           -2.259019000800    -0.506387817966    -0.134539622616     1.007825032230

  Basis Set: AUG-CC-PVTZ
    Blend: AUG-CC-PVTZ
  Basis Set: (AUG-CC-PVTZ AUX)
    Blend: AUG-CC-PVTZ-JKFIT
	 Reference Energy          =    -379.6795707469098033 [Eh]
	 Singles Energy            =      -0.0000000000000000 [Eh]
	 Same-Spin Energy          =      -0.3697599944971004 [Eh]
	 Opposite-Spin Energy      =      -1.1378526146521377 [Eh]
	 Correlation Energy        =      -1.5076126091492381 [Eh]
	 Total Energy              =    -381.1871833560590517 [Eh]

	 ================> DF-SCS-MP2 Energies <==================
	-----------------------------------------------------------
	 SCS Same-Spin Scale       =       0.3333333333333333 [-]
	 SCS Opposite-Spin Scale   =       1.2000000000000000 [-]
	 SCS Same-Spin Energy      =      -0.1232533314990335 [Eh]
	 SCS Opposite-Spin Energy  =      -1.3654231375825652 [Eh]
	 SCS Correlation Energy    =      -1.4886764690815986 [Eh]
	 SCS Total Energy          =    -381.1682472159914141 [Eh]
	-----------------------------------------------------------

  Dipole Moment: [D]
     X:     2.8185      Y:    -2.2503      Z:     0.9026     Total:     3.7179

*** Psi4 exiting successfully. Buy a developer a beer!
