                               Psi4 1.3.2 release

  ==> Input File <==

--------------------------------------------------------------------------
#psi4
#
memory 32 gb

molecule  {
0 1
  O        1.0008990     1.1197090    -0.0959030
  O       -1.6521688    -1.1892331    -0.1427622
  O       -1.2230690     1.6022640    -0.0675910
  C        0.8143200    -1.2427870    -0.1986520
  C       -0.4577570    -0.6687040     0.3963640
  C        1.7925350    -0.0950530     0.0479070
  C       -0.3121170     0.8099600     0.0626390
  H        0.6529500    -1.3959670    -1.2698370
  H        1.1362240    -2.1837260     0.2527190
  H       -0.4482060    -0.7692910     1.4955050
  H        2.2087130    -0.1135160     1.0603560
  H        2.6064290    -0.0309800    -0.6748690
  H       -2.2893650    -0.4737730    -0.1440310
units angstrom
no_reorient  #important for SAPT in psi4, default
symmetry c1  #important for SAPT in psi4, default
}

set PROPERTIES_ORIGIN ["COM"]
properties('MP2/aug-cc-pvtz', properties = ['dipole'])
--------------------------------------------------------------------------

    Molecular point group: c1
  Charge       = 0
  Multiplicity = 1
  Basis Set: AUG-CC-PVTZ
    Blend: AUG-CC-PVTZ
  Basis Set: (AUG-CC-PVTZ AUX)
    Blend: AUG-CC-PVTZ-JKFIT

    Orbital Energies [Eh]
    ---------------------

    Doubly Occupied:

       1A    -20.620369     2A    -20.578642     3A    -20.559740
       4A    -11.392480     5A    -11.318962     6A    -11.317640
       7A    -11.259688     8A     -1.469801     9A     -1.390883
      10A     -1.371163    11A     -1.094601    12A     -0.988814
      13A     -0.862374    14A     -0.799835    15A     -0.734719
      16A     -0.716595    17A     -0.689190    18A     -0.658486
      19A     -0.622211    20A     -0.605170    21A     -0.583629
      22A     -0.559848    23A     -0.536161    24A     -0.523972
      25A     -0.474555    26A     -0.468418    27A     -0.447009

  @DF-RHF Final Energy:  -379.70182025651377

   => Energetics <=

    Nuclear Repulsion Energy =            317.5432791575682359
    One-Electron Energy =               -1149.2002921469188550
    Two-Electron Energy =                 451.9551927328368492
    Total Energy =                       -379.7018202565137699
  Basis Set: (AUG-CC-PVTZ AUX)
    Blend: AUG-CC-PVTZ-RI
    Molecular point group: c1

    Geometry (in Angstrom), charge = 0, multiplicity = 1:

       Center              X                  Y                   Z               Mass
    ------------   -----------------  -----------------  -----------------  -----------------
         O            1.040485862763     1.069225530451    -0.091257678951    15.994914619570
         O           -1.612581937237    -1.239716569549    -0.138116878951    15.994914619570
         O           -1.183482137237     1.551780530451    -0.062945678951    15.994914619570
         C            0.853906862763    -1.293270469549    -0.194006678951    12.000000000000
         C           -0.418170137237    -0.719187469549     0.401009321049    12.000000000000
         C            1.832121862763    -0.145536469549     0.052552321049    12.000000000000
         C           -0.272530137237     0.759476530451     0.067284321049    12.000000000000
         H            0.692536862763    -1.446450469549    -1.265191678951     1.007825032230
         H            1.175810862763    -2.234209469549     0.257364321049     1.007825032230
         H           -0.408619137237    -0.819774469549     1.500150321049     1.007825032230
         H            2.248299862763    -0.163999469549     1.065001321049     1.007825032230
         H            2.646015862763    -0.081463469549    -0.670223678951     1.007825032230
         H           -2.249778137237    -0.524256469549    -0.139385678951     1.007825032230

  Basis Set: AUG-CC-PVTZ
    Blend: AUG-CC-PVTZ
  Basis Set: (AUG-CC-PVTZ AUX)
    Blend: AUG-CC-PVTZ-JKFIT
	 Reference Energy          =    -379.7018202565137699 [Eh]
	 Singles Energy            =      -0.0000000000000000 [Eh]
	 Same-Spin Energy          =      -0.3681276246116310 [Eh]
	 Opposite-Spin Energy      =      -1.1357209694300601 [Eh]
	 Correlation Energy        =      -1.5038485940416910 [Eh]
	 Total Energy              =    -381.2056688505554689 [Eh]

	 ================> DF-SCS-MP2 Energies <==================
	-----------------------------------------------------------
	 SCS Same-Spin Scale       =       0.3333333333333333 [-]
	 SCS Opposite-Spin Scale   =       1.2000000000000000 [-]
	 SCS Same-Spin Energy      =      -0.1227092082038770 [Eh]
	 SCS Opposite-Spin Energy  =      -1.3628651633160720 [Eh]
	 SCS Correlation Energy    =      -1.4855743715199490 [Eh]
	 SCS Total Energy          =    -381.1873946280337009 [Eh]
	-----------------------------------------------------------

  Dipole Moment: [D]
     X:     2.7301      Y:    -2.3053      Z:     0.9532     Total:     3.6982

*** Psi4 exiting successfully. Buy a developer a beer!
