                               Psi4 1.3.2 release

  ==> Input File <==

--------------------------------------------------------------------------
#psi4
#
memory 32 gb

molecule  {
0 1
  O        1.0008990     1.1197090    -0.0959030
  O       -1.6389080    -1.2036290    -0.1576800
  O       -1.2230690     1.6022640    -0.0675910
  C        0.8324827    -1.2748152    -0.0985513
  C       -0.4577570    -0.6687040     0.3963640
  C        1.7925350    -0.0950530     0.0479070
  C       -0.3121170     0.8099600     0.0626390
  H        0.6529500    -1.3959670    -1.2698370
  H        1.1362240    -2.1837260     0.2527190
  H       -0.4482060    -0.7692910     1.4955050
  H        2.2087130    -0.1135160     1.0603560
  H        2.6064290    -0.0309800    -0.6748690
  H       -2.2893650    -0.4737730    -0.1440310
units angstrom
no_reorient  #important for SAPT in psi4, default
symmetry c1  #important for SAPT in psi4, default
}

set PROPERTIES_ORIGIN ["COM"]
properties('MP2/aug-cc-pvtz', properties = ['dipole'])
--------------------------------------------------------------------------

    Molecular point group: c1
  Charge       = 0
  Multiplicity = 1
  Basis Set: AUG-CC-PVTZ
    Blend: AUG-CC-PVTZ
  Basis Set: (AUG-CC-PVTZ AUX)
    Blend: AUG-CC-PVTZ-JKFIT

    Orbital Energies [Eh]
    ---------------------

    Doubly Occupied:

       1A    -20.622895     2A    -20.582089     3A    -20.561355
       4A    -11.394924     5A    -11.319896     6A    -11.318530
       7A    -11.261937     8A     -1.470863     9A     -1.389147
      10A     -1.371741    11A     -1.096384    12A     -0.989200
      13A     -0.863624    14A     -0.800122    15A     -0.733186
      16A     -0.716251    17A     -0.694875    18A     -0.657460
      19A     -0.624912    20A     -0.598069    21A     -0.592026
      22A     -0.568612    23A     -0.534177    24A     -0.511952
      25A     -0.471363    26A     -0.465293    27A     -0.449576

  @DF-RHF Final Energy:  -379.68790010334982

   => Energetics <=

    Nuclear Repulsion Energy =            317.1780633846766477
    One-Electron Energy =               -1148.4110126770547140
    Two-Electron Energy =                 451.5450491890282478
    Total Energy =                       -379.6879001033498184
  Basis Set: (AUG-CC-PVTZ AUX)
    Blend: AUG-CC-PVTZ-RI
    Molecular point group: c1

    Geometry (in Angstrom), charge = 0, multiplicity = 1:

       Center              X                  Y                   Z               Mass
    ------------   -----------------  -----------------  -----------------  -----------------
         O            1.036270919869     1.075249144948    -0.100691997097    15.994914619570
         O           -1.603536080131    -1.248088855052    -0.162468997097    15.994914619570
         O           -1.187697080131     1.557804144948    -0.072379997097    15.994914619570
         C            0.867854619869    -1.319275055052    -0.103340297097    12.000000000000
         C           -0.422385080131    -0.713163855052     0.391575002903    12.000000000000
         C            1.827906919869    -0.139512855052     0.043118002903    12.000000000000
         C           -0.276745080131     0.765500144948     0.057850002903    12.000000000000
         H            0.688321919869    -1.440426855052    -1.274625997097     1.007825032230
         H            1.171595919869    -2.228185855052     0.247930002903     1.007825032230
         H           -0.412834080131    -0.813750855052     1.490716002903     1.007825032230
         H            2.244084919869    -0.157975855052     1.055567002903     1.007825032230
         H            2.641800919869    -0.075439855052    -0.679657997097     1.007825032230
         H           -2.253993080131    -0.518232855052    -0.148819997097     1.007825032230

  Basis Set: AUG-CC-PVTZ
    Blend: AUG-CC-PVTZ
  Basis Set: (AUG-CC-PVTZ AUX)
    Blend: AUG-CC-PVTZ-JKFIT
	 Reference Energy          =    -379.6879001033498184 [Eh]
	 Singles Energy            =      -0.0000000000000000 [Eh]
	 Same-Spin Energy          =      -0.3687430799646514 [Eh]
	 Opposite-Spin Energy      =      -1.1373018909426302 [Eh]
	 Correlation Energy        =      -1.5060449709072816 [Eh]
	 Total Energy              =    -381.1939450742571012 [Eh]

	 ================> DF-SCS-MP2 Energies <==================
	-----------------------------------------------------------
	 SCS Same-Spin Scale       =       0.3333333333333333 [-]
	 SCS Opposite-Spin Scale   =       1.2000000000000000 [-]
	 SCS Same-Spin Energy      =      -0.1229143599882171 [Eh]
	 SCS Opposite-Spin Energy  =      -1.3647622691311563 [Eh]
	 SCS Correlation Energy    =      -1.4876766291193735 [Eh]
	 SCS Total Energy          =    -381.1755767324692101 [Eh]
	-----------------------------------------------------------

  Dipole Moment: [D]
     X:     2.6982      Y:    -2.2922      Z:     1.0289     Total:     3.6869

*** Psi4 exiting successfully. Buy a developer a beer!
