                               Psi4 1.3.2 release

  ==> Input File <==

--------------------------------------------------------------------------
#psi4
#
memory 32 gb

molecule  {
0 1
  O        1.0008990     1.1197090    -0.0959030
  O       -1.6389080    -1.2036290    -0.1576800
  O       -1.2230690     1.6022640    -0.0675910
  C        0.8143200    -1.2427870    -0.1986520
  C       -0.4577570    -0.6687040     0.3963640
  C        1.7925350    -0.0950530     0.0479070
  C       -0.3121170     0.8099600     0.0626390
  H        0.6732489    -1.4688881    -1.2597453
  H        1.1362240    -2.1837260     0.2527190
  H       -0.4482060    -0.7692910     1.4955050
  H        2.2087130    -0.1135160     1.0603560
  H        2.6064290    -0.0309800    -0.6748690
  H       -2.2893650    -0.4737730    -0.1440310
units angstrom
no_reorient  #important for SAPT in psi4, default
symmetry c1  #important for SAPT in psi4, default
}

set PROPERTIES_ORIGIN ["COM"]
properties('MP2/aug-cc-pvtz', properties = ['dipole'])
--------------------------------------------------------------------------

    Molecular point group: c1
  Charge       = 0
  Multiplicity = 1
  Basis Set: AUG-CC-PVTZ
    Blend: AUG-CC-PVTZ
  Basis Set: (AUG-CC-PVTZ AUX)
    Blend: AUG-CC-PVTZ-JKFIT

    Orbital Energies [Eh]
    ---------------------

    Doubly Occupied:

       1A    -20.620316     2A    -20.580996     3A    -20.559937
       4A    -11.392633     5A    -11.318982     6A    -11.317572
       7A    -11.258513     8A     -1.469694     9A     -1.388309
      10A     -1.370656    11A     -1.092886    12A     -0.988237
      13A     -0.863484    14A     -0.797449    15A     -0.733029
      16A     -0.714007    17A     -0.689957    18A     -0.658664
      19A     -0.622830    20A     -0.604679    21A     -0.581659
      22A     -0.557794    23A     -0.537297    24A     -0.522063
      25A     -0.475469    26A     -0.468430    27A     -0.446719

  @DF-RHF Final Energy:  -379.70033371778777

   => Energetics <=

    Nuclear Repulsion Energy =            317.3391486957661414
    One-Electron Energy =               -1148.8144437900998582
    Two-Electron Energy =                 451.7749613765458889
    Total Energy =                       -379.7003337177877711
  Basis Set: (AUG-CC-PVTZ AUX)
    Blend: AUG-CC-PVTZ-RI
    Molecular point group: c1

    Geometry (in Angstrom), charge = 0, multiplicity = 1:

       Center              X                  Y                   Z               Mass
    ------------   -----------------  -----------------  -----------------  -----------------
         O            1.038206540583     1.072202575027    -0.089018783757    15.994914619570
         O           -1.601600459417    -1.251135424973    -0.150795783757    15.994914619570
         O           -1.185761459417     1.554757575027    -0.060706783757    15.994914619570
         C            0.851627540583    -1.290293424973    -0.191767783757    12.000000000000
         C           -0.420449459417    -0.716210424973     0.403248216243    12.000000000000
         C            1.829842540583    -0.142559424973     0.054791216243    12.000000000000
         C           -0.274809459417     0.762453575027     0.069523216243    12.000000000000
         H            0.710556440583    -1.516394524973    -1.252861083757     1.007825032230
         H            1.173531540583    -2.231232424973     0.259603216243     1.007825032230
         H           -0.410898459417    -0.816797424973     1.502389216243     1.007825032230
         H            2.246020540583    -0.161022424973     1.067240216243     1.007825032230
         H            2.643736540583    -0.078486424973    -0.667984783757     1.007825032230
         H           -2.252057459417    -0.521279424973    -0.137146783757     1.007825032230

  Basis Set: AUG-CC-PVTZ
    Blend: AUG-CC-PVTZ
  Basis Set: (AUG-CC-PVTZ AUX)
    Blend: AUG-CC-PVTZ-JKFIT
	 Reference Energy          =    -379.7003337177877711 [Eh]
	 Singles Energy            =      -0.0000000000000000 [Eh]
	 Same-Spin Energy          =      -0.3683708337827051 [Eh]
	 Opposite-Spin Energy      =      -1.1363409701267142 [Eh]
	 Correlation Energy        =      -1.5047118039094194 [Eh]
	 Total Energy              =    -381.2050455216971727 [Eh]

	 ================> DF-SCS-MP2 Energies <==================
	-----------------------------------------------------------
	 SCS Same-Spin Scale       =       0.3333333333333333 [-]
	 SCS Opposite-Spin Scale   =       1.2000000000000000 [-]
	 SCS Same-Spin Energy      =      -0.1227902779275684 [Eh]
	 SCS Opposite-Spin Energy  =      -1.3636091641520569 [Eh]
	 SCS Correlation Energy    =      -1.4863994420796254 [Eh]
	 SCS Total Energy          =    -381.1867331598674014 [Eh]
	-----------------------------------------------------------

  Dipole Moment: [D]
     X:     2.6991      Y:    -2.3104      Z:     0.9753     Total:     3.6843

*** Psi4 exiting successfully. Buy a developer a beer!
