                               Psi4 1.3.2 release

  ==> Input File <==

--------------------------------------------------------------------------
#psi4
#
memory 32 gb

molecule  {
0 1
  O        1.0008990     1.1197090    -0.0959030
  O       -1.5519364    -1.2864328    -0.2434874
  O       -1.2230690     1.6022640    -0.0675910
  C        0.8143200    -1.2427870    -0.1986520
  C       -0.4577570    -0.6687040     0.3963640
  C        1.7925350    -0.0950530     0.0479070
  C       -0.3121170     0.8099600     0.0626390
  H        0.6529500    -1.3959670    -1.2698370
  H        1.1362240    -2.1837260     0.2527190
  H       -0.4482060    -0.7692910     1.4955050
  H        2.2087130    -0.1135160     1.0603560
  H        2.6064290    -0.0309800    -0.6748690
  H       -2.2893650    -0.4737730    -0.1440310
units angstrom
no_reorient  #important for SAPT in psi4, default
symmetry c1  #important for SAPT in psi4, default
}

set PROPERTIES_ORIGIN ["COM"]
properties('MP2/aug-cc-pvtz', properties = ['dipole'])
--------------------------------------------------------------------------

    Molecular point group: c1
  Charge       = 0
  Multiplicity = 1
  Basis Set: AUG-CC-PVTZ
    Blend: AUG-CC-PVTZ
  Basis Set: (AUG-CC-PVTZ AUX)
    Blend: AUG-CC-PVTZ-JKFIT

    Orbital Energies [Eh]
    ---------------------

    Doubly Occupied:

       1A    -20.620643     2A    -20.593978     3A    -20.561653
       4A    -11.393859     5A    -11.317134     6A    -11.314746
       7A    -11.254384     8A     -1.469806     9A     -1.380197
      10A     -1.364875    11A     -1.087732    12A     -0.985217
      13A     -0.862224    14A     -0.787394    15A     -0.733715
      16A     -0.702540    17A     -0.681373    18A     -0.658607
      19A     -0.622339    20A     -0.602678    21A     -0.576528
      22A     -0.558952    23A     -0.531549    24A     -0.519612
      25A     -0.476432    26A     -0.468077    27A     -0.446289

  @DF-RHF Final Energy:  -379.67845926844603

   => Energetics <=

    Nuclear Repulsion Energy =            317.1347745345645990
    One-Electron Energy =               -1148.4814040781482163
    Two-Electron Energy =                 451.6681702751375838
    Total Energy =                       -379.6784592684460335
  Basis Set: (AUG-CC-PVTZ AUX)
    Blend: AUG-CC-PVTZ-RI
    Molecular point group: c1

    Geometry (in Angstrom), charge = 0, multiplicity = 1:

       Center              X                  Y                   Z               Mass
    ------------   -----------------  -----------------  -----------------  -----------------
         O            1.024773012996     1.084462961496    -0.075467575797    15.994914619570
         O           -1.528062387004    -1.321678838504    -0.223051975797    15.994914619570
         O           -1.199194987004     1.567017961496    -0.047155575797    15.994914619570
         C            0.838194012996    -1.278033038504    -0.178216575797    12.000000000000
         C           -0.433882987004    -0.703950038504     0.416799424203    12.000000000000
         C            1.816409012996    -0.130299038504     0.068342424203    12.000000000000
         C           -0.288242987004     0.774713961496     0.083074424203    12.000000000000
         H            0.676824012996    -1.431213038504    -1.249401575797     1.007825032230
         H            1.160098012996    -2.218972038504     0.273154424203     1.007825032230
         H           -0.424331987004    -0.804537038504     1.515940424203     1.007825032230
         H            2.232587012996    -0.148762038504     1.080791424203     1.007825032230
         H            2.630303012996    -0.066226038504    -0.654433575797     1.007825032230
         H           -2.265490987004    -0.509019038504    -0.123595575797     1.007825032230

  Basis Set: AUG-CC-PVTZ
    Blend: AUG-CC-PVTZ
  Basis Set: (AUG-CC-PVTZ AUX)
    Blend: AUG-CC-PVTZ-JKFIT
	 Reference Energy          =    -379.6784592684460335 [Eh]
	 Singles Energy            =      -0.0000000000000000 [Eh]
	 Same-Spin Energy          =      -0.3705180873213059 [Eh]
	 Opposite-Spin Energy      =      -1.1416457336087309 [Eh]
	 Correlation Energy        =      -1.5121638209300368 [Eh]
	 Total Energy              =    -381.1906230893760608 [Eh]

	 ================> DF-SCS-MP2 Energies <==================
	-----------------------------------------------------------
	 SCS Same-Spin Scale       =       0.3333333333333333 [-]
	 SCS Opposite-Spin Scale   =       1.2000000000000000 [-]
	 SCS Same-Spin Energy      =      -0.1235060291071020 [Eh]
	 SCS Opposite-Spin Energy  =      -1.3699748803304770 [Eh]
	 SCS Correlation Energy    =      -1.4934809094375789 [Eh]
	 SCS Total Energy          =    -381.1719401778835845 [Eh]
	-----------------------------------------------------------

  Dipole Moment: [D]
     X:     2.5107      Y:    -2.2036      Z:     1.1266     Total:     3.5254

*** Psi4 exiting successfully. Buy a developer a beer!
