                               Psi4 1.3.2 release

  ==> Input File <==

--------------------------------------------------------------------------
#psi4
#
memory 32 gb

molecule  {
0 1
  O        1.0008990     1.1197090    -0.0959030
  O       -1.6897527    -1.1451117    -0.0970419
  O       -1.2230690     1.6022640    -0.0675910
  C        0.8143200    -1.2427870    -0.1986520
  C       -0.4577570    -0.6687040     0.3963640
  C        1.7925350    -0.0950530     0.0479070
  C       -0.3121170     0.8099600     0.0626390
  H        0.6529500    -1.3959670    -1.2698370
  H        1.1362240    -2.1837260     0.2527190
  H       -0.4482060    -0.7692910     1.4955050
  H        2.2087130    -0.1135160     1.0603560
  H        2.6064290    -0.0309800    -0.6748690
  H       -2.2893650    -0.4737730    -0.1440310
units angstrom
no_reorient  #important for SAPT in psi4, default
symmetry c1  #important for SAPT in psi4, default
}

set PROPERTIES_ORIGIN ["COM"]
properties('MP2/aug-cc-pvtz', properties = ['dipole'])
--------------------------------------------------------------------------

    Molecular point group: c1
  Charge       = 0
  Multiplicity = 1
  Basis Set: AUG-CC-PVTZ
    Blend: AUG-CC-PVTZ
  Basis Set: (AUG-CC-PVTZ AUX)
    Blend: AUG-CC-PVTZ-JKFIT

    Orbital Energies [Eh]
    ---------------------

    Doubly Occupied:

       1A    -20.620250     2A    -20.571113     3A    -20.558983
       4A    -11.391930     5A    -11.320332     6A    -11.318844
       7A    -11.262042     8A     -1.469957     9A     -1.399943
      10A     -1.371807    11A     -1.097766    12A     -0.991028
      13A     -0.863440    14A     -0.807736    15A     -0.735426
      16A     -0.723411    17A     -0.689689    18A     -0.658259
      19A     -0.622104    20A     -0.607101    21A     -0.587570
      22A     -0.558251    23A     -0.537704    24A     -0.524940
      25A     -0.472996    26A     -0.468347    27A     -0.447352

  @DF-RHF Final Energy:  -379.69897732064601

   => Energetics <=

    Nuclear Repulsion Energy =            317.8194240716307490
    One-Electron Energy =               -1149.6801611954194868
    Two-Electron Energy =                 452.1617598031427860
    Total Energy =                       -379.6989773206460086
  Basis Set: (AUG-CC-PVTZ AUX)
    Blend: AUG-CC-PVTZ-RI
    Molecular point group: c1

    Geometry (in Angstrom), charge = 0, multiplicity = 1:

       Center              X                  Y                   Z               Mass
    ------------   -----------------  -----------------  -----------------  -----------------
         O            1.046377671942     1.062308875460    -0.098424984186    15.994914619570
         O           -1.644274028058    -1.202511824540    -0.099563884186    15.994914619570
         O           -1.177590328058     1.544863875460    -0.070112984186    15.994914619570
         C            0.859798671942    -1.300187124540    -0.201173984186    12.000000000000
         C           -0.412278328058    -0.726104124540     0.393842015814    12.000000000000
         C            1.838013671942    -0.152453124540     0.045385015814    12.000000000000
         C           -0.266638328058     0.752559875460     0.060117015814    12.000000000000
         H            0.698428671942    -1.453367124540    -1.272358984186     1.007825032230
         H            1.181702671942    -2.241126124540     0.250197015814     1.007825032230
         H           -0.402727328058    -0.826691124540     1.492983015814     1.007825032230
         H            2.254191671942    -0.170916124540     1.057834015814     1.007825032230
         H            2.651907671942    -0.088380124540    -0.677390984186     1.007825032230
         H           -2.243886328058    -0.531173124540    -0.146552984186     1.007825032230

  Basis Set: AUG-CC-PVTZ
    Blend: AUG-CC-PVTZ
  Basis Set: (AUG-CC-PVTZ AUX)
    Blend: AUG-CC-PVTZ-JKFIT
	 Reference Energy          =    -379.6989773206460086 [Eh]
	 Singles Energy            =      -0.0000000000000000 [Eh]
	 Same-Spin Energy          =      -0.3673237785654203 [Eh]
	 Opposite-Spin Energy      =      -1.1338236494896896 [Eh]
	 Correlation Energy        =      -1.5011474280551100 [Eh]
	 Total Energy              =    -381.2001247487011142 [Eh]

	 ================> DF-SCS-MP2 Energies <==================
	-----------------------------------------------------------
	 SCS Same-Spin Scale       =       0.3333333333333333 [-]
	 SCS Opposite-Spin Scale   =       1.2000000000000000 [-]
	 SCS Same-Spin Energy      =      -0.1224412595218068 [Eh]
	 SCS Opposite-Spin Energy  =      -1.3605883793876274 [Eh]
	 SCS Correlation Energy    =      -1.4830296389094342 [Eh]
	 SCS Total Energy          =    -381.1820069595554514 [Eh]
	-----------------------------------------------------------

  Dipole Moment: [D]
     X:     2.8348      Y:    -2.3562      Z:     0.8658     Total:     3.7864

*** Psi4 exiting successfully. Buy a developer a beer!
