                               Psi4 1.4a3.dev225

  ==> Input File <==

--------------------------------------------------------------------------
#psi4
#
memory 32 gb

molecule  {
0 1
  O        1.0008990     1.1197090    -0.0959030
  O       -1.6389080    -1.2036290    -0.1576800
  O       -1.2230690     1.6022640    -0.0675910
  C        0.8143200    -1.2427870    -0.1986520
  C       -0.4577570    -0.6687040     0.3963640
  C        1.7653694    -0.0533675     0.0429721
  C       -0.3121170     0.8099600     0.0626390
  H        0.6529500    -1.3959670    -1.2698370
  H        1.1362240    -2.1837260     0.2527190
  H       -0.4482060    -0.7692910     1.4955050
  H        2.2087130    -0.1135160     1.0603560
  H        2.6064290    -0.0309800    -0.6748690
  H       -2.2893650    -0.4737730    -0.1440310
units angstrom
no_reorient  #important for SAPT in psi4, default
symmetry c1  #important for SAPT in psi4, default
}

set PROPERTIES_ORIGIN ["COM"]
properties('MP2/aug-cc-pvtz', properties = ['dipole'])
--------------------------------------------------------------------------

    Molecular point group: c1
  Charge       = 0
  Multiplicity = 1
  Basis Set: AUG-CC-PVTZ
    Blend: AUG-CC-PVTZ
  Basis Set: (AUG-CC-PVTZ AUX)
    Blend: AUG-CC-PVTZ-JKFIT

    Orbital Energies [Eh]
    ---------------------

    Doubly Occupied:

       1A    -20.625471     2A    -20.581221     3A    -20.563207
       4A    -11.395920     5A    -11.318795     6A    -11.316294
       7A    -11.257855     8A     -1.482613     9A     -1.392604
      10A     -1.374639    11A     -1.091444    12A     -0.988776
      13A     -0.863301    14A     -0.801268    15A     -0.738181
      16A     -0.715309    17A     -0.692397    18A     -0.662203
      19A     -0.626696    20A     -0.603707    21A     -0.584649
      22A     -0.559734    23A     -0.531031    24A     -0.523737
      25A     -0.473589    26A     -0.466373    27A     -0.449352

  @DF-RHF Final Energy:  -379.69957910830323

   => Energetics <=

    Nuclear Repulsion Energy =            318.1921566626701861
    One-Electron Energy =               -1150.4227424623325078
    Two-Electron Energy =                 452.5310066913590958
    Total Energy =                       -379.6995791083032259
  Basis Set: (AUG-CC-PVTZ AUX)
    Blend: AUG-CC-PVTZ-RI
    Molecular point group: c1

    Geometry (in Angstrom), charge = 0, multiplicity = 1:

       Center              X                  Y                   Z               Mass
    ------------   -----------------  -----------------  -----------------  -----------------
         O            1.041602004539     1.066579638788    -0.088338706174    15.994914619570
         O           -1.598204995461    -1.256758361212    -0.150115706174    15.994914619570
         O           -1.182365995461     1.549134638788    -0.060026706174    15.994914619570
         C            0.855023004539    -1.295916361212    -0.191087706174    12.000000000000
         C           -0.417053995461    -0.721833361212     0.403928293826    12.000000000000
         C            1.806072404539    -0.106496861212     0.050536393826    12.000000000000
         C           -0.271413995461     0.756830638788     0.070203293826    12.000000000000
         H            0.693653004539    -1.449096361212    -1.262272706174     1.007825032230
         H            1.176927004539    -2.236855361212     0.260283293826     1.007825032230
         H           -0.407502995461    -0.822420361212     1.503069293826     1.007825032230
         H            2.249416004539    -0.166645361212     1.067920293826     1.007825032230
         H            2.647132004539    -0.084109361212    -0.667304706174     1.007825032230
         H           -2.248661995461    -0.526902361212    -0.136466706174     1.007825032230

  Basis Set: AUG-CC-PVTZ
    Blend: AUG-CC-PVTZ
  Basis Set: (AUG-CC-PVTZ AUX)
    Blend: AUG-CC-PVTZ-JKFIT
	 Reference Energy          =    -379.6995791083032259 [Eh]
	 Singles Energy            =      -0.0000000000000000 [Eh]
	 Same-Spin Energy          =      -0.3684163123837962 [Eh]
	 Opposite-Spin Energy      =      -1.1359448405279404 [Eh]
	 Correlation Energy        =      -1.5043611529117367 [Eh]
	 Total Energy              =    -381.2039402612149388 [Eh]

	 ================> DF-SCS-MP2 Energies <==================
	-----------------------------------------------------------
	 SCS Same-Spin Scale       =       0.3333333333333333 [-]
	 SCS Opposite-Spin Scale   =       1.2000000000000000 [-]
	 SCS Same-Spin Energy      =      -0.1228054374612654 [Eh]
	 SCS Opposite-Spin Energy  =      -1.3631338086335285 [Eh]
	 SCS Correlation Energy    =      -1.4859392460947940 [Eh]
	 SCS Total Energy          =    -381.1855183543980274 [Eh]
	-----------------------------------------------------------

  Dipole Moment: [D]
     X:     2.5603      Y:    -2.1618      Z:     0.9619     Total:     3.4863

*** Psi4 exiting successfully. Buy a developer a beer!
