                               Psi4 1.3.2 release

  ==> Input File <==

--------------------------------------------------------------------------
#psi4
#
memory 32 gb

molecule  {
0 1
  O        1.0008990     1.1197090    -0.0959030
  O       -1.6389080    -1.2036290    -0.1576800
  O       -1.2230690     1.6022640    -0.0675910
  C        0.8143200    -1.2427870    -0.1986520
  C       -0.4577570    -0.6687040     0.3963640
  C        1.9011973    -0.2617948     0.0676468
  C       -0.3121170     0.8099600     0.0626390
  H        0.6529500    -1.3959670    -1.2698370
  H        1.1362240    -2.1837260     0.2527190
  H       -0.4482060    -0.7692910     1.4955050
  H        2.2087130    -0.1135160     1.0603560
  H        2.6064290    -0.0309800    -0.6748690
  H       -2.2893650    -0.4737730    -0.1440310
units angstrom
no_reorient  #important for SAPT in psi4, default
symmetry c1  #important for SAPT in psi4, default
}

set PROPERTIES_ORIGIN ["COM"]
properties('MP2/aug-cc-pvtz', properties = ['dipole'])
--------------------------------------------------------------------------

    Molecular point group: c1
  Charge       = 0
  Multiplicity = 1
  Basis Set: AUG-CC-PVTZ
    Blend: AUG-CC-PVTZ
  Basis Set: (AUG-CC-PVTZ AUX)
    Blend: AUG-CC-PVTZ-JKFIT

    Orbital Energies [Eh]
    ---------------------

    Doubly Occupied:

       1A    -20.595856     2A    -20.580673     3A    -20.547477
       4A    -11.379753     5A    -11.330297     6A    -11.318600
       7A    -11.265505     8A     -1.436261     9A     -1.380806
      10A     -1.344380    11A     -1.103741    12A     -0.989965
      13A     -0.864870    14A     -0.784357    15A     -0.728235
      16A     -0.707617    17A     -0.680250    18A     -0.654458
      19A     -0.610213    20A     -0.601565    21A     -0.590447
      22A     -0.560197    23A     -0.543319    24A     -0.505212
      25A     -0.473746    26A     -0.461163    27A     -0.436282

  @DF-RHF Final Energy:  -379.67326721803641

   => Energetics <=

    Nuclear Repulsion Energy =            314.7277345239585316
    One-Electron Energy =               -1143.8515136217247345
    Two-Electron Energy =                 449.4505118797297314
    Total Energy =                       -379.6732672180364148
  Basis Set: (AUG-CC-PVTZ AUX)
    Blend: AUG-CC-PVTZ-RI
    Molecular point group: c1

    Geometry (in Angstrom), charge = 0, multiplicity = 1:

       Center              X                  Y                   Z               Mass
    ------------   -----------------  -----------------  -----------------  -----------------
         O            1.025627215380     1.091092880710    -0.091240710328    15.994914619570
         O           -1.614179784620    -1.232245119290    -0.153017710328    15.994914619570
         O           -1.198340784620     1.573647880710    -0.062928710328    15.994914619570
         C            0.839048215380    -1.271403119290    -0.193989710328    12.000000000000
         C           -0.433028784620    -0.697320119290     0.401026289672    12.000000000000
         C            1.925925515380    -0.290410919290     0.072309089672    12.000000000000
         C           -0.287388784620     0.781343880710     0.067301289672    12.000000000000
         H            0.677678215380    -1.424583119290    -1.265174710328     1.007825032230
         H            1.160952215380    -2.212342119290     0.257381289672     1.007825032230
         H           -0.423477784620    -0.797907119290     1.500167289672     1.007825032230
         H            2.233441215380    -0.142132119290     1.065018289672     1.007825032230
         H            2.631157215380    -0.059596119290    -0.670206710328     1.007825032230
         H           -2.264636784620    -0.502389119290    -0.139368710328     1.007825032230

  Basis Set: AUG-CC-PVTZ
    Blend: AUG-CC-PVTZ
  Basis Set: (AUG-CC-PVTZ AUX)
    Blend: AUG-CC-PVTZ-JKFIT
	 Reference Energy          =    -379.6732672180364148 [Eh]
	 Singles Energy            =      -0.0000000000000000 [Eh]
	 Same-Spin Energy          =      -0.3696750562721293 [Eh]
	 Opposite-Spin Energy      =      -1.1402808436571559 [Eh]
	 Correlation Energy        =      -1.5099558999292850 [Eh]
	 Total Energy              =    -381.1832231179657242 [Eh]

	 ================> DF-SCS-MP2 Energies <==================
	-----------------------------------------------------------
	 SCS Same-Spin Scale       =       0.3333333333333333 [-]
	 SCS Opposite-Spin Scale   =       1.2000000000000000 [-]
	 SCS Same-Spin Energy      =      -0.1232250187573764 [Eh]
	 SCS Opposite-Spin Energy  =      -1.3683370123885870 [Eh]
	 SCS Correlation Energy    =      -1.4915620311459634 [Eh]
	 SCS Total Energy          =    -381.1648292491823895 [Eh]
	-----------------------------------------------------------

  Dipole Moment: [D]
     X:     3.1313      Y:    -2.7537      Z:     1.0305     Total:     4.2953

*** Psi4 exiting successfully. Buy a developer a beer!
