                               Psi4 1.3.2 release

  ==> Input File <==

--------------------------------------------------------------------------
#psi4
#
memory 32 gb

molecule  {
0 1
  O        1.0390102     1.1520300     0.0481911
  O       -1.6389080    -1.2036290    -0.1576800
  O       -1.2230690     1.6022640    -0.0675910
  C        0.8143200    -1.2427870    -0.1986520
  C       -0.4577570    -0.6687040     0.3963640
  C        1.7925350    -0.0950530     0.0479070
  C       -0.3121170     0.8099600     0.0626390
  H        0.6529500    -1.3959670    -1.2698370
  H        1.1362240    -2.1837260     0.2527190
  H       -0.4482060    -0.7692910     1.4955050
  H        2.2087130    -0.1135160     1.0603560
  H        2.6064290    -0.0309800    -0.6748690
  H       -2.2893650    -0.4737730    -0.1440310
units angstrom
no_reorient  #important for SAPT in psi4, default
symmetry c1  #important for SAPT in psi4, default
}

set PROPERTIES_ORIGIN ["COM"]
properties('MP2/aug-cc-pvtz', properties = ['dipole'])
--------------------------------------------------------------------------

    Molecular point group: c1
  Charge       = 0
  Multiplicity = 1
  Basis Set: AUG-CC-PVTZ
    Blend: AUG-CC-PVTZ
  Basis Set: (AUG-CC-PVTZ AUX)
    Blend: AUG-CC-PVTZ-JKFIT

    Orbital Energies [Eh]
    ---------------------

    Doubly Occupied:

       1A    -20.617773     2A    -20.582137     3A    -20.566995
       4A    -11.397345     5A    -11.320947     6A    -11.313621
       7A    -11.259902     8A     -1.459350     9A     -1.388248
      10A     -1.372858    11A     -1.093625    12A     -0.984276
      13A     -0.859739    14A     -0.797562    15A     -0.726673
      16A     -0.714974    17A     -0.686748    18A     -0.661560
      19A     -0.622677    20A     -0.599565    21A     -0.582057
      22A     -0.560933    23A     -0.537970    24A     -0.522908
      25A     -0.475817    26A     -0.467268    27A     -0.449308

  @DF-RHF Final Energy:  -379.69454039233307

   => Energetics <=

    Nuclear Repulsion Energy =            316.3082371903237231
    One-Electron Energy =               -1146.7598883284820204
    Two-Electron Energy =                 450.7571107458251731
    Total Energy =                       -379.6945403923330673
  Basis Set: (AUG-CC-PVTZ AUX)
    Blend: AUG-CC-PVTZ-RI
    Molecular point group: c1

    Geometry (in Angstrom), charge = 0, multiplicity = 1:

       Center              X                  Y                   Z               Mass
    ------------   -----------------  -----------------  -----------------  -----------------
         O            1.070543773425     1.098736516889     0.032586204598    15.994914619570
         O           -1.607374426575    -1.256922483111    -0.173284895402    15.994914619570
         O           -1.191535426575     1.548970516889    -0.083195895402    15.994914619570
         C            0.845853573425    -1.296080483111    -0.214256895402    12.000000000000
         C           -0.426223426575    -0.721997483111     0.380759104598    12.000000000000
         C            1.824068573425    -0.148346483111     0.032302104598    12.000000000000
         C           -0.280583426575     0.756666516889     0.047034104598    12.000000000000
         H            0.684483573425    -1.449260483111    -1.285441895402     1.007825032230
         H            1.167757573425    -2.237019483111     0.237114104598     1.007825032230
         H           -0.416672426575    -0.822584483111     1.479900104598     1.007825032230
         H            2.240246573425    -0.166809483111     1.044751104598     1.007825032230
         H            2.637962573425    -0.084273483111    -0.690473895402     1.007825032230
         H           -2.257831426575    -0.527066483111    -0.159635895402     1.007825032230

  Basis Set: AUG-CC-PVTZ
    Blend: AUG-CC-PVTZ
  Basis Set: (AUG-CC-PVTZ AUX)
    Blend: AUG-CC-PVTZ-JKFIT
	 Reference Energy          =    -379.6945403923330673 [Eh]
	 Singles Energy            =      -0.0000000000000000 [Eh]
	 Same-Spin Energy          =      -0.3689383444069776 [Eh]
	 Opposite-Spin Energy      =      -1.1381690421465045 [Eh]
	 Correlation Energy        =      -1.5071073865534821 [Eh]
	 Total Energy              =    -381.2016477788865245 [Eh]

	 ================> DF-SCS-MP2 Energies <==================
	-----------------------------------------------------------
	 SCS Same-Spin Scale       =       0.3333333333333333 [-]
	 SCS Opposite-Spin Scale   =       1.2000000000000000 [-]
	 SCS Same-Spin Energy      =      -0.1229794481356592 [Eh]
	 SCS Opposite-Spin Energy  =      -1.3658028505758053 [Eh]
	 SCS Correlation Energy    =      -1.4887822987114645 [Eh]
	 SCS Total Energy          =    -381.1833226910445092 [Eh]
	-----------------------------------------------------------

  Dipole Moment: [D]
     X:     2.4395      Y:    -2.3006      Z:     0.8157     Total:     3.4510

*** Psi4 exiting successfully. Buy a developer a beer!
