                               Psi4 1.3.2 release

  ==> Input File <==

--------------------------------------------------------------------------
#psi4
#
memory 32 gb

molecule  {
0 1
  O        1.0008990     1.1197090    -0.0959030
  O       -1.6389080    -1.2036290    -0.1576800
  O       -1.2230690     1.6022640    -0.0675910
  C        0.8143200    -1.2427870    -0.1986520
  C       -0.4156774    -0.7566363     0.3828119
  C        1.7925350    -0.0950530     0.0479070
  C       -0.3121170     0.8099600     0.0626390
  H        0.6529500    -1.3959670    -1.2698370
  H        1.1362240    -2.1837260     0.2527190
  H       -0.4482060    -0.7692910     1.4955050
  H        2.2087130    -0.1135160     1.0603560
  H        2.6064290    -0.0309800    -0.6748690
  H       -2.2893650    -0.4737730    -0.1440310
units angstrom
no_reorient  #important for SAPT in psi4, default
symmetry c1  #important for SAPT in psi4, default
}

set PROPERTIES_ORIGIN ["COM"]
properties('MP2/aug-cc-pvtz', properties = ['dipole'])
--------------------------------------------------------------------------

    Molecular point group: c1
  Charge       = 0
  Multiplicity = 1
  Basis Set: AUG-CC-PVTZ
    Blend: AUG-CC-PVTZ
  Basis Set: (AUG-CC-PVTZ AUX)
    Blend: AUG-CC-PVTZ-JKFIT

    Orbital Energies [Eh]
    ---------------------

    Doubly Occupied:

       1A    -20.619349     2A    -20.577681     3A    -20.560258
       4A    -11.391966     5A    -11.321780     6A    -11.319373
       7A    -11.257183     8A     -1.467003     9A     -1.384736
      10A     -1.369644    11A     -1.105686    12A     -0.981514
      13A     -0.855675    14A     -0.798427    15A     -0.733036
      16A     -0.718223    17A     -0.685394    18A     -0.658770
      19A     -0.621715    20A     -0.607983    21A     -0.588056
      22A     -0.553573    23A     -0.536337    24A     -0.523753
      25A     -0.482213    26A     -0.468285    27A     -0.431924

  @DF-RHF Final Energy:  -379.69128023191922

   => Energetics <=

    Nuclear Repulsion Energy =            317.0375298897628227
    One-Electron Energy =               -1148.2185446131231856
    Two-Electron Energy =                 451.4897344914411406
    Total Energy =                       -379.6912802319192224
  Basis Set: (AUG-CC-PVTZ AUX)
    Blend: AUG-CC-PVTZ-RI
    Molecular point group: c1

    Geometry (in Angstrom), charge = 0, multiplicity = 1:

       Center              X                  Y                   Z               Mass
    ------------   -----------------  -----------------  -----------------  -----------------
         O            1.033458040962     1.081824054893    -0.087325232851    15.994914619570
         O           -1.606348959038    -1.241513945107    -0.149102232851    15.994914619570
         O           -1.190509959038     1.564379054893    -0.059013232851    15.994914619570
         C            0.846879040962    -1.280671945107    -0.190074232851    12.000000000000
         C           -0.383118359038    -0.794521245107     0.391389667149    12.000000000000
         C            1.825094040962    -0.132937945107     0.056484767149    12.000000000000
         C           -0.279557959038     0.772075054893     0.071216767149    12.000000000000
         H            0.685509040962    -1.433851945107    -1.261259232851     1.007825032230
         H            1.168783040962    -2.221610945107     0.261296767149     1.007825032230
         H           -0.415646959038    -0.807175945107     1.504082767149     1.007825032230
         H            2.241272040962    -0.151400945107     1.068933767149     1.007825032230
         H            2.638988040962    -0.068864945107    -0.666291232851     1.007825032230
         H           -2.256805959038    -0.511657945107    -0.135453232851     1.007825032230

  Basis Set: AUG-CC-PVTZ
    Blend: AUG-CC-PVTZ
  Basis Set: (AUG-CC-PVTZ AUX)
    Blend: AUG-CC-PVTZ-JKFIT
	 Reference Energy          =    -379.6912802319192224 [Eh]
	 Singles Energy            =      -0.0000000000000000 [Eh]
	 Same-Spin Energy          =      -0.3690728789832745 [Eh]
	 Opposite-Spin Energy      =      -1.1369615878920420 [Eh]
	 Correlation Energy        =      -1.5060344668753165 [Eh]
	 Total Energy              =    -381.1973146987945142 [Eh]

	 ================> DF-SCS-MP2 Energies <==================
	-----------------------------------------------------------
	 SCS Same-Spin Scale       =       0.3333333333333333 [-]
	 SCS Opposite-Spin Scale   =       1.2000000000000000 [-]
	 SCS Same-Spin Energy      =      -0.1230242929944248 [Eh]
	 SCS Opposite-Spin Energy  =      -1.3643539054704503 [Eh]
	 SCS Correlation Energy    =      -1.4873781984648751 [Eh]
	 SCS Total Energy          =    -381.1786584303840755 [Eh]
	-----------------------------------------------------------

  Dipole Moment: [D]
     X:     2.7817      Y:    -2.2625      Z:     0.9325     Total:     3.7049

*** Psi4 exiting successfully. Buy a developer a beer!
