                               Psi4 1.3.2 release

  ==> Input File <==

--------------------------------------------------------------------------
#psi4
#
memory 32 gb

molecule  {
0 1
  O        1.0008990     1.1197090    -0.0959030
  O       -1.6389080    -1.2036290    -0.1576800
  O       -1.2230690     1.6022640    -0.0675910
  C        0.8143200    -1.2427870    -0.1986520
  C       -0.6252908    -0.7445775     0.3177787
  C        1.7925350    -0.0950530     0.0479070
  C       -0.3121170     0.8099600     0.0626390
  H        0.6529500    -1.3959670    -1.2698370
  H        1.1362240    -2.1837260     0.2527190
  H       -0.4482060    -0.7692910     1.4955050
  H        2.2087130    -0.1135160     1.0603560
  H        2.6064290    -0.0309800    -0.6748690
  H       -2.2893650    -0.4737730    -0.1440310
units angstrom
no_reorient  #important for SAPT in psi4, default
symmetry c1  #important for SAPT in psi4, default
}

set PROPERTIES_ORIGIN ["COM"]
properties('MP2/aug-cc-pvtz', properties = ['dipole'])
--------------------------------------------------------------------------

    Molecular point group: c1
  Charge       = 0
  Multiplicity = 1
  Basis Set: AUG-CC-PVTZ
    Blend: AUG-CC-PVTZ
  Basis Set: (AUG-CC-PVTZ AUX)
    Blend: AUG-CC-PVTZ-JKFIT

    Orbital Energies [Eh]
    ---------------------

    Doubly Occupied:

       1A    -20.618942     2A    -20.604306     3A    -20.553124
       4A    -11.385167     5A    -11.329850     6A    -11.313941
       7A    -11.254061     8A     -1.499894     9A     -1.456926
      10A     -1.369392    11A     -1.067541    12A     -0.970893
      13A     -0.851116    14A     -0.833375    15A     -0.737501
      16A     -0.728261    17A     -0.693078    18A     -0.666476
      19A     -0.656168    20A     -0.613421    21A     -0.593439
      22A     -0.549750    23A     -0.538516    24A     -0.523054
      25A     -0.464945    26A     -0.434734    27A     -0.415729

  @DF-RHF Final Energy:  -379.65253116929904

   => Energetics <=

    Nuclear Repulsion Energy =            317.6324044923306928
    One-Electron Energy =               -1149.1226766570121072
    Two-Electron Energy =                 451.8377409953823758
    Total Energy =                       -379.6525311692990385
  Basis Set: (AUG-CC-PVTZ AUX)
    Blend: AUG-CC-PVTZ-RI
    Molecular point group: c1

    Geometry (in Angstrom), charge = 0, multiplicity = 1:

       Center              X                  Y                   Z               Mass
    ------------   -----------------  -----------------  -----------------  -----------------
         O            1.058110780715     1.080405813225    -0.079676644761    15.994914619570
         O           -1.581696219285    -1.242932186775    -0.141453644761    15.994914619570
         O           -1.165857219285     1.562960813225    -0.051364644761    15.994914619570
         C            0.871531780715    -1.282090186775    -0.182425644761    12.000000000000
         C           -0.568079019285    -0.783880686775     0.334005055239    12.000000000000
         C            1.849746780715    -0.134356186775     0.064133355239    12.000000000000
         C           -0.254905219285     0.770656813225     0.078865355239    12.000000000000
         H            0.710161780715    -1.435270186775    -1.253610644761     1.007825032230
         H            1.193435780715    -2.223029186775     0.268945355239     1.007825032230
         H           -0.390994219285    -0.808594186775     1.511731355239     1.007825032230
         H            2.265924780715    -0.152819186775     1.076582355239     1.007825032230
         H            2.663640780715    -0.070283186775    -0.658642644761     1.007825032230
         H           -2.232153219285    -0.513076186775    -0.127804644761     1.007825032230

  Basis Set: AUG-CC-PVTZ
    Blend: AUG-CC-PVTZ
  Basis Set: (AUG-CC-PVTZ AUX)
    Blend: AUG-CC-PVTZ-JKFIT
	 Reference Energy          =    -379.6525311692990385 [Eh]
	 Singles Energy            =      -0.0000000000000000 [Eh]
	 Same-Spin Energy          =      -0.3690629455794007 [Eh]
	 Opposite-Spin Energy      =      -1.1352131627517643 [Eh]
	 Correlation Energy        =      -1.5042761083311651 [Eh]
	 Total Energy              =    -381.1568072776302074 [Eh]

	 ================> DF-SCS-MP2 Energies <==================
	-----------------------------------------------------------
	 SCS Same-Spin Scale       =       0.3333333333333333 [-]
	 SCS Opposite-Spin Scale   =       1.2000000000000000 [-]
	 SCS Same-Spin Energy      =      -0.1230209818598002 [Eh]
	 SCS Opposite-Spin Energy  =      -1.3622557953021170 [Eh]
	 SCS Correlation Energy    =      -1.4852767771619173 [Eh]
	 SCS Total Energy          =    -381.1378079464609527 [Eh]
	-----------------------------------------------------------

  Dipole Moment: [D]
     X:     1.9139      Y:    -2.5397      Z:     0.5784     Total:     3.2323

*** Psi4 exiting successfully. Buy a developer a beer!
