                               Psi4 1.3.2 release

  ==> Input File <==

--------------------------------------------------------------------------
#psi4
#
memory 32 gb

molecule  {
0 1
  O        1.0008990     1.1197090    -0.0959030
  O       -1.6389080    -1.2036290    -0.1576800
  O       -1.2230690     1.6022640    -0.0675910
  C        0.8143200    -1.2427870    -0.1986520
  C       -0.5315943    -0.5418224     0.4116139
  C        1.7925350    -0.0950530     0.0479070
  C       -0.3121170     0.8099600     0.0626390
  H        0.6529500    -1.3959670    -1.2698370
  H        1.1362240    -2.1837260     0.2527190
  H       -0.4482060    -0.7692910     1.4955050
  H        2.2087130    -0.1135160     1.0603560
  H        2.6064290    -0.0309800    -0.6748690
  H       -2.2893650    -0.4737730    -0.1440310
units angstrom
no_reorient  #important for SAPT in psi4, default
symmetry c1  #important for SAPT in psi4, default
}

set PROPERTIES_ORIGIN ["COM"]
properties('MP2/aug-cc-pvtz', properties = ['dipole'])
--------------------------------------------------------------------------

    Molecular point group: c1
  Charge       = 0
  Multiplicity = 1
  Basis Set: AUG-CC-PVTZ
    Blend: AUG-CC-PVTZ
  Basis Set: (AUG-CC-PVTZ AUX)
    Blend: AUG-CC-PVTZ-JKFIT

    Orbital Energies [Eh]
    ---------------------

    Doubly Occupied:

       1A    -20.621505     2A    -20.587775     3A    -20.558414
       4A    -11.390411     5A    -11.318012     6A    -11.314460
       7A    -11.261851     8A     -1.473380     9A     -1.395061
      10A     -1.372214    11A     -1.080999    12A     -1.002637
      13A     -0.869847    14A     -0.795414    15A     -0.736588
      16A     -0.709394    17A     -0.693897    18A     -0.657648
      19A     -0.624601    20A     -0.605194    21A     -0.580697
      22A     -0.561481    23A     -0.534270    24A     -0.522563
      25A     -0.469699    26A     -0.463611    27A     -0.447896

  @DF-RHF Final Energy:  -379.67964835025441

   => Energetics <=

    Nuclear Repulsion Energy =            318.0556524067043824
    One-Electron Energy =               -1150.1715702629403495
    Two-Electron Energy =                 452.4362695059814996
    Total Energy =                       -379.6796483502544106
  Basis Set: (AUG-CC-PVTZ AUX)
    Blend: AUG-CC-PVTZ-RI
    Molecular point group: c1

    Geometry (in Angstrom), charge = 0, multiplicity = 1:

       Center              X                  Y                   Z               Mass
    ------------   -----------------  -----------------  -----------------  -----------------
         O            1.047091087173     1.056559681661    -0.090712650881    15.994914619570
         O           -1.592715912827    -1.266778318339    -0.152489650881    15.994914619570
         O           -1.176876912827     1.539114681661    -0.062400650881    15.994914619570
         C            0.860512087173    -1.305936318339    -0.193461650881    12.000000000000
         C           -0.485402212827    -0.604971718339     0.416804249119    12.000000000000
         C            1.838727087173    -0.158202318339     0.053097349119    12.000000000000
         C           -0.265924912827     0.746810681661     0.067829349119    12.000000000000
         H            0.699142087173    -1.459116318339    -1.264646650881     1.007825032230
         H            1.182416087173    -2.246875318339     0.257909349119     1.007825032230
         H           -0.402013912827    -0.832440318339     1.500695349119     1.007825032230
         H            2.254905087173    -0.176665318339     1.065546349119     1.007825032230
         H            2.652621087173    -0.094129318339    -0.669678650881     1.007825032230
         H           -2.243172912827    -0.536922318339    -0.138840650881     1.007825032230

  Basis Set: AUG-CC-PVTZ
    Blend: AUG-CC-PVTZ
  Basis Set: (AUG-CC-PVTZ AUX)
    Blend: AUG-CC-PVTZ-JKFIT
	 Reference Energy          =    -379.6796483502544106 [Eh]
	 Singles Energy            =      -0.0000000000000000 [Eh]
	 Same-Spin Energy          =      -0.3693342617308579 [Eh]
	 Opposite-Spin Energy      =      -1.1388242544397849 [Eh]
	 Correlation Energy        =      -1.5081585161706428 [Eh]
	 Total Energy              =    -381.1878068664250350 [Eh]

	 ================> DF-SCS-MP2 Energies <==================
	-----------------------------------------------------------
	 SCS Same-Spin Scale       =       0.3333333333333333 [-]
	 SCS Opposite-Spin Scale   =       1.2000000000000000 [-]
	 SCS Same-Spin Energy      =      -0.1231114205769526 [Eh]
	 SCS Opposite-Spin Energy  =      -1.3665891053277417 [Eh]
	 SCS Correlation Energy    =      -1.4897005259046943 [Eh]
	 SCS Total Energy          =    -381.1693488761591198 [Eh]
	-----------------------------------------------------------

  Dipole Moment: [D]
     X:     2.5473      Y:    -2.3508      Z:     1.0255     Total:     3.6147

*** Psi4 exiting successfully. Buy a developer a beer!
