                               Psi4 1.3.2 release

  ==> Input File <==

--------------------------------------------------------------------------
#psi4
#
memory 32 gb

molecule  {
0 1
  O        1.0008990     1.1197090    -0.0959030
  O       -1.6389080    -1.2036290    -0.1576800
  O       -1.2230690     1.6022640    -0.0675910
  C        0.8143200    -1.2427870    -0.1986520
  C       -0.4577570    -0.6687040     0.3963640
  C        1.7925350    -0.0950530     0.0479070
  C       -0.2370987     0.7447125     0.0733636
  H        0.6529500    -1.3959670    -1.2698370
  H        1.1362240    -2.1837260     0.2527190
  H       -0.4482060    -0.7692910     1.4955050
  H        2.2087130    -0.1135160     1.0603560
  H        2.6064290    -0.0309800    -0.6748690
  H       -2.2893650    -0.4737730    -0.1440310
units angstrom
no_reorient  #important for SAPT in psi4, default
symmetry c1  #important for SAPT in psi4, default
}

set PROPERTIES_ORIGIN ["COM"]
properties('MP2/aug-cc-pvtz', properties = ['dipole'])
--------------------------------------------------------------------------

    Molecular point group: c1
  Charge       = 0
  Multiplicity = 1
  Basis Set: AUG-CC-PVTZ
    Blend: AUG-CC-PVTZ
  Basis Set: (AUG-CC-PVTZ AUX)
    Blend: AUG-CC-PVTZ-JKFIT

    Orbital Energies [Eh]
    ---------------------

    Doubly Occupied:

       1A    -20.641934     2A    -20.584098     3A    -20.540653
       4A    -11.398469     5A    -11.326456     6A    -11.322153
       7A    -11.265832     8A     -1.496339     9A     -1.389886
      10A     -1.311100    11A     -1.111004    12A     -1.003574
      13A     -0.876598    14A     -0.809054    15A     -0.747427
      16A     -0.716334    17A     -0.695704    18A     -0.665489
      19A     -0.608267    20A     -0.598812    21A     -0.590462
      22A     -0.559731    23A     -0.536924    24A     -0.518542
      25A     -0.479376    26A     -0.444990    27A     -0.444557

  @DF-RHF Final Energy:  -379.67583748713128

   => Energetics <=

    Nuclear Repulsion Energy =            317.9908894617167903
    One-Electron Energy =               -1149.9659243474065988
    Two-Electron Energy =                 452.2991973985585901
    Total Energy =                       -379.6758374871312753
  Basis Set: (AUG-CC-PVTZ AUX)
    Blend: AUG-CC-PVTZ-RI
    Molecular point group: c1

    Geometry (in Angstrom), charge = 0, multiplicity = 1:

       Center              X                  Y                   Z               Mass
    ------------   -----------------  -----------------  -----------------  -----------------
         O            1.029584103519     1.079156083901    -0.090180428021    15.994914619570
         O           -1.610222896481    -1.244181916099    -0.151957428021    15.994914619570
         O           -1.194383896481     1.561711083901    -0.061868428021    15.994914619570
         C            0.843005103519    -1.283339916099    -0.192929428021    12.000000000000
         C           -0.429071896481    -0.709256916099     0.402086571979    12.000000000000
         C            1.821220103519    -0.135605916099     0.053629571979    12.000000000000
         C           -0.208413596481     0.704159583901     0.079086171979    12.000000000000
         H            0.681635103519    -1.436519916099    -1.264114428021     1.007825032230
         H            1.164909103519    -2.224278916099     0.258441571979     1.007825032230
         H           -0.419520896481    -0.809843916099     1.501227571979     1.007825032230
         H            2.237398103519    -0.154068916099     1.066078571979     1.007825032230
         H            2.635114103519    -0.071532916099    -0.669146428021     1.007825032230
         H           -2.260679896481    -0.514325916099    -0.138308428021     1.007825032230

  Basis Set: AUG-CC-PVTZ
    Blend: AUG-CC-PVTZ
  Basis Set: (AUG-CC-PVTZ AUX)
    Blend: AUG-CC-PVTZ-JKFIT
	 Reference Energy          =    -379.6758374871312753 [Eh]
	 Singles Energy            =      -0.0000000000000000 [Eh]
	 Same-Spin Energy          =      -0.3710440624399740 [Eh]
	 Opposite-Spin Energy      =      -1.1413035354736305 [Eh]
	 Correlation Energy        =      -1.5123475979136045 [Eh]
	 Total Energy              =    -381.1881850850448927 [Eh]

	 ================> DF-SCS-MP2 Energies <==================
	-----------------------------------------------------------
	 SCS Same-Spin Scale       =       0.3333333333333333 [-]
	 SCS Opposite-Spin Scale   =       1.2000000000000000 [-]
	 SCS Same-Spin Energy      =      -0.1236813541466580 [Eh]
	 SCS Opposite-Spin Energy  =      -1.3695642425683565 [Eh]
	 SCS Correlation Energy    =      -1.4932455967150144 [Eh]
	 SCS Total Energy          =    -381.1690830838463171 [Eh]
	-----------------------------------------------------------

  Dipole Moment: [D]
     X:     3.3623      Y:    -2.6969      Z:     1.0141     Total:     4.4280

*** Psi4 exiting successfully. Buy a developer a beer!
