                               Psi4 1.3.2 release

  ==> Input File <==

--------------------------------------------------------------------------
#psi4
#
memory 32 gb

molecule  {
0 1
  O        0.9953805     1.1130165    -0.1198080
  O       -1.6389080    -1.2036290    -0.1576800
  O       -1.2230690     1.6022640    -0.0675910
  C        0.8143200    -1.2427870    -0.1986520
  C       -0.4577570    -0.6687040     0.3963640
  C        1.7925350    -0.0950530     0.0479070
  C       -0.3121170     0.8099600     0.0626390
  H        0.6529500    -1.3959670    -1.2698370
  H        1.1362240    -2.1837260     0.2527190
  H       -0.4482060    -0.7692910     1.4955050
  H        2.2087130    -0.1135160     1.0603560
  H        2.6064290    -0.0309800    -0.6748690
  H       -2.2893650    -0.4737730    -0.1440310
units angstrom
no_reorient  #important for SAPT in psi4, default
symmetry c1  #important for SAPT in psi4, default
}

set PROPERTIES_ORIGIN ["COM"]
properties('MP2/aug-cc-pvtz', properties = ['dipole'])
--------------------------------------------------------------------------

    Molecular point group: c1
  Charge       = 0
  Multiplicity = 1
  Basis Set: AUG-CC-PVTZ
    Blend: AUG-CC-PVTZ
  Basis Set: (AUG-CC-PVTZ AUX)
    Blend: AUG-CC-PVTZ-JKFIT

    Orbital Energies [Eh]
    ---------------------

    Doubly Occupied:

       1A    -20.620680     2A    -20.580939     3A    -20.559295
       4A    -11.392139     5A    -11.318261     6A    -11.317652
       7A    -11.258673     8A     -1.471102     9A     -1.388338
      10A     -1.370522    11A     -1.093472    12A     -0.988647
      13A     -0.862386    14A     -0.797515    15A     -0.735793
      16A     -0.713890    17A     -0.689082    18A     -0.657801
      19A     -0.622296    20A     -0.605226    21A     -0.582238
      22A     -0.560052    23A     -0.535093    24A     -0.523815
      25A     -0.474912    26A     -0.468522    27A     -0.446539

  @DF-RHF Final Energy:  -379.70097627186550

   => Energetics <=

    Nuclear Repulsion Energy =            317.6200608856988197
    One-Electron Energy =               -1149.3723108023266377
    Two-Electron Energy =                 452.0512736447622615
    Total Energy =                       -379.7009762718654997
  Basis Set: (AUG-CC-PVTZ AUX)
    Blend: AUG-CC-PVTZ-RI
    Molecular point group: c1

    Geometry (in Angstrom), charge = 0, multiplicity = 1:

       Center              X                  Y                   Z               Mass
    ------------   -----------------  -----------------  -----------------  -----------------
         O            1.033753647470     1.065838936137    -0.109076654632    15.994914619570
         O           -1.600534852530    -1.250806563863    -0.146948654632    15.994914619570
         O           -1.184695852530     1.555086436137    -0.056859654632    15.994914619570
         C            0.852693147470    -1.289964563863    -0.187920654632    12.000000000000
         C           -0.419383852530    -0.715881563863     0.407095345368    12.000000000000
         C            1.830908147470    -0.142230563863     0.058638345368    12.000000000000
         C           -0.273743852530     0.762782436137     0.073370345368    12.000000000000
         H            0.691323147470    -1.443144563863    -1.259105654632     1.007825032230
         H            1.174597147470    -2.230903563863     0.263450345368     1.007825032230
         H           -0.409832852530    -0.816468563863     1.506236345368     1.007825032230
         H            2.247086147470    -0.160693563863     1.071087345368     1.007825032230
         H            2.644802147470    -0.078157563863    -0.664137654632     1.007825032230
         H           -2.250991852530    -0.520950563863    -0.133299654632     1.007825032230

  Basis Set: AUG-CC-PVTZ
    Blend: AUG-CC-PVTZ
  Basis Set: (AUG-CC-PVTZ AUX)
    Blend: AUG-CC-PVTZ-JKFIT
	 Reference Energy          =    -379.7009762718654997 [Eh]
	 Singles Energy            =      -0.0000000000000000 [Eh]
	 Same-Spin Energy          =      -0.3683958275223574 [Eh]
	 Opposite-Spin Energy      =      -1.1362927599550399 [Eh]
	 Correlation Energy        =      -1.5046885874773972 [Eh]
	 Total Energy              =    -381.2056648593429031 [Eh]

	 ================> DF-SCS-MP2 Energies <==================
	-----------------------------------------------------------
	 SCS Same-Spin Scale       =       0.3333333333333333 [-]
	 SCS Opposite-Spin Scale   =       1.2000000000000000 [-]
	 SCS Same-Spin Energy      =      -0.1227986091741191 [Eh]
	 SCS Opposite-Spin Energy  =      -1.3635513119460478 [Eh]
	 SCS Correlation Energy    =      -1.4863499211201670 [Eh]
	 SCS Total Energy          =    -381.1873261929856653 [Eh]
	-----------------------------------------------------------

  Dipole Moment: [D]
     X:     2.7250      Y:    -2.2820      Z:     1.0068     Total:     3.6942

*** Psi4 exiting successfully. Buy a developer a beer!
