                               Psi4 1.3.2 release

  ==> Input File <==

--------------------------------------------------------------------------
#psi4
#
memory 32 gb

molecule  {
0 1
  O        0.9948399     1.1421827    -0.1004034
  O       -1.6389080    -1.2036290    -0.1576800
  O       -1.2230690     1.6022640    -0.0675910
  C        0.8143200    -1.2427870    -0.1986520
  C       -0.4577570    -0.6687040     0.3963640
  C        1.7925350    -0.0950530     0.0479070
  C       -0.3121170     0.8099600     0.0626390
  H        0.6529500    -1.3959670    -1.2698370
  H        1.1362240    -2.1837260     0.2527190
  H       -0.4482060    -0.7692910     1.4955050
  H        2.2087130    -0.1135160     1.0603560
  H        2.6064290    -0.0309800    -0.6748690
  H       -2.2893650    -0.4737730    -0.1440310
units angstrom
no_reorient  #important for SAPT in psi4, default
symmetry c1  #important for SAPT in psi4, default
}

set PROPERTIES_ORIGIN ["COM"]
properties('MP2/aug-cc-pvtz', properties = ['dipole'])
--------------------------------------------------------------------------

    Molecular point group: c1
  Charge       = 0
  Multiplicity = 1
  Basis Set: AUG-CC-PVTZ
    Blend: AUG-CC-PVTZ
  Basis Set: (AUG-CC-PVTZ AUX)
    Blend: AUG-CC-PVTZ-JKFIT

    Orbital Energies [Eh]
    ---------------------

    Doubly Occupied:

       1A    -20.620302     2A    -20.581437     3A    -20.558118
       4A    -11.391191     5A    -11.319482     6A    -11.319254
       7A    -11.260152     8A     -1.466009     9A     -1.387351
      10A     -1.368012    11A     -1.095279    12A     -0.985293
      13A     -0.862144    14A     -0.796669    15A     -0.732872
      16A     -0.713302    17A     -0.687948    18A     -0.656401
      19A     -0.619670    20A     -0.605212    21A     -0.581447
      22A     -0.560543    23A     -0.536693    24A     -0.523558
      25A     -0.475354    26A     -0.468281    27A     -0.446809

  @DF-RHF Final Energy:  -379.69955889002767

   => Energetics <=

    Nuclear Repulsion Energy =            317.0164747335930997
    One-Electron Energy =               -1148.1944994321297600
    Two-Electron Energy =                 451.4784658085089859
    Total Energy =                       -379.6995588900276744
  Basis Set: (AUG-CC-PVTZ AUX)
    Blend: AUG-CC-PVTZ-RI
    Molecular point group: c1

    Geometry (in Angstrom), charge = 0, multiplicity = 1:

       Center              X                  Y                   Z               Mass
    ------------   -----------------  -----------------  -----------------  -----------------
         O            1.033297794184     1.090432920776    -0.092714000795    15.994914619570
         O           -1.600450105816    -1.255378779224    -0.149990600795    15.994914619570
         O           -1.184611105816     1.550514220776    -0.059901600795    15.994914619570
         C            0.852777894184    -1.294536779224    -0.190962600795    12.000000000000
         C           -0.419299105816    -0.720453779224     0.404053399205    12.000000000000
         C            1.830992894184    -0.146802779224     0.055596399205    12.000000000000
         C           -0.273659105816     0.758210220776     0.070328399205    12.000000000000
         H            0.691407894184    -1.447716779224    -1.262147600795     1.007825032230
         H            1.174681894184    -2.235475779224     0.260408399205     1.007825032230
         H           -0.409748105816    -0.821040779224     1.503194399205     1.007825032230
         H            2.247170894184    -0.165265779224     1.068045399205     1.007825032230
         H            2.644886894184    -0.082729779224    -0.667179600795     1.007825032230
         H           -2.250907105816    -0.525522779224    -0.136341600795     1.007825032230

  Basis Set: AUG-CC-PVTZ
    Blend: AUG-CC-PVTZ
  Basis Set: (AUG-CC-PVTZ AUX)
    Blend: AUG-CC-PVTZ-JKFIT
	 Reference Energy          =    -379.6995588900276744 [Eh]
	 Singles Energy            =      -0.0000000000000000 [Eh]
	 Same-Spin Energy          =      -0.3685278876679532 [Eh]
	 Opposite-Spin Energy      =      -1.1370066595298038 [Eh]
	 Correlation Energy        =      -1.5055345471977570 [Eh]
	 Total Energy              =    -381.2050934372254574 [Eh]

	 ================> DF-SCS-MP2 Energies <==================
	-----------------------------------------------------------
	 SCS Same-Spin Scale       =       0.3333333333333333 [-]
	 SCS Opposite-Spin Scale   =       1.2000000000000000 [-]
	 SCS Same-Spin Energy      =      -0.1228426292226511 [Eh]
	 SCS Opposite-Spin Energy  =      -1.3644079914357645 [Eh]
	 SCS Correlation Energy    =      -1.4872506206584155 [Eh]
	 SCS Total Energy          =    -381.1868095106860892 [Eh]
	-----------------------------------------------------------

  Dipole Moment: [D]
     X:     2.7280      Y:    -2.3634      Z:     0.9915     Total:     3.7431

*** Psi4 exiting successfully. Buy a developer a beer!
