                               Psi4 1.3.2 release

  ==> Input File <==

--------------------------------------------------------------------------
#psi4
#
memory 32 gb

molecule  {
0 1
  O        1.0253666     1.1427600     0.0000819
  O       -1.6389080    -1.2036290    -0.1576800
  O       -1.2230690     1.6022640    -0.0675910
  C        0.8143200    -1.2427870    -0.1986520
  C       -0.4577570    -0.6687040     0.3963640
  C        1.7925350    -0.0950530     0.0479070
  C       -0.3121170     0.8099600     0.0626390
  H        0.6529500    -1.3959670    -1.2698370
  H        1.1362240    -2.1837260     0.2527190
  H       -0.4482060    -0.7692910     1.4955050
  H        2.2087130    -0.1135160     1.0603560
  H        2.6064290    -0.0309800    -0.6748690
  H       -2.2893650    -0.4737730    -0.1440310
units angstrom
no_reorient  #important for SAPT in psi4, default
symmetry c1  #important for SAPT in psi4, default
}

set PROPERTIES_ORIGIN ["COM"]
properties('MP2/aug-cc-pvtz', properties = ['dipole'])
--------------------------------------------------------------------------

    Molecular point group: c1
  Charge       = 0
  Multiplicity = 1
  Basis Set: AUG-CC-PVTZ
    Blend: AUG-CC-PVTZ
  Basis Set: (AUG-CC-PVTZ AUX)
    Blend: AUG-CC-PVTZ-JKFIT

    Orbital Energies [Eh]
    ---------------------

    Doubly Occupied:

       1A    -20.618827     2A    -20.581687     3A    -20.564173
       4A    -11.395519     5A    -11.320082     6A    -11.315019
       7A    -11.259645     8A     -1.463149     9A     -1.388386
      10A     -1.372039    11A     -1.093691    12A     -0.985753
      13A     -0.860803    14A     -0.797504    15A     -0.729211
      16A     -0.714888    17A     -0.687444    18A     -0.660804
      19A     -0.622510    20A     -0.601488    21A     -0.582287
      22A     -0.560681    23A     -0.537264    24A     -0.522905
      25A     -0.475493    26A     -0.467824    27A     -0.448492

  @DF-RHF Final Energy:  -379.69768267805608

   => Energetics <=

    Nuclear Repulsion Energy =            316.7329167274098154
    One-Electron Energy =               -1147.6060634413756816
    Two-Electron Energy =                 451.1754640359097834
    Total Energy =                       -379.6976826780560828
  Basis Set: (AUG-CC-PVTZ AUX)
    Blend: AUG-CC-PVTZ-RI
    Molecular point group: c1

    Geometry (in Angstrom), charge = 0, multiplicity = 1:

       Center              X                  Y                   Z               Mass
    ------------   -----------------  -----------------  -----------------  -----------------
         O            1.059039001160     1.090919720817    -0.007981196223    15.994914619570
         O           -1.605235598840    -1.255469279183    -0.165743096223    15.994914619570
         O           -1.189396598840     1.550423720817    -0.075654096223    15.994914619570
         C            0.847992401160    -1.294627279183    -0.206715096223    12.000000000000
         C           -0.424084598840    -0.720544279183     0.388300903777    12.000000000000
         C            1.826207401160    -0.146893279183     0.039843903777    12.000000000000
         C           -0.278444598840     0.758119720817     0.054575903777    12.000000000000
         H            0.686622401160    -1.447807279183    -1.277900096223     1.007825032230
         H            1.169896401160    -2.235566279183     0.244655903777     1.007825032230
         H           -0.414533598840    -0.821131279183     1.487441903777     1.007825032230
         H            2.242385401160    -0.165356279183     1.052292903777     1.007825032230
         H            2.640101401160    -0.082820279183    -0.682932096223     1.007825032230
         H           -2.255692598840    -0.525613279183    -0.152094096223     1.007825032230

  Basis Set: AUG-CC-PVTZ
    Blend: AUG-CC-PVTZ
  Basis Set: (AUG-CC-PVTZ AUX)
    Blend: AUG-CC-PVTZ-JKFIT
	 Reference Energy          =    -379.6976826780560828 [Eh]
	 Singles Energy            =      -0.0000000000000000 [Eh]
	 Same-Spin Energy          =      -0.3687075642804737 [Eh]
	 Opposite-Spin Energy      =      -1.1374356852513205 [Eh]
	 Correlation Energy        =      -1.5061432495317941 [Eh]
	 Total Energy              =    -381.2038259275879000 [Eh]

	 ================> DF-SCS-MP2 Energies <==================
	-----------------------------------------------------------
	 SCS Same-Spin Scale       =       0.3333333333333333 [-]
	 SCS Opposite-Spin Scale   =       1.2000000000000000 [-]
	 SCS Same-Spin Energy      =      -0.1229025214268246 [Eh]
	 SCS Opposite-Spin Energy  =      -1.3649228223015846 [Eh]
	 SCS Correlation Energy    =      -1.4878253437284092 [Eh]
	 SCS Total Energy          =    -381.1855080217844716 [Eh]
	-----------------------------------------------------------

  Dipole Moment: [D]
     X:     2.5407      Y:    -2.3028      Z:     0.8721     Total:     3.5382

*** Psi4 exiting successfully. Buy a developer a beer!
