                               Psi4 1.3.2 release

  ==> Input File <==

--------------------------------------------------------------------------
#psi4
#
memory 32 gb

molecule  {
0 1
  O        1.0008990     1.1197090    -0.0959030
  O       -1.6389080    -1.2036290    -0.1576800
  O       -1.2230690     1.6022640    -0.0675910
  C        0.8143200    -1.2427870    -0.1986520
  C       -0.4690001    -0.6693898     0.3724000
  C        1.7925350    -0.0950530     0.0479070
  C       -0.3121170     0.8099600     0.0626390
  H        0.6529500    -1.3959670    -1.2698370
  H        1.1362240    -2.1837260     0.2527190
  H       -0.4482060    -0.7692910     1.4955050
  H        2.2087130    -0.1135160     1.0603560
  H        2.6064290    -0.0309800    -0.6748690
  H       -2.2893650    -0.4737730    -0.1440310
units angstrom
no_reorient  #important for SAPT in psi4, default
symmetry c1  #important for SAPT in psi4, default
}

set PROPERTIES_ORIGIN ["COM"]
properties('MP2/aug-cc-pvtz', properties = ['dipole'])
--------------------------------------------------------------------------

    Molecular point group: c1
  Charge       = 0
  Multiplicity = 1
  Basis Set: AUG-CC-PVTZ
    Blend: AUG-CC-PVTZ
  Basis Set: (AUG-CC-PVTZ AUX)
    Blend: AUG-CC-PVTZ-JKFIT

    Orbital Energies [Eh]
    ---------------------

    Doubly Occupied:

       1A    -20.620462     2A    -20.583053     3A    -20.559547
       4A    -11.392175     5A    -11.319531     6A    -11.317158
       7A    -11.258488     8A     -1.469855     9A     -1.395019
      10A     -1.372117    11A     -1.092864    12A     -0.987746
      13A     -0.861734    14A     -0.798899    15A     -0.734085
      16A     -0.716212    17A     -0.689367    18A     -0.656985
      19A     -0.623901    20A     -0.603972    21A     -0.586342
      22A     -0.561566    23A     -0.535430    24A     -0.524396
      25A     -0.471099    26A     -0.468312    27A     -0.445890

  @DF-RHF Final Energy:  -379.70053535246075

   => Energetics <=

    Nuclear Repulsion Energy =            317.6818815464835666
    One-Electron Energy =               -1149.4724267791746115
    Two-Electron Energy =                 452.0900098802303546
    Total Energy =                       -379.7005353524607472
  Basis Set: (AUG-CC-PVTZ AUX)
    Blend: AUG-CC-PVTZ-RI
    Molecular point group: c1

    Geometry (in Angstrom), charge = 0, multiplicity = 1:

       Center              X                  Y                   Z               Mass
    ------------   -----------------  -----------------  -----------------  -----------------
         O            1.039729351127     1.071562949168    -0.086100683939    15.994914619570
         O           -1.600077648873    -1.251775050832    -0.147877683939    15.994914619570
         O           -1.184238648873     1.554117949168    -0.057788683939    15.994914619570
         C            0.853150351127    -1.290933050832    -0.188849683939    12.000000000000
         C           -0.430169748873    -0.717535850832     0.382202316061    12.000000000000
         C            1.831365351127    -0.143199050832     0.057709316061    12.000000000000
         C           -0.273286648873     0.761813949168     0.072441316061    12.000000000000
         H            0.691780351127    -1.444113050832    -1.260034683939     1.007825032230
         H            1.175054351127    -2.231872050832     0.262521316061     1.007825032230
         H           -0.409375648873    -0.817437050832     1.505307316061     1.007825032230
         H            2.247543351127    -0.161662050832     1.070158316061     1.007825032230
         H            2.645259351127    -0.079126050832    -0.665066683939     1.007825032230
         H           -2.250534648873    -0.521919050832    -0.134228683939     1.007825032230

  Basis Set: AUG-CC-PVTZ
    Blend: AUG-CC-PVTZ
  Basis Set: (AUG-CC-PVTZ AUX)
    Blend: AUG-CC-PVTZ-JKFIT
	 Reference Energy          =    -379.7005353524607472 [Eh]
	 Singles Energy            =      -0.0000000000000000 [Eh]
	 Same-Spin Energy          =      -0.3684426926521324 [Eh]
	 Opposite-Spin Energy      =      -1.1361683351383420 [Eh]
	 Correlation Energy        =      -1.5046110277904745 [Eh]
	 Total Energy              =    -381.2051463802512217 [Eh]

	 ================> DF-SCS-MP2 Energies <==================
	-----------------------------------------------------------
	 SCS Same-Spin Scale       =       0.3333333333333333 [-]
	 SCS Opposite-Spin Scale   =       1.2000000000000000 [-]
	 SCS Same-Spin Energy      =      -0.1228142308840441 [Eh]
	 SCS Opposite-Spin Energy  =      -1.3634020021660105 [Eh]
	 SCS Correlation Energy    =      -1.4862162330500546 [Eh]
	 SCS Total Energy          =    -381.1867515855108195 [Eh]
	-----------------------------------------------------------

  Dipole Moment: [D]
     X:     2.6427      Y:    -2.3136      Z:     0.9278     Total:     3.6328

*** Psi4 exiting successfully. Buy a developer a beer!
