                               Psi4 1.3.2 release

  ==> Input File <==

--------------------------------------------------------------------------
#psi4
#
memory 32 gb

molecule  {
0 1
  O        1.0118156     1.0744855    -0.0867586
  O       -1.6389080    -1.2036290    -0.1576800
  O       -1.2230690     1.6022640    -0.0675910
  C        0.8143200    -1.2427870    -0.1986520
  C       -0.4577570    -0.6687040     0.3963640
  C        1.7925350    -0.0950530     0.0479070
  C       -0.3121170     0.8099600     0.0626390
  H        0.6529500    -1.3959670    -1.2698370
  H        1.1362240    -2.1837260     0.2527190
  H       -0.4482060    -0.7692910     1.4955050
  H        2.2087130    -0.1135160     1.0603560
  H        2.6064290    -0.0309800    -0.6748690
  H       -2.2893650    -0.4737730    -0.1440310
units angstrom
no_reorient  #important for SAPT in psi4, default
symmetry c1  #important for SAPT in psi4, default
}

set PROPERTIES_ORIGIN ["COM"]
properties('MP2/aug-cc-pvtz', properties = ['dipole'])
--------------------------------------------------------------------------

    Molecular point group: c1
  Charge       = 0
  Multiplicity = 1
  Basis Set: AUG-CC-PVTZ
    Blend: AUG-CC-PVTZ
  Basis Set: (AUG-CC-PVTZ AUX)
    Blend: AUG-CC-PVTZ-JKFIT

    Orbital Energies [Eh]
    ---------------------

    Doubly Occupied:

       1A    -20.620340     2A    -20.580249     3A    -20.563810
       4A    -11.395790     5A    -11.316786     6A    -11.313254
       7A    -11.256367     8A     -1.478476     9A     -1.391762
      10A     -1.374516    11A     -1.090116    12A     -0.994885
      13A     -0.862596    14A     -0.798851    15A     -0.738213
      16A     -0.716647    17A     -0.690046    18A     -0.663120
      19A     -0.627756    20A     -0.603395    21A     -0.583667
      22A     -0.559688    23A     -0.533163    24A     -0.523102
      25A     -0.474323    26A     -0.467951    27A     -0.446772

  @DF-RHF Final Energy:  -379.70083888385517

   => Energetics <=

    Nuclear Repulsion Energy =            318.3986859192838210
    One-Electron Energy =               -1150.8677615825392877
    Two-Electron Energy =                 452.7682367794002971
    Total Energy =                       -379.7008388838551696
  Basis Set: (AUG-CC-PVTZ AUX)
    Blend: AUG-CC-PVTZ-RI
    Molecular point group: c1

    Geometry (in Angstrom), charge = 0, multiplicity = 1:

       Center              X                  Y                   Z               Mass
    ------------   -----------------  -----------------  -----------------  -----------------
         O            1.047612312532     1.033348216668    -0.081208216647    15.994914619570
         O           -1.603111287468    -1.244766283332    -0.152129616647    15.994914619570
         O           -1.187272287468     1.561126716668    -0.062040616647    15.994914619570
         C            0.850116712532    -1.283924283332    -0.193101616647    12.000000000000
         C           -0.421960287468    -0.709841283332     0.401914383353    12.000000000000
         C            1.828331712532    -0.136190283332     0.053457383353    12.000000000000
         C           -0.276320287468     0.768822716668     0.068189383353    12.000000000000
         H            0.688746712532    -1.437104283332    -1.264286616647     1.007825032230
         H            1.172020712532    -2.224863283332     0.258269383353     1.007825032230
         H           -0.412409287468    -0.810428283332     1.501055383353     1.007825032230
         H            2.244509712532    -0.154653283332     1.065906383353     1.007825032230
         H            2.642225712532    -0.072117283332    -0.669318616647     1.007825032230
         H           -2.253568287468    -0.514910283332    -0.138480616647     1.007825032230

  Basis Set: AUG-CC-PVTZ
    Blend: AUG-CC-PVTZ
  Basis Set: (AUG-CC-PVTZ AUX)
    Blend: AUG-CC-PVTZ-JKFIT
	 Reference Energy          =    -379.7008388838551696 [Eh]
	 Singles Energy            =      -0.0000000000000000 [Eh]
	 Same-Spin Energy          =      -0.3683249313153801 [Eh]
	 Opposite-Spin Energy      =      -1.1354914361577009 [Eh]
	 Correlation Energy        =      -1.5038163674730809 [Eh]
	 Total Energy              =    -381.2046552513282336 [Eh]

	 ================> DF-SCS-MP2 Energies <==================
	-----------------------------------------------------------
	 SCS Same-Spin Scale       =       0.3333333333333333 [-]
	 SCS Opposite-Spin Scale   =       1.2000000000000000 [-]
	 SCS Same-Spin Energy      =      -0.1227749771051267 [Eh]
	 SCS Opposite-Spin Energy  =      -1.3625897233892410 [Eh]
	 SCS Correlation Energy    =      -1.4853647004943678 [Eh]
	 SCS Total Energy          =    -381.1862035843495278 [Eh]
	-----------------------------------------------------------

  Dipole Moment: [D]
     X:     2.6304      Y:    -2.1352      Z:     0.9571     Total:     3.5206

*** Psi4 exiting successfully. Buy a developer a beer!
