                               Psi4 1.3.2 release

  ==> Input File <==

--------------------------------------------------------------------------
#psi4
#
memory 32 gb

molecule  {
0 1
  O        1.0008990     1.1197090    -0.0959030
  O       -1.6389080    -1.2036290    -0.1576800
  O       -1.2089539     1.6175408    -0.0716584
  C        0.8143200    -1.2427870    -0.1986520
  C       -0.4577570    -0.6687040     0.3963640
  C        1.7925350    -0.0950530     0.0479070
  C       -0.3121170     0.8099600     0.0626390
  H        0.6529500    -1.3959670    -1.2698370
  H        1.1362240    -2.1837260     0.2527190
  H       -0.4482060    -0.7692910     1.4955050
  H        2.2087130    -0.1135160     1.0603560
  H        2.6064290    -0.0309800    -0.6748690
  H       -2.2893650    -0.4737730    -0.1440310
units angstrom
no_reorient  #important for SAPT in psi4, default
symmetry c1  #important for SAPT in psi4, default
}

set PROPERTIES_ORIGIN ["COM"]
properties('MP2/aug-cc-pvtz', properties = ['dipole'])
--------------------------------------------------------------------------

    Molecular point group: c1
  Charge       = 0
  Multiplicity = 1
  Basis Set: AUG-CC-PVTZ
    Blend: AUG-CC-PVTZ
  Basis Set: (AUG-CC-PVTZ AUX)
    Blend: AUG-CC-PVTZ-JKFIT

    Orbital Energies [Eh]
    ---------------------

    Doubly Occupied:

       1A    -20.619333     2A    -20.581888     3A    -20.559505
       4A    -11.392327     5A    -11.319634     6A    -11.316821
       7A    -11.259211     8A     -1.469665     9A     -1.388368
      10A     -1.370339    11A     -1.093826    12A     -0.988164
      13A     -0.862388    14A     -0.797722    15A     -0.734463
      16A     -0.714071    17A     -0.688616    18A     -0.658369
      19A     -0.622019    20A     -0.604515    21A     -0.582542
      22A     -0.560601    23A     -0.535426    24A     -0.523520
      25A     -0.475561    26A     -0.467545    27A     -0.447294

  @DF-RHF Final Energy:  -379.70077210683553

   => Energetics <=

    Nuclear Repulsion Energy =            317.3981340557348290
    One-Electron Energy =               -1148.9303525442671798
    Two-Electron Energy =                 451.8314463816968782
    Total Energy =                       -379.7007721068355295
  Basis Set: (AUG-CC-PVTZ AUX)
    Blend: AUG-CC-PVTZ-RI
    Molecular point group: c1

    Geometry (in Angstrom), charge = 0, multiplicity = 1:

       Center              X                  Y                   Z               Mass
    ------------   -----------------  -----------------  -----------------  -----------------
         O            1.036194302310     1.069087436887    -0.088281479684    15.994914619570
         O           -1.603612697690    -1.254250563113    -0.150058479684    15.994914619570
         O           -1.173658597690     1.566919236887    -0.064036879684    15.994914619570
         C            0.849615302310    -1.293408563113    -0.191030479684    12.000000000000
         C           -0.422461697690    -0.719325563113     0.403985520316    12.000000000000
         C            1.827830302310    -0.145674563113     0.055528520316    12.000000000000
         C           -0.276821697690     0.759338436887     0.070260520316    12.000000000000
         H            0.688245302310    -1.446588563113    -1.262215479684     1.007825032230
         H            1.171519302310    -2.234347563113     0.260340520316     1.007825032230
         H           -0.412910697690    -0.819912563113     1.503126520316     1.007825032230
         H            2.244008302310    -0.164137563113     1.067977520316     1.007825032230
         H            2.641724302310    -0.081601563113    -0.667247479684     1.007825032230
         H           -2.254069697690    -0.524394563113    -0.136409479684     1.007825032230

  Basis Set: AUG-CC-PVTZ
    Blend: AUG-CC-PVTZ
  Basis Set: (AUG-CC-PVTZ AUX)
    Blend: AUG-CC-PVTZ-JKFIT
	 Reference Energy          =    -379.7007721068355295 [Eh]
	 Singles Energy            =      -0.0000000000000000 [Eh]
	 Same-Spin Energy          =      -0.3684100361060808 [Eh]
	 Opposite-Spin Energy      =      -1.1364543910540112 [Eh]
	 Correlation Energy        =      -1.5048644271600919 [Eh]
	 Total Energy              =    -381.2056365339956301 [Eh]

	 ================> DF-SCS-MP2 Energies <==================
	-----------------------------------------------------------
	 SCS Same-Spin Scale       =       0.3333333333333333 [-]
	 SCS Opposite-Spin Scale   =       1.2000000000000000 [-]
	 SCS Same-Spin Energy      =      -0.1228033453686936 [Eh]
	 SCS Opposite-Spin Energy  =      -1.3637452692648135 [Eh]
	 SCS Correlation Energy    =      -1.4865486146335072 [Eh]
	 SCS Total Energy          =    -381.1873207214690638 [Eh]
	-----------------------------------------------------------

  Dipole Moment: [D]
     X:     2.6633      Y:    -2.3323      Z:     0.9891     Total:     3.6757

*** Psi4 exiting successfully. Buy a developer a beer!
