                               Psi4 1.3.2 release

  ==> Input File <==

--------------------------------------------------------------------------
#psi4
#
memory 32 gb

molecule  {
0 1
  O        1.0008990     1.1197090    -0.0959030
  O       -1.6389080    -1.2036290    -0.1576800
  O       -1.2230690     1.6022640    -0.0675910
  C        0.8143200    -1.2427870    -0.1986520
  C       -0.4577570    -0.6687040     0.3963640
  C        1.8468662    -0.1784239     0.0577769
  C       -0.3121170     0.8099600     0.0626390
  H        0.6529500    -1.3959670    -1.2698370
  H        1.1362240    -2.1837260     0.2527190
  H       -0.4482060    -0.7692910     1.4955050
  H        2.2087130    -0.1135160     1.0603560
  H        2.6064290    -0.0309800    -0.6748690
  H       -2.2893650    -0.4737730    -0.1440310
units angstrom
no_reorient  #important for SAPT in psi4, default
symmetry c1  #important for SAPT in psi4, default
}

set PROPERTIES_ORIGIN ["COM"]
properties('MP2/aug-cc-pvtz', properties = ['dipole'])
--------------------------------------------------------------------------

    Molecular point group: c1
  Charge       = 0
  Multiplicity = 1
  Basis Set: AUG-CC-PVTZ
    Blend: AUG-CC-PVTZ
  Basis Set: (AUG-CC-PVTZ AUX)
    Blend: AUG-CC-PVTZ-JKFIT

    Orbital Energies [Eh]
    ---------------------

    Doubly Occupied:

       1A    -20.609034     2A    -20.580822     3A    -20.553762
       4A    -11.386261     5A    -11.321984     6A    -11.318458
       7A    -11.261700     8A     -1.450282     9A     -1.383421
      10A     -1.358865    11A     -1.098441    12A     -0.988551
      13A     -0.862515    14A     -0.790373    15A     -0.729257
      16A     -0.711909    17A     -0.682951    18A     -0.655446
      19A     -0.615515    20A     -0.604405    21A     -0.583236
      22A     -0.560039    23A     -0.541587    24A     -0.517935
      25A     -0.475916    26A     -0.466999    27A     -0.441731

  @DF-RHF Final Energy:  -379.69211268632307

   => Energetics <=

    Nuclear Repulsion Energy =            316.0720685280648468
    One-Electron Energy =               -1146.4255744441945808
    Two-Electron Energy =                 450.6613932298066629
    Total Energy =                       -379.6921126863230711
  Basis Set: (AUG-CC-PVTZ AUX)
    Blend: AUG-CC-PVTZ-RI
    Molecular point group: c1

    Geometry (in Angstrom), charge = 0, multiplicity = 1:

       Center              X                  Y                   Z               Mass
    ------------   -----------------  -----------------  -----------------  -----------------
         O            1.032017123987     1.081287586294    -0.090079906315    15.994914619570
         O           -1.607789876013    -1.242050413706    -0.151856906315    15.994914619570
         O           -1.191950876013     1.563842586294    -0.061767906315    15.994914619570
         C            0.845438123987    -1.281208413706    -0.192828906315    12.000000000000
         C           -0.426638876013    -0.707125413706     0.402187093685    12.000000000000
         C            1.877984323987    -0.216845313706     0.063599993685    12.000000000000
         C           -0.280998876013     0.771538586294     0.068462093685    12.000000000000
         H            0.684068123987    -1.434388413706    -1.264013906315     1.007825032230
         H            1.167342123987    -2.222147413706     0.258542093685     1.007825032230
         H           -0.417087876013    -0.807712413706     1.501328093685     1.007825032230
         H            2.239831123987    -0.151937413706     1.066179093685     1.007825032230
         H            2.637547123987    -0.069401413706    -0.669045906315     1.007825032230
         H           -2.258246876013    -0.512194413706    -0.138207906315     1.007825032230

  Basis Set: AUG-CC-PVTZ
    Blend: AUG-CC-PVTZ
  Basis Set: (AUG-CC-PVTZ AUX)
    Blend: AUG-CC-PVTZ-JKFIT
	 Reference Energy          =    -379.6921126863230711 [Eh]
	 Singles Energy            =      -0.0000000000000000 [Eh]
	 Same-Spin Energy          =      -0.3688569218510310 [Eh]
	 Opposite-Spin Energy      =      -1.1380767099254643 [Eh]
	 Correlation Energy        =      -1.5069336317764952 [Eh]
	 Total Energy              =    -381.1990463180995903 [Eh]

	 ================> DF-SCS-MP2 Energies <==================
	-----------------------------------------------------------
	 SCS Same-Spin Scale       =       0.3333333333333333 [-]
	 SCS Opposite-Spin Scale   =       1.2000000000000000 [-]
	 SCS Same-Spin Energy      =      -0.1229523072836770 [Eh]
	 SCS Opposite-Spin Energy  =      -1.3656920519105571 [Eh]
	 SCS Correlation Energy    =      -1.4886443591942342 [Eh]
	 SCS Total Energy          =    -381.1807570455172822 [Eh]
	-----------------------------------------------------------

  Dipole Moment: [D]
     X:     2.9340      Y:    -2.5306      Z:     1.0095     Total:     4.0040

*** Psi4 exiting successfully. Buy a developer a beer!
