                               Psi4 1.3.2 release

  ==> Input File <==

--------------------------------------------------------------------------
#psi4
#
memory 32 gb

molecule  {
0 1
  O        1.0008990     1.1197090    -0.0959030
  O       -1.6389080    -1.2036290    -0.1576800
  O       -1.2230690     1.6022640    -0.0675910
  C        0.7992529    -1.2908070    -0.1821765
  C       -0.4577570    -0.6687040     0.3963640
  C        1.7925350    -0.0950530     0.0479070
  C       -0.3121170     0.8099600     0.0626390
  H        0.6529500    -1.3959670    -1.2698370
  H        1.1362240    -2.1837260     0.2527190
  H       -0.4482060    -0.7692910     1.4955050
  H        2.2087130    -0.1135160     1.0603560
  H        2.6064290    -0.0309800    -0.6748690
  H       -2.2893650    -0.4737730    -0.1440310
units angstrom
no_reorient  #important for SAPT in psi4, default
symmetry c1  #important for SAPT in psi4, default
}

set PROPERTIES_ORIGIN ["COM"]
properties('MP2/aug-cc-pvtz', properties = ['dipole'])
--------------------------------------------------------------------------

    Molecular point group: c1
  Charge       = 0
  Multiplicity = 1
  Basis Set: AUG-CC-PVTZ
    Blend: AUG-CC-PVTZ
  Basis Set: (AUG-CC-PVTZ AUX)
    Blend: AUG-CC-PVTZ-JKFIT

    Orbital Energies [Eh]
    ---------------------

    Doubly Occupied:

       1A    -20.621338     2A    -20.580203     3A    -20.560819
       4A    -11.393794     5A    -11.318944     6A    -11.318511
       7A    -11.258662     8A     -1.469443     9A     -1.388185
      10A     -1.370831    11A     -1.089343    12A     -0.985143
      13A     -0.866254    14A     -0.796664    15A     -0.733561
      16A     -0.713872    17A     -0.690615    18A     -0.657310
      19A     -0.621371    20A     -0.603423    21A     -0.587834
      22A     -0.563835    23A     -0.526877    24A     -0.523836
      25A     -0.474322    26A     -0.467239    27A     -0.448687

  @DF-RHF Final Energy:  -379.69800853714474

   => Energetics <=

    Nuclear Repulsion Energy =            316.8546174830675000
    One-Electron Energy =               -1147.8434218819575108
    Two-Electron Energy =                 451.2907958617452664
    Total Energy =                       -379.6980085371447444
  Basis Set: (AUG-CC-PVTZ AUX)
    Blend: AUG-CC-PVTZ-RI
    Molecular point group: c1

    Geometry (in Angstrom), charge = 0, multiplicity = 1:

       Center              X                  Y                   Z               Mass
    ------------   -----------------  -----------------  -----------------  -----------------
         O            1.040179093733     1.077129948768    -0.090856794327    15.994914619570
         O           -1.599627906267    -1.246208051232    -0.152633794327    15.994914619570
         O           -1.183788906267     1.559684948768    -0.062544794327    15.994914619570
         C            0.838532993733    -1.333386051232    -0.177130294327    12.000000000000
         C           -0.418476906267    -0.711283051232     0.401410205673    12.000000000000
         C            1.831815093733    -0.137632051232     0.052953205673    12.000000000000
         C           -0.272836906267     0.767380948768     0.067685205673    12.000000000000
         H            0.692230093733    -1.438546051232    -1.264790794327     1.007825032230
         H            1.175504093733    -2.226305051232     0.257765205673     1.007825032230
         H           -0.408925906267    -0.811870051232     1.500551205673     1.007825032230
         H            2.247993093733    -0.156095051232     1.065402205673     1.007825032230
         H            2.645709093733    -0.073559051232    -0.669822794327     1.007825032230
         H           -2.250084906267    -0.516352051232    -0.138984794327     1.007825032230

  Basis Set: AUG-CC-PVTZ
    Blend: AUG-CC-PVTZ
  Basis Set: (AUG-CC-PVTZ AUX)
    Blend: AUG-CC-PVTZ-JKFIT
	 Reference Energy          =    -379.6980085371447444 [Eh]
	 Singles Energy            =      -0.0000000000000000 [Eh]
	 Same-Spin Energy          =      -0.3683261674598808 [Eh]
	 Opposite-Spin Energy      =      -1.1366244545899531 [Eh]
	 Correlation Energy        =      -1.5049506220498339 [Eh]
	 Total Energy              =    -381.2029591591945632 [Eh]

	 ================> DF-SCS-MP2 Energies <==================
	-----------------------------------------------------------
	 SCS Same-Spin Scale       =       0.3333333333333333 [-]
	 SCS Opposite-Spin Scale   =       1.2000000000000000 [-]
	 SCS Same-Spin Energy      =      -0.1227753891532936 [Eh]
	 SCS Opposite-Spin Energy  =      -1.3639493455079437 [Eh]
	 SCS Correlation Energy    =      -1.4867247346612373 [Eh]
	 SCS Total Energy          =    -381.1847332718059533 [Eh]
	-----------------------------------------------------------

  Dipole Moment: [D]
     X:     2.6983      Y:    -2.2836      Z:     0.9895     Total:     3.6708

*** Psi4 exiting successfully. Buy a developer a beer!
