                               Psi4 1.3.2 release

  ==> Input File <==

--------------------------------------------------------------------------
#psi4
#
memory 32 gb

molecule  {
0 1
  O        1.0008990     1.1197090    -0.0959030
  O       -1.6389080    -1.2036290    -0.1576800
  O       -1.2230690     1.6022640    -0.0675910
  C        0.8143200    -1.2427870    -0.1986520
  C       -0.4089458    -0.6677107     0.4903352
  C        1.7925350    -0.0950530     0.0479070
  C       -0.3121170     0.8099600     0.0626390
  H        0.6529500    -1.3959670    -1.2698370
  H        1.1362240    -2.1837260     0.2527190
  H       -0.4482060    -0.7692910     1.4955050
  H        2.2087130    -0.1135160     1.0603560
  H        2.6064290    -0.0309800    -0.6748690
  H       -2.2893650    -0.4737730    -0.1440310
units angstrom
no_reorient  #important for SAPT in psi4, default
symmetry c1  #important for SAPT in psi4, default
}

set PROPERTIES_ORIGIN ["COM"]
properties('MP2/aug-cc-pvtz', properties = ['dipole'])
--------------------------------------------------------------------------

    Molecular point group: c1
  Charge       = 0
  Multiplicity = 1
  Basis Set: AUG-CC-PVTZ
    Blend: AUG-CC-PVTZ
  Basis Set: (AUG-CC-PVTZ AUX)
    Blend: AUG-CC-PVTZ-JKFIT

    Orbital Energies [Eh]
    ---------------------

    Doubly Occupied:

       1A    -20.620436     2A    -20.573445     3A    -20.561834
       4A    -11.395672     5A    -11.317883     6A    -11.316788
       7A    -11.261579     8A     -1.469929     9A     -1.378376
      10A     -1.351200    11A     -1.097173    12A     -0.990262
      13A     -0.866062    14A     -0.797650    15A     -0.737335
      16A     -0.706245    17A     -0.684244    18A     -0.665720
      19A     -0.619272    20A     -0.606432    21A     -0.569264
      22A     -0.551599    23A     -0.537130    24A     -0.521365
      25A     -0.483660    26A     -0.468947    27A     -0.448304

  @DF-RHF Final Energy:  -379.68658396415412

   => Energetics <=

    Nuclear Repulsion Energy =            316.5695919537096188
    One-Electron Energy =               -1147.3167383310239984
    Two-Electron Energy =                 451.0605624131602553
    Total Energy =                       -379.6865839641541243
  Basis Set: (AUG-CC-PVTZ AUX)
    Blend: AUG-CC-PVTZ-RI
    Molecular point group: c1

    Geometry (in Angstrom), charge = 0, multiplicity = 1:

       Center              X                  Y                   Z               Mass
    ------------   -----------------  -----------------  -----------------  -----------------
         O            1.032666334025     1.071365469354    -0.099971103451    15.994914619570
         O           -1.607140665975    -1.251972530646    -0.161748103451    15.994914619570
         O           -1.191301665975     1.553920469354    -0.071659103451    15.994914619570
         C            0.846087334025    -1.291130530646    -0.202720103451    12.000000000000
         C           -0.377178465975    -0.716054230646     0.486267096549    12.000000000000
         C            1.824302334025    -0.143396530646     0.043838896549    12.000000000000
         C           -0.280349665975     0.761616469354     0.058570896549    12.000000000000
         H            0.684717334025    -1.444310530646    -1.273905103451     1.007825032230
         H            1.167991334025    -2.232069530646     0.248650896549     1.007825032230
         H           -0.416438665975    -0.817634530646     1.491436896549     1.007825032230
         H            2.240480334025    -0.161859530646     1.056287896549     1.007825032230
         H            2.638196334025    -0.079323530646    -0.678937103451     1.007825032230
         H           -2.257597665975    -0.522116530646    -0.148099103451     1.007825032230

  Basis Set: AUG-CC-PVTZ
    Blend: AUG-CC-PVTZ
  Basis Set: (AUG-CC-PVTZ AUX)
    Blend: AUG-CC-PVTZ-JKFIT
	 Reference Energy          =    -379.6865839641541243 [Eh]
	 Singles Energy            =      -0.0000000000000000 [Eh]
	 Same-Spin Energy          =      -0.3687362318392883 [Eh]
	 Opposite-Spin Energy      =      -1.1384167242752223 [Eh]
	 Correlation Energy        =      -1.5071529561145107 [Eh]
	 Total Energy              =    -381.1937369202686341 [Eh]

	 ================> DF-SCS-MP2 Energies <==================
	-----------------------------------------------------------
	 SCS Same-Spin Scale       =       0.3333333333333333 [-]
	 SCS Opposite-Spin Scale   =       1.2000000000000000 [-]
	 SCS Same-Spin Energy      =      -0.1229120772797627 [Eh]
	 SCS Opposite-Spin Energy  =      -1.3661000691302667 [Eh]
	 SCS Correlation Energy    =      -1.4890121464100294 [Eh]
	 SCS Total Energy          =    -381.1755961105641290 [Eh]
	-----------------------------------------------------------

  Dipole Moment: [D]
     X:     2.9020      Y:    -2.1997      Z:     1.1453     Total:     3.8173

*** Psi4 exiting successfully. Buy a developer a beer!
