                               Psi4 1.3.2 release

  ==> Input File <==

--------------------------------------------------------------------------
#psi4
#
memory 32 gb

molecule  {
0 1
  O        1.0008990     1.1197090    -0.0959030
  O       -1.6389080    -1.2036290    -0.1576800
  O       -1.2230690     1.6022640    -0.0675910
  C        0.8143200    -1.2427870    -0.1986520
  C       -0.4027643    -0.5814301     0.4203052
  C        1.7925350    -0.0950530     0.0479070
  C       -0.3121170     0.8099600     0.0626390
  H        0.6529500    -1.3959670    -1.2698370
  H        1.1362240    -2.1837260     0.2527190
  H       -0.4482060    -0.7692910     1.4955050
  H        2.2087130    -0.1135160     1.0603560
  H        2.6064290    -0.0309800    -0.6748690
  H       -2.2893650    -0.4737730    -0.1440310
units angstrom
no_reorient  #important for SAPT in psi4, default
symmetry c1  #important for SAPT in psi4, default
}

set PROPERTIES_ORIGIN ["COM"]
properties('MP2/aug-cc-pvtz', properties = ['dipole'])
--------------------------------------------------------------------------

    Molecular point group: c1
  Charge       = 0
  Multiplicity = 1
  Basis Set: AUG-CC-PVTZ
    Blend: AUG-CC-PVTZ
  Basis Set: (AUG-CC-PVTZ AUX)
    Blend: AUG-CC-PVTZ-JKFIT

    Orbital Energies [Eh]
    ---------------------

    Doubly Occupied:

       1A    -20.621071     2A    -20.575195     3A    -20.562613
       4A    -11.394135     5A    -11.317796     6A    -11.317289
       7A    -11.262287     8A     -1.474958     9A     -1.380944
      10A     -1.350596    11A     -1.101941    12A     -1.002100
      13A     -0.871743    14A     -0.794286    15A     -0.739228
      16A     -0.708070    17A     -0.685483    18A     -0.655700
      19A     -0.622294    20A     -0.607706    21A     -0.573282
      22A     -0.553522    23A     -0.533328    24A     -0.520147
      25A     -0.476467    26A     -0.469696    27A     -0.461850

  @DF-RHF Final Energy:  -379.68718309511030

   => Energetics <=

    Nuclear Repulsion Energy =            318.0621366282923077
    One-Electron Energy =               -1150.2311873813646343
    Two-Electron Energy =                 452.4818676579619705
    Total Energy =                       -379.6871830951102993
  Basis Set: (AUG-CC-PVTZ AUX)
    Blend: AUG-CC-PVTZ-RI
    Molecular point group: c1

    Geometry (in Angstrom), charge = 0, multiplicity = 1:

       Center              X                  Y                   Z               Mass
    ------------   -----------------  -----------------  -----------------  -----------------
         O            1.031939324632     1.061217963624    -0.091734839143    15.994914619570
         O           -1.607867675368    -1.262120036376    -0.153511839143    15.994914619570
         O           -1.192028675368     1.543772963624    -0.063422839143    15.994914619570
         C            0.845360324632    -1.301278036376    -0.194483839143    12.000000000000
         C           -0.371723975368    -0.639921136376     0.424473360857    12.000000000000
         C            1.823575324632    -0.153544036376     0.052075160857    12.000000000000
         C           -0.281076675368     0.751468963624     0.066807160857    12.000000000000
         H            0.683990324632    -1.454458036376    -1.265668839143     1.007825032230
         H            1.167264324632    -2.242217036376     0.256887160857     1.007825032230
         H           -0.417165675368    -0.827782036376     1.499673160857     1.007825032230
         H            2.239753324632    -0.172007036376     1.064524160857     1.007825032230
         H            2.637469324632    -0.089471036376    -0.670700839143     1.007825032230
         H           -2.258324675368    -0.532264036376    -0.139862839143     1.007825032230

  Basis Set: AUG-CC-PVTZ
    Blend: AUG-CC-PVTZ
  Basis Set: (AUG-CC-PVTZ AUX)
    Blend: AUG-CC-PVTZ-JKFIT
	 Reference Energy          =    -379.6871830951102993 [Eh]
	 Singles Energy            =      -0.0000000000000000 [Eh]
	 Same-Spin Energy          =      -0.3695142638633427 [Eh]
	 Opposite-Spin Energy      =      -1.1395369132298072 [Eh]
	 Correlation Energy        =      -1.5090511770931498 [Eh]
	 Total Energy              =    -381.1962342722034691 [Eh]

	 ================> DF-SCS-MP2 Energies <==================
	-----------------------------------------------------------
	 SCS Same-Spin Scale       =       0.3333333333333333 [-]
	 SCS Opposite-Spin Scale   =       1.2000000000000000 [-]
	 SCS Same-Spin Energy      =      -0.1231714212877809 [Eh]
	 SCS Opposite-Spin Energy  =      -1.3674442958757687 [Eh]
	 SCS Correlation Energy    =      -1.4906157171635495 [Eh]
	 SCS Total Energy          =    -381.1777988122738634 [Eh]
	-----------------------------------------------------------

  Dipole Moment: [D]
     X:     2.9095      Y:    -2.2417      Z:     1.0892     Total:     3.8310

*** Psi4 exiting successfully. Buy a developer a beer!
