                               Psi4 1.3.2 release

  ==> Input File <==

--------------------------------------------------------------------------
#psi4
#
memory 32 gb

molecule  {
0 1
  O        1.0287986     0.9831271    -0.0679352
  O       -1.6389080    -1.2036290    -0.1576800
  O       -1.2230690     1.6022640    -0.0675910
  C        0.8143200    -1.2427870    -0.1986520
  C       -0.4577570    -0.6687040     0.3963640
  C        1.7925350    -0.0950530     0.0479070
  C       -0.3121170     0.8099600     0.0626390
  H        0.6529500    -1.3959670    -1.2698370
  H        1.1362240    -2.1837260     0.2527190
  H       -0.4482060    -0.7692910     1.4955050
  H        2.2087130    -0.1135160     1.0603560
  H        2.6064290    -0.0309800    -0.6748690
  H       -2.2893650    -0.4737730    -0.1440310
units angstrom
no_reorient  #important for SAPT in psi4, default
symmetry c1  #important for SAPT in psi4, default
}

set PROPERTIES_ORIGIN ["COM"]
properties('MP2/aug-cc-pvtz', properties = ['dipole'])
--------------------------------------------------------------------------

    Molecular point group: c1
  Charge       = 0
  Multiplicity = 1
  Basis Set: AUG-CC-PVTZ
    Blend: AUG-CC-PVTZ
  Basis Set: (AUG-CC-PVTZ AUX)
    Blend: AUG-CC-PVTZ-JKFIT

    Orbital Energies [Eh]
    ---------------------

    Doubly Occupied:

       1A    -20.619185     2A    -20.578629     3A    -20.571644
       4A    -11.402800     5A    -11.313220     6A    -11.305753
       7A    -11.251033     8A     -1.501116     9A     -1.402119
      10A     -1.376907    11A     -1.083116    12A     -1.012315
      13A     -0.864310    14A     -0.800077    15A     -0.747388
      16A     -0.725231    17A     -0.691231    18A     -0.672912
      19A     -0.639182    20A     -0.600607    21A     -0.585088
      22A     -0.559449    23A     -0.530115    24A     -0.518742
      25A     -0.472951    26A     -0.463909    27A     -0.445190

  @DF-RHF Final Energy:  -379.68893935266397

   => Energetics <=

    Nuclear Repulsion Energy =            320.4232356832282562
    One-Electron Energy =               -1154.7559086001465403
    Two-Electron Energy =                 454.6437335642542621
    Total Energy =                       -379.6889393526639651
  Basis Set: (AUG-CC-PVTZ AUX)
    Blend: AUG-CC-PVTZ-RI
    Molecular point group: c1

    Geometry (in Angstrom), charge = 0, multiplicity = 1:

       Center              X                  Y                   Z               Mass
    ------------   -----------------  -----------------  -----------------  -----------------
         O            1.061932986502     0.956311541122    -0.065335651470    15.994914619570
         O           -1.605773613498    -1.230444558878    -0.155080451470    15.994914619570
         O           -1.189934613498     1.575448441122    -0.064991451470    15.994914619570
         C            0.847454386502    -1.269602558878    -0.196052451470    12.000000000000
         C           -0.424622613498    -0.695519558878     0.398963548530    12.000000000000
         C            1.825669386502    -0.121868558878     0.050506548530    12.000000000000
         C           -0.278982613498     0.783144441122     0.065238548530    12.000000000000
         H            0.686084386502    -1.422782558878    -1.267237451470     1.007825032230
         H            1.169358386502    -2.210541558878     0.255318548530     1.007825032230
         H           -0.415071613498    -0.796106558878     1.498104548530     1.007825032230
         H            2.241847386502    -0.140331558878     1.062955548530     1.007825032230
         H            2.639563386502    -0.057795558878    -0.672269451470     1.007825032230
         H           -2.256230613498    -0.500588558878    -0.141431451470     1.007825032230

  Basis Set: AUG-CC-PVTZ
    Blend: AUG-CC-PVTZ
  Basis Set: (AUG-CC-PVTZ AUX)
    Blend: AUG-CC-PVTZ-JKFIT
	 Reference Energy          =    -379.6889393526639651 [Eh]
	 Singles Energy            =      -0.0000000000000000 [Eh]
	 Same-Spin Energy          =      -0.3685438171664522 [Eh]
	 Opposite-Spin Energy      =      -1.1343749694184990 [Eh]
	 Correlation Energy        =      -1.5029187865849511 [Eh]
	 Total Energy              =    -381.1918581392488932 [Eh]

	 ================> DF-SCS-MP2 Energies <==================
	-----------------------------------------------------------
	 SCS Same-Spin Scale       =       0.3333333333333333 [-]
	 SCS Opposite-Spin Scale   =       1.2000000000000000 [-]
	 SCS Same-Spin Energy      =      -0.1228479390554841 [Eh]
	 SCS Opposite-Spin Energy  =      -1.3612499633021988 [Eh]
	 SCS Correlation Energy    =      -1.4840979023576830 [Eh]
	 SCS Total Energy          =    -381.1730372550216543 [Eh]
	-----------------------------------------------------------

  Dipole Moment: [D]
     X:     2.4872      Y:    -1.8006      Z:     0.9063     Total:     3.2015

*** Psi4 exiting successfully. Buy a developer a beer!
