                               Psi4 1.3.2 release

  ==> Input File <==

--------------------------------------------------------------------------
#psi4
#
memory 32 gb

molecule  {
0 1
  O        1.0008990     1.1197090    -0.0959030
  O       -1.6389080    -1.2036290    -0.1576800
  O       -1.2230690     1.6022640    -0.0675910
  C        0.8143200    -1.2427870    -0.1986520
  C       -0.2902232    -0.5928305     0.4749493
  C        1.7925350    -0.0950530     0.0479070
  C       -0.3121170     0.8099600     0.0626390
  H        0.6529500    -1.3959670    -1.2698370
  H        1.1362240    -2.1837260     0.2527190
  H       -0.4482060    -0.7692910     1.4955050
  H        2.2087130    -0.1135160     1.0603560
  H        2.6064290    -0.0309800    -0.6748690
  H       -2.2893650    -0.4737730    -0.1440310
units angstrom
no_reorient  #important for SAPT in psi4, default
symmetry c1  #important for SAPT in psi4, default
}

set PROPERTIES_ORIGIN ["COM"]
properties('MP2/aug-cc-pvtz', properties = ['dipole'])
--------------------------------------------------------------------------

    Molecular point group: c1
  Charge       = 0
  Multiplicity = 1
  Basis Set: AUG-CC-PVTZ
    Blend: AUG-CC-PVTZ
  Basis Set: (AUG-CC-PVTZ AUX)
    Blend: AUG-CC-PVTZ-JKFIT

    Orbital Energies [Eh]
    ---------------------

    Doubly Occupied:

       1A    -20.621527     2A    -20.566472     3A    -20.561380
       4A    -11.399285     5A    -11.321510     6A    -11.320709
       7A    -11.263695     8A     -1.477946     9A     -1.381649
      10A     -1.317625    11A     -1.120521    12A     -1.003131
      13A     -0.875049    14A     -0.799522    15A     -0.743675
      16A     -0.710724    17A     -0.674035    18A     -0.657402
      19A     -0.631281    20A     -0.606209    21A     -0.578017
      22A     -0.547870    23A     -0.528166    24A     -0.501864
      25A     -0.478759    26A     -0.471815    27A     -0.462593

  @DF-RHF Final Energy:  -379.66059047972851

   => Energetics <=

    Nuclear Repulsion Energy =            317.7886196074701957
    One-Electron Energy =               -1149.6535612386057892
    Two-Electron Energy =                 452.2043511514070815
    Total Energy =                       -379.6605904797285120
  Basis Set: (AUG-CC-PVTZ AUX)
    Blend: AUG-CC-PVTZ-RI
    Molecular point group: c1

    Geometry (in Angstrom), charge = 0, multiplicity = 1:

       Center              X                  Y                   Z               Mass
    ------------   -----------------  -----------------  -----------------  -----------------
         O            1.018703307995     1.062558770530    -0.098161559841    15.994914619570
         O           -1.621103692005    -1.260779229470    -0.159938559841    15.994914619570
         O           -1.205264692005     1.545113770530    -0.069849559841    15.994914619570
         C            0.832124307995    -1.299937229470    -0.200910559841    12.000000000000
         C           -0.272418892005    -0.649980729470     0.472690740159    12.000000000000
         C            1.810339307995    -0.152203229470     0.045648440159    12.000000000000
         C           -0.294312692005     0.752809770530     0.060380440159    12.000000000000
         H            0.670754307995    -1.453117229470    -1.272095559841     1.007825032230
         H            1.154028307995    -2.240876229470     0.250460440159     1.007825032230
         H           -0.430401692005    -0.826441229470     1.493246440159     1.007825032230
         H            2.226517307995    -0.170666229470     1.058097440159     1.007825032230
         H            2.624233307995    -0.088130229470    -0.677127559841     1.007825032230
         H           -2.271560692005    -0.530923229470    -0.146289559841     1.007825032230

  Basis Set: AUG-CC-PVTZ
    Blend: AUG-CC-PVTZ
  Basis Set: (AUG-CC-PVTZ AUX)
    Blend: AUG-CC-PVTZ-JKFIT
	 Reference Energy          =    -379.6605904797285120 [Eh]
	 Singles Energy            =      -0.0000000000000000 [Eh]
	 Same-Spin Energy          =      -0.3711930094997820 [Eh]
	 Opposite-Spin Energy      =      -1.1434369938089728 [Eh]
	 Correlation Energy        =      -1.5146300033087547 [Eh]
	 Total Energy              =    -381.1752204830372648 [Eh]

	 ================> DF-SCS-MP2 Energies <==================
	-----------------------------------------------------------
	 SCS Same-Spin Scale       =       0.3333333333333333 [-]
	 SCS Opposite-Spin Scale   =       1.2000000000000000 [-]
	 SCS Same-Spin Energy      =      -0.1237310031665940 [Eh]
	 SCS Opposite-Spin Energy  =      -1.3721243925707673 [Eh]
	 SCS Correlation Energy    =      -1.4958553957373613 [Eh]
	 SCS Total Energy          =    -381.1564458754658631 [Eh]
	-----------------------------------------------------------

  Dipole Moment: [D]
     X:     3.2514      Y:    -2.1275      Z:     1.1843     Total:     4.0621

*** Psi4 exiting successfully. Buy a developer a beer!
