                               Psi4 1.3.2 release

  ==> Input File <==

--------------------------------------------------------------------------
#psi4
#
memory 32 gb

molecule  {
0 1
  O        1.0008990     1.1197090    -0.0959030
  O       -1.6389080    -1.2036290    -0.1576800
  O       -1.2230690     1.6022640    -0.0675910
  C        0.8143200    -1.2427870    -0.1986520
  C       -0.4577570    -0.6687040     0.3963640
  C        1.7925350    -0.0950530     0.0479070
  C       -0.3121170     0.8099600     0.0626390
  H        0.6240057    -1.2852981    -1.2751811
  H        1.1362240    -2.1837260     0.2527190
  H       -0.4482060    -0.7692910     1.4955050
  H        2.2087130    -0.1135160     1.0603560
  H        2.6064290    -0.0309800    -0.6748690
  H       -2.2893650    -0.4737730    -0.1440310
units angstrom
no_reorient  #important for SAPT in psi4, default
symmetry c1  #important for SAPT in psi4, default
}

set PROPERTIES_ORIGIN ["COM"]
properties('MP2/aug-cc-pvtz', properties = ['dipole'])
--------------------------------------------------------------------------

    Molecular point group: c1
  Charge       = 0
  Multiplicity = 1
  Basis Set: AUG-CC-PVTZ
    Blend: AUG-CC-PVTZ
  Basis Set: (AUG-CC-PVTZ AUX)
    Blend: AUG-CC-PVTZ-JKFIT

    Orbital Energies [Eh]
    ---------------------

    Doubly Occupied:

       1A    -20.620637     2A    -20.581119     3A    -20.560164
       4A    -11.392772     5A    -11.318076     6A    -11.316814
       7A    -11.259585     8A     -1.469991     9A     -1.388498
      10A     -1.370921    11A     -1.094893    12A     -0.988132
      13A     -0.860514    14A     -0.797653    15A     -0.737141
      16A     -0.714372    17A     -0.687388    18A     -0.658420
      19A     -0.621549    20A     -0.604717    21A     -0.583593
      22A     -0.563861    23A     -0.531991    24A     -0.524954
      25A     -0.474101    26A     -0.468364    27A     -0.447164

  @DF-RHF Final Energy:  -379.69923247772363

   => Energetics <=

    Nuclear Repulsion Energy =            317.6710974625011659
    One-Electron Energy =               -1149.4658951403321225
    Two-Electron Energy =                 452.0955652001073304
    Total Energy =                       -379.6992324777236263
  Basis Set: (AUG-CC-PVTZ AUX)
    Blend: AUG-CC-PVTZ-RI
    Molecular point group: c1

    Geometry (in Angstrom), charge = 0, multiplicity = 1:

       Center              X                  Y                   Z               Mass
    ------------   -----------------  -----------------  -----------------  -----------------
         O            1.038692943657     1.070389152253    -0.088866315588    15.994914619570
         O           -1.601114056343    -1.252948847747    -0.150643315588    15.994914619570
         O           -1.185275056343     1.552944152253    -0.060554315588    15.994914619570
         C            0.852113943657    -1.292106847747    -0.191615315588    12.000000000000
         C           -0.419963056343    -0.718023847747     0.403400684412    12.000000000000
         C            1.830328943657    -0.144372847747     0.054943684412    12.000000000000
         C           -0.274323056343     0.760640152253     0.069675684412    12.000000000000
         H            0.661799643657    -1.334617947747    -1.268144415588     1.007825032230
         H            1.174017943657    -2.233045847747     0.259755684412     1.007825032230
         H           -0.410412056343    -0.818610847747     1.502541684412     1.007825032230
         H            2.246506943657    -0.162835847747     1.067392684412     1.007825032230
         H            2.644222943657    -0.080299847747    -0.667832315588     1.007825032230
         H           -2.251571056343    -0.523092847747    -0.136994315588     1.007825032230

  Basis Set: AUG-CC-PVTZ
    Blend: AUG-CC-PVTZ
  Basis Set: (AUG-CC-PVTZ AUX)
    Blend: AUG-CC-PVTZ-JKFIT
	 Reference Energy          =    -379.6992324777236263 [Eh]
	 Singles Energy            =      -0.0000000000000000 [Eh]
	 Same-Spin Energy          =      -0.3686267703074259 [Eh]
	 Opposite-Spin Energy      =      -1.1367505371461770 [Eh]
	 Correlation Energy        =      -1.5053773074536028 [Eh]
	 Total Energy              =    -381.2046097851772402 [Eh]

	 ================> DF-SCS-MP2 Energies <==================
	-----------------------------------------------------------
	 SCS Same-Spin Scale       =       0.3333333333333333 [-]
	 SCS Opposite-Spin Scale   =       1.2000000000000000 [-]
	 SCS Same-Spin Energy      =      -0.1228755901024753 [Eh]
	 SCS Opposite-Spin Energy  =      -1.3641006445754125 [Eh]
	 SCS Correlation Energy    =      -1.4869762346778876 [Eh]
	 SCS Total Energy          =    -381.1862087124015375 [Eh]
	-----------------------------------------------------------

  Dipole Moment: [D]
     X:     2.6943      Y:    -2.2612      Z:     0.9933     Total:     3.6550

*** Psi4 exiting successfully. Buy a developer a beer!
