                               Psi4 1.3.2 release

  ==> Input File <==

--------------------------------------------------------------------------
#psi4
#
memory 32 gb

molecule  {
0 1
  O        1.0008990     1.1197090    -0.0959030
  O       -1.6389080    -1.2036290    -0.1576800
  O       -1.2230690     1.6022640    -0.0675910
  C        0.8143200    -1.2427870    -0.1986520
  C       -0.4577570    -0.6687040     0.3963640
  C        1.7925350    -0.0950530     0.0479070
  C       -0.3025533     0.9070593     0.0407243
  H        0.6529500    -1.3959670    -1.2698370
  H        1.1362240    -2.1837260     0.2527190
  H       -0.4482060    -0.7692910     1.4955050
  H        2.2087130    -0.1135160     1.0603560
  H        2.6064290    -0.0309800    -0.6748690
  H       -2.2893650    -0.4737730    -0.1440310
units angstrom
no_reorient  #important for SAPT in psi4, default
symmetry c1  #important for SAPT in psi4, default
}

set PROPERTIES_ORIGIN ["COM"]
properties('MP2/aug-cc-pvtz', properties = ['dipole'])
--------------------------------------------------------------------------

    Molecular point group: c1
  Charge       = 0
  Multiplicity = 1
  Basis Set: AUG-CC-PVTZ
    Blend: AUG-CC-PVTZ
  Basis Set: (AUG-CC-PVTZ AUX)
    Blend: AUG-CC-PVTZ-JKFIT

    Orbital Energies [Eh]
    ---------------------

    Doubly Occupied:

       1A    -20.619554     2A    -20.574340     3A    -20.563449
       4A    -11.386843     5A    -11.318827     6A    -11.309832
       7A    -11.253162     8A     -1.485500     9A     -1.409600
      10A     -1.374786    11A     -1.084652    12A     -0.977896
      13A     -0.850507    14A     -0.791846    15A     -0.734697
      16A     -0.715921    17A     -0.689147    18A     -0.662873
      19A     -0.629721    20A     -0.611656    21A     -0.579789
      22A     -0.561870    23A     -0.538019    24A     -0.525947
      25A     -0.479008    26A     -0.468449    27A     -0.422530

  @DF-RHF Final Energy:  -379.69605628414399

   => Energetics <=

    Nuclear Repulsion Energy =            317.2442989569364045
    One-Electron Energy =               -1148.6398674017264057
    Two-Electron Energy =                 451.6995121606460089
    Total Energy =                       -379.6960562841439923
  Basis Set: (AUG-CC-PVTZ AUX)
    Blend: AUG-CC-PVTZ-RI
    Molecular point group: c1

    Geometry (in Angstrom), charge = 0, multiplicity = 1:

       Center              X                  Y                   Z               Mass
    ------------   -----------------  -----------------  -----------------  -----------------
         O            1.037282252680     1.060062393278    -0.086341703166    15.994914619570
         O           -1.602524747320    -1.263275606722    -0.148118703166    15.994914619570
         O           -1.186685747320     1.542617393278    -0.058029703166    15.994914619570
         C            0.850703252680    -1.302433606722    -0.189090703166    12.000000000000
         C           -0.421373747320    -0.728350606722     0.405925296834    12.000000000000
         C            1.828918252680    -0.154699606722     0.057468296834    12.000000000000
         C           -0.266170047320     0.847412693278     0.050285596834    12.000000000000
         H            0.689333252680    -1.455613606722    -1.260275703166     1.007825032230
         H            1.172607252680    -2.243372606722     0.262280296834     1.007825032230
         H           -0.411822747320    -0.828937606722     1.505066296834     1.007825032230
         H            2.245096252680    -0.173162606722     1.069917296834     1.007825032230
         H            2.642812252680    -0.090626606722    -0.665307703166     1.007825032230
         H           -2.252981747320    -0.533419606722    -0.134469703166     1.007825032230

  Basis Set: AUG-CC-PVTZ
    Blend: AUG-CC-PVTZ
  Basis Set: (AUG-CC-PVTZ AUX)
    Blend: AUG-CC-PVTZ-JKFIT
	 Reference Energy          =    -379.6960562841439923 [Eh]
	 Singles Energy            =      -0.0000000000000000 [Eh]
	 Same-Spin Energy          =      -0.3667016309932226 [Eh]
	 Opposite-Spin Energy      =      -1.1326234862499307 [Eh]
	 Correlation Energy        =      -1.4993251172431532 [Eh]
	 Total Energy              =    -381.1953814013871238 [Eh]

	 ================> DF-SCS-MP2 Energies <==================
	-----------------------------------------------------------
	 SCS Same-Spin Scale       =       0.3333333333333333 [-]
	 SCS Opposite-Spin Scale   =       1.2000000000000000 [-]
	 SCS Same-Spin Energy      =      -0.1222338769977409 [Eh]
	 SCS Opposite-Spin Energy  =      -1.3591481834999168 [Eh]
	 SCS Correlation Energy    =      -1.4813820604976577 [Eh]
	 SCS Total Energy          =    -381.1774383446416437 [Eh]
	-----------------------------------------------------------

  Dipole Moment: [D]
     X:     2.7100      Y:    -1.8173      Z:     0.8817     Total:     3.3800

*** Psi4 exiting successfully. Buy a developer a beer!
