                               Psi4 1.3.2 release

  ==> Input File <==

--------------------------------------------------------------------------
#psi4
#
memory 32 gb

molecule  {
0 1
  O        1.0212375     1.0293445    -0.0756620
  O       -1.6389080    -1.2036290    -0.1576800
  O       -1.2230690     1.6022640    -0.0675910
  C        0.8143200    -1.2427870    -0.1986520
  C       -0.4577570    -0.6687040     0.3963640
  C        1.7925350    -0.0950530     0.0479070
  C       -0.3121170     0.8099600     0.0626390
  H        0.6529500    -1.3959670    -1.2698370
  H        1.1362240    -2.1837260     0.2527190
  H       -0.4482060    -0.7692910     1.4955050
  H        2.2087130    -0.1135160     1.0603560
  H        2.6064290    -0.0309800    -0.6748690
  H       -2.2893650    -0.4737730    -0.1440310
units angstrom
no_reorient  #important for SAPT in psi4, default
symmetry c1  #important for SAPT in psi4, default
}

set PROPERTIES_ORIGIN ["COM"]
properties('MP2/aug-cc-pvtz', properties = ['dipole'])
--------------------------------------------------------------------------

    Molecular point group: c1
  Charge       = 0
  Multiplicity = 1
  Basis Set: AUG-CC-PVTZ
    Blend: AUG-CC-PVTZ
  Basis Set: (AUG-CC-PVTZ AUX)
    Blend: AUG-CC-PVTZ-JKFIT

    Orbital Energies [Eh]
    ---------------------

    Doubly Occupied:

       1A    -20.619918     2A    -20.579435     3A    -20.567685
       4A    -11.399158     5A    -11.315000     6A    -11.309413
       7A    -11.253768     8A     -1.488857     9A     -1.396636
      10A     -1.376283    11A     -1.086638    12A     -1.002913
      13A     -0.863332    14A     -0.799714    15A     -0.742391
      16A     -0.720356    17A     -0.690796    18A     -0.668035
      19A     -0.633482    20A     -0.602001    21A     -0.584562
      22A     -0.559464    23A     -0.531116    24A     -0.521678
      25A     -0.473674    26A     -0.466400    27A     -0.446234

  @DF-RHF Final Energy:  -379.69710048660841

   => Energetics <=

    Nuclear Repulsion Energy =            319.3797805105962766
    One-Electron Energy =               -1152.7558872639424408
    Two-Electron Energy =                 453.6790062667378152
    Total Energy =                       -379.6971004866084058
  Basis Set: (AUG-CC-PVTZ AUX)
    Blend: AUG-CC-PVTZ-RI
    Molecular point group: c1

    Geometry (in Angstrom), charge = 0, multiplicity = 1:

       Center              X                  Y                   Z               Mass
    ------------   -----------------  -----------------  -----------------  -----------------
         O            1.055557196126     0.995283708415    -0.071851166022    15.994914619570
         O           -1.604588303874    -1.237689791585    -0.153869166022    15.994914619570
         O           -1.188749303874     1.568203208415    -0.063780166022    15.994914619570
         C            0.848639696126    -1.276847791585    -0.194841166022    12.000000000000
         C           -0.423437303874    -0.702764791585     0.400174833978    12.000000000000
         C            1.826854696126    -0.129113791585     0.051717833978    12.000000000000
         C           -0.277797303874     0.775899208415     0.066449833978    12.000000000000
         H            0.687269696126    -1.430027791585    -1.266026166022     1.007825032230
         H            1.170543696126    -2.217786791585     0.256529833978     1.007825032230
         H           -0.413886303874    -0.803351791585     1.499315833978     1.007825032230
         H            2.243032696126    -0.147576791585     1.064166833978     1.007825032230
         H            2.640748696126    -0.065040791585    -0.671058166022     1.007825032230
         H           -2.255045303874    -0.507833791585    -0.140220166022     1.007825032230

  Basis Set: AUG-CC-PVTZ
    Blend: AUG-CC-PVTZ
  Basis Set: (AUG-CC-PVTZ AUX)
    Blend: AUG-CC-PVTZ-JKFIT
	 Reference Energy          =    -379.6971004866084058 [Eh]
	 Singles Energy            =      -0.0000000000000000 [Eh]
	 Same-Spin Energy          =      -0.3683589588048648 [Eh]
	 Opposite-Spin Energy      =      -1.1347981685783166 [Eh]
	 Correlation Energy        =      -1.5031571273831814 [Eh]
	 Total Energy              =    -381.2002576139915959 [Eh]

	 ================> DF-SCS-MP2 Energies <==================
	-----------------------------------------------------------
	 SCS Same-Spin Scale       =       0.3333333333333333 [-]
	 SCS Opposite-Spin Scale   =       1.2000000000000000 [-]
	 SCS Same-Spin Energy      =      -0.1227863196016216 [Eh]
	 SCS Opposite-Spin Energy  =      -1.3617578022939798 [Eh]
	 SCS Correlation Energy    =      -1.4845441218956015 [Eh]
	 SCS Total Energy          =    -381.1816446085040297 [Eh]
	-----------------------------------------------------------

  Dipole Moment: [D]
     X:     2.5606      Y:    -1.9732      Z:     0.9304     Total:     3.3640

*** Psi4 exiting successfully. Buy a developer a beer!
