                               Psi4 1.3.2 release

  ==> Input File <==

--------------------------------------------------------------------------
#psi4
#
memory 32 gb

molecule  {
0 1
  O        1.0008990     1.1197090    -0.0959030
  O       -1.6389080    -1.2036290    -0.1576800
  O       -1.2230690     1.6022640    -0.0675910
  C        0.8105210    -1.2338996    -0.2235084
  C       -0.4577570    -0.6687040     0.3963640
  C        1.7925350    -0.0950530     0.0479070
  C       -0.3121170     0.8099600     0.0626390
  H        0.6529500    -1.3959670    -1.2698370
  H        1.1362240    -2.1837260     0.2527190
  H       -0.4482060    -0.7692910     1.4955050
  H        2.2087130    -0.1135160     1.0603560
  H        2.6064290    -0.0309800    -0.6748690
  H       -2.2893650    -0.4737730    -0.1440310
units angstrom
no_reorient  #important for SAPT in psi4, default
symmetry c1  #important for SAPT in psi4, default
}

set PROPERTIES_ORIGIN ["COM"]
properties('MP2/aug-cc-pvtz', properties = ['dipole'])
--------------------------------------------------------------------------

    Molecular point group: c1
  Charge       = 0
  Multiplicity = 1
  Basis Set: AUG-CC-PVTZ
    Blend: AUG-CC-PVTZ
  Basis Set: (AUG-CC-PVTZ AUX)
    Blend: AUG-CC-PVTZ-JKFIT

    Orbital Energies [Eh]
    ---------------------

    Doubly Occupied:

       1A    -20.619879     2A    -20.580851     3A    -20.559725
       4A    -11.392193     5A    -11.318580     6A    -11.317178
       7A    -11.258646     8A     -1.469601     9A     -1.388245
      10A     -1.370550    11A     -1.092953    12A     -0.988052
      13A     -0.862906    14A     -0.796884    15A     -0.734771
      16A     -0.713684    17A     -0.687908    18A     -0.659045
      19A     -0.622461    20A     -0.606886    21A     -0.580100
      22A     -0.557151    23A     -0.538935    24A     -0.522676
      25A     -0.475546    26A     -0.468730    27A     -0.445999

  @DF-RHF Final Energy:  -379.70001990287506

   => Energetics <=

    Nuclear Repulsion Energy =            317.5252557095599855
    One-Electron Energy =               -1149.1902835328644414
    Two-Electron Energy =                 451.9650079204293434
    Total Energy =                       -379.7000199028750558
  Basis Set: (AUG-CC-PVTZ AUX)
    Blend: AUG-CC-PVTZ-RI
    Molecular point group: c1

    Geometry (in Angstrom), charge = 0, multiplicity = 1:

       Center              X                  Y                   Z               Mass
    ------------   -----------------  -----------------  -----------------  -----------------
         O            1.038853846698     1.070437040194    -0.085995728316    15.994914619570
         O           -1.600953153302    -1.252900959806    -0.147772728316    15.994914619570
         O           -1.185114153302     1.552992040194    -0.057683728316    15.994914619570
         C            0.848475846698    -1.283171559806    -0.213601128316    12.000000000000
         C           -0.419802153302    -0.717975959806     0.406271271684    12.000000000000
         C            1.830489846698    -0.144324959806     0.057814271684    12.000000000000
         C           -0.274162153302     0.760688040194     0.072546271684    12.000000000000
         H            0.690904846698    -1.445238959806    -1.259929728316     1.007825032230
         H            1.174178846698    -2.232997959806     0.262626271684     1.007825032230
         H           -0.410251153302    -0.818562959806     1.505412271684     1.007825032230
         H            2.246667846698    -0.162787959806     1.070263271684     1.007825032230
         H            2.644383846698    -0.080251959806    -0.664961728316     1.007825032230
         H           -2.251410153302    -0.523044959806    -0.134123728316     1.007825032230

  Basis Set: AUG-CC-PVTZ
    Blend: AUG-CC-PVTZ
  Basis Set: (AUG-CC-PVTZ AUX)
    Blend: AUG-CC-PVTZ-JKFIT
	 Reference Energy          =    -379.7000199028750558 [Eh]
	 Singles Energy            =      -0.0000000000000000 [Eh]
	 Same-Spin Energy          =      -0.3684166746849880 [Eh]
	 Opposite-Spin Energy      =      -1.1364208240522364 [Eh]
	 Correlation Energy        =      -1.5048374987372244 [Eh]
	 Total Energy              =    -381.2048574016122870 [Eh]

	 ================> DF-SCS-MP2 Energies <==================
	-----------------------------------------------------------
	 SCS Same-Spin Scale       =       0.3333333333333333 [-]
	 SCS Opposite-Spin Scale   =       1.2000000000000000 [-]
	 SCS Same-Spin Energy      =      -0.1228055582283293 [Eh]
	 SCS Opposite-Spin Energy  =      -1.3637049888626838 [Eh]
	 SCS Correlation Energy    =      -1.4865105470910132 [Eh]
	 SCS Total Energy          =    -381.1865304499660851 [Eh]
	-----------------------------------------------------------

  Dipole Moment: [D]
     X:     2.6942      Y:    -2.2828      Z:     0.9726     Total:     3.6628

*** Psi4 exiting successfully. Buy a developer a beer!
