                               Psi4 1.4a3.dev225

  ==> Input File <==

--------------------------------------------------------------------------
#psi4
#
memory 32 gb

molecule  {
0 1
  O        1.0008990     1.1197090    -0.0959030
  O       -1.6389080    -1.2036290    -0.1576800
  O       -1.2230690     1.6022640    -0.0675910
  C        0.8143200    -1.2427870    -0.1986520
  C       -0.4577570    -0.6687040     0.3963640
  C        1.7816688    -0.0783788     0.0459330
  C       -0.3121170     0.8099600     0.0626390
  H        0.6529500    -1.3959670    -1.2698370
  H        1.1362240    -2.1837260     0.2527190
  H       -0.4482060    -0.7692910     1.4955050
  H        2.2087130    -0.1135160     1.0603560
  H        2.6064290    -0.0309800    -0.6748690
  H       -2.2893650    -0.4737730    -0.1440310
units angstrom
no_reorient  #important for SAPT in psi4, default
symmetry c1  #important for SAPT in psi4, default
}

set PROPERTIES_ORIGIN ["COM"]
properties('MP2/aug-cc-pvtz', properties = ['dipole'])
--------------------------------------------------------------------------

    Molecular point group: c1
  Charge       = 0
  Multiplicity = 1
  Basis Set: AUG-CC-PVTZ
    Blend: AUG-CC-PVTZ
  Basis Set: (AUG-CC-PVTZ AUX)
    Blend: AUG-CC-PVTZ-JKFIT

    Orbital Energies [Eh]
    ---------------------

    Doubly Occupied:

       1A    -20.622475     2A    -20.581108     3A    -20.561269
       4A    -11.393958     5A    -11.318655     6A    -11.316740
       7A    -11.258463     8A     -1.474614     9A     -1.389911
      10A     -1.372478    11A     -1.092691    12A     -0.988329
      13A     -0.862520    14A     -0.799008    15A     -0.735935
      16A     -0.714569    17A     -0.690180    18A     -0.659817
      19A     -0.623919    20A     -0.604324    21A     -0.583162
      22A     -0.559992    23A     -0.533870    24A     -0.523743
      25A     -0.474521    26A     -0.467875    27A     -0.447892

  @DF-RHF Final Energy:  -379.70084444090702

   => Energetics <=

    Nuclear Repulsion Energy =            317.7522415623662937
    One-Electron Energy =               -1149.6021394323392997
    Two-Electron Energy =                 452.1490534290659866
    Total Energy =                       -379.7008444409070194
  Basis Set: (AUG-CC-PVTZ AUX)
    Blend: AUG-CC-PVTZ-RI
    Molecular point group: c1

    Geometry (in Angstrom), charge = 0, multiplicity = 1:

       Center              X                  Y                   Z               Mass
    ------------   -----------------  -----------------  -----------------  -----------------
         O            1.039685023724     1.069521230642    -0.088686939146    15.994914619570
         O           -1.600121976276    -1.253816769358    -0.150463939146    15.994914619570
         O           -1.184282976276     1.552076230642    -0.060374939146    15.994914619570
         C            0.853106023724    -1.292974769358    -0.191435939146    12.000000000000
         C           -0.418970976276    -0.718891769358     0.403580060854    12.000000000000
         C            1.820454823724    -0.128566569358     0.053149060854    12.000000000000
         C           -0.273330976276     0.759772230642     0.069855060854    12.000000000000
         H            0.691736023724    -1.446154769358    -1.262620939146     1.007825032230
         H            1.175010023724    -2.233913769358     0.259935060854     1.007825032230
         H           -0.409419976276    -0.819478769358     1.502721060854     1.007825032230
         H            2.247499023724    -0.163703769358     1.067572060854     1.007825032230
         H            2.645215023724    -0.081167769358    -0.667652939146     1.007825032230
         H           -2.250578976276    -0.523960769358    -0.136814939146     1.007825032230

  Basis Set: AUG-CC-PVTZ
    Blend: AUG-CC-PVTZ
  Basis Set: (AUG-CC-PVTZ AUX)
    Blend: AUG-CC-PVTZ-JKFIT
	 Reference Energy          =    -379.7008444409070194 [Eh]
	 Singles Energy            =      -0.0000000000000000 [Eh]
	 Same-Spin Energy          =      -0.3684051564188255 [Eh]
	 Opposite-Spin Energy      =      -1.1362132686543818 [Eh]
	 Correlation Energy        =      -1.5046184250732073 [Eh]
	 Total Energy              =    -381.2054628659802233 [Eh]

	 ================> DF-SCS-MP2 Energies <==================
	-----------------------------------------------------------
	 SCS Same-Spin Scale       =       0.3333333333333333 [-]
	 SCS Opposite-Spin Scale   =       1.2000000000000000 [-]
	 SCS Same-Spin Energy      =      -0.1228017188062752 [Eh]
	 SCS Opposite-Spin Energy  =      -1.3634559223852580 [Eh]
	 SCS Correlation Energy    =      -1.4862576411915331 [Eh]
	 SCS Total Energy          =    -381.1871020820985336 [Eh]
	-----------------------------------------------------------

  Dipole Moment: [D]
     X:     2.6435      Y:    -2.2391      Z:     0.9734     Total:     3.5985

*** Psi4 exiting successfully. Buy a developer a beer!
