                               Psi4 1.3.2 release

  ==> Input File <==

--------------------------------------------------------------------------
#psi4
#
memory 32 gb

molecule  {
0 1
  O        1.0008990     1.1197090    -0.0959030
  O       -1.6389080    -1.2036290    -0.1576800
  O       -1.2369066     1.5867459    -0.0634839
  C        0.8143200    -1.2427870    -0.1986520
  C       -0.4577570    -0.6687040     0.3963640
  C        1.7925350    -0.0950530     0.0479070
  C       -0.3121170     0.8099600     0.0626390
  H        0.6529500    -1.3959670    -1.2698370
  H        1.1362240    -2.1837260     0.2527190
  H       -0.4482060    -0.7692910     1.4955050
  H        2.2087130    -0.1135160     1.0603560
  H        2.6064290    -0.0309800    -0.6748690
  H       -2.2893650    -0.4737730    -0.1440310
units angstrom
no_reorient  #important for SAPT in psi4, default
symmetry c1  #important for SAPT in psi4, default
}

set PROPERTIES_ORIGIN ["COM"]
properties('MP2/aug-cc-pvtz', properties = ['dipole'])
--------------------------------------------------------------------------

    Molecular point group: c1
  Charge       = 0
  Multiplicity = 1
  Basis Set: AUG-CC-PVTZ
    Blend: AUG-CC-PVTZ
  Basis Set: (AUG-CC-PVTZ AUX)
    Blend: AUG-CC-PVTZ-JKFIT

    Orbital Energies [Eh]
    ---------------------

    Doubly Occupied:

       1A    -20.621471     2A    -20.580184     3A    -20.560482
       4A    -11.393012     5A    -11.317628     6A    -11.317529
       7A    -11.258595     8A     -1.469901     9A     -1.388516
      10A     -1.370967    11A     -1.093312    12A     -0.988168
      13A     -0.862001    14A     -0.797278    15A     -0.734600
      16A     -0.714240    17A     -0.688909    18A     -0.658694
      19A     -0.622480    20A     -0.604810    21A     -0.582085
      22A     -0.559743    23A     -0.535725    24A     -0.523524
      25A     -0.474440    26A     -0.469281    27A     -0.446447

  @DF-RHF Final Energy:  -379.70069093847394

   => Energetics <=

    Nuclear Repulsion Energy =            317.5364331149350505
    One-Electron Energy =               -1149.2062039115444350
    Two-Electron Energy =                 451.9690798581353874
    Total Energy =                       -379.7006909384739402
  Basis Set: (AUG-CC-PVTZ AUX)
    Blend: AUG-CC-PVTZ-RI
    Molecular point group: c1

    Geometry (in Angstrom), charge = 0, multiplicity = 1:

       Center              X                  Y                   Z               Mass
    ------------   -----------------  -----------------  -----------------  -----------------
         O            1.040576284341     1.073914974064    -0.089562948455    15.994914619570
         O           -1.599230715659    -1.249423025936    -0.151339948455    15.994914619570
         O           -1.197229315659     1.540951874064    -0.057143848455    15.994914619570
         C            0.853997284341    -1.288581025936    -0.192311948455    12.000000000000
         C           -0.418079715659    -0.714498025936     0.402704051545    12.000000000000
         C            1.832212284341    -0.140847025936     0.054247051545    12.000000000000
         C           -0.272439715659     0.764165974064     0.068979051545    12.000000000000
         H            0.692627284341    -1.441761025936    -1.263496948455     1.007825032230
         H            1.175901284341    -2.229520025936     0.259059051545     1.007825032230
         H           -0.408528715659    -0.815085025936     1.501845051545     1.007825032230
         H            2.248390284341    -0.159310025936     1.066696051545     1.007825032230
         H            2.646106284341    -0.076774025936    -0.668528948455     1.007825032230
         H           -2.249687715659    -0.519567025936    -0.137690948455     1.007825032230

  Basis Set: AUG-CC-PVTZ
    Blend: AUG-CC-PVTZ
  Basis Set: (AUG-CC-PVTZ AUX)
    Blend: AUG-CC-PVTZ-JKFIT
	 Reference Energy          =    -379.7006909384739402 [Eh]
	 Singles Energy            =      -0.0000000000000000 [Eh]
	 Same-Spin Energy          =      -0.3684529612174324 [Eh]
	 Opposite-Spin Energy      =      -1.1364413580531063 [Eh]
	 Correlation Energy        =      -1.5048943192705386 [Eh]
	 Total Energy              =    -381.2055852577444739 [Eh]

	 ================> DF-SCS-MP2 Energies <==================
	-----------------------------------------------------------
	 SCS Same-Spin Scale       =       0.3333333333333333 [-]
	 SCS Opposite-Spin Scale   =       1.2000000000000000 [-]
	 SCS Same-Spin Energy      =      -0.1228176537391441 [Eh]
	 SCS Opposite-Spin Energy  =      -1.3637296296637276 [Eh]
	 SCS Correlation Energy    =      -1.4865472834028717 [Eh]
	 SCS Total Energy          =    -381.1872382218768394 [Eh]
	-----------------------------------------------------------

  Dipole Moment: [D]
     X:     2.7288      Y:    -2.2457      Z:     0.9718     Total:     3.6652

*** Psi4 exiting successfully. Buy a developer a beer!
