                               Psi4 1.3.2 release

  ==> Input File <==

--------------------------------------------------------------------------
#psi4
#
memory 32 gb

molecule  {
0 1
  O        1.0008990     1.1197090    -0.0959030
  O       -1.6389080    -1.2036290    -0.1576800
  O       -1.2230690     1.6022640    -0.0675910
  C        0.8143200    -1.2427870    -0.1986520
  C       -0.4341119    -0.6678571     0.4437409
  C        1.7925350    -0.0950530     0.0479070
  C       -0.3121170     0.8099600     0.0626390
  H        0.6529500    -1.3959670    -1.2698370
  H        1.1362240    -2.1837260     0.2527190
  H       -0.4482060    -0.7692910     1.4955050
  H        2.2087130    -0.1135160     1.0603560
  H        2.6064290    -0.0309800    -0.6748690
  H       -2.2893650    -0.4737730    -0.1440310
units angstrom
no_reorient  #important for SAPT in psi4, default
symmetry c1  #important for SAPT in psi4, default
}

set PROPERTIES_ORIGIN ["COM"]
properties('MP2/aug-cc-pvtz', properties = ['dipole'])
--------------------------------------------------------------------------

    Molecular point group: c1
  Charge       = 0
  Multiplicity = 1
  Basis Set: AUG-CC-PVTZ
    Blend: AUG-CC-PVTZ
  Basis Set: (AUG-CC-PVTZ AUX)
    Blend: AUG-CC-PVTZ-JKFIT

    Orbital Energies [Eh]
    ---------------------

    Doubly Occupied:

       1A    -20.620368     2A    -20.577195     3A    -20.560908
       4A    -11.393968     5A    -11.317484     6A    -11.317295
       7A    -11.260048     8A     -1.469770     9A     -1.380425
      10A     -1.363383    11A     -1.095223    12A     -0.989122
      13A     -0.863661    14A     -0.796508    15A     -0.735882
      16A     -0.709795    17A     -0.687095    18A     -0.662047
      19A     -0.620013    20A     -0.605821    21A     -0.574798
      22A     -0.556433    23A     -0.536470    24A     -0.522172
      25A     -0.480971    26A     -0.468639    27A     -0.447989

  @DF-RHF Final Energy:  -379.69687502634383

   => Energetics <=

    Nuclear Repulsion Energy =            317.0204841592454272
    One-Electron Energy =               -1148.2077529502801099
    Two-Electron Energy =                 451.4903937646909071
    Total Energy =                       -379.6968750263438324
  Basis Set: (AUG-CC-PVTZ AUX)
    Blend: AUG-CC-PVTZ-RI
    Molecular point group: c1

    Geometry (in Angstrom), charge = 0, multiplicity = 1:

       Center              X                  Y                   Z               Mass
    ------------   -----------------  -----------------  -----------------  -----------------
         O            1.035626131986     1.071382687533    -0.094491123870    15.994914619570
         O           -1.604180868014    -1.251955312467    -0.156268123870    15.994914619570
         O           -1.188341868014     1.553937687533    -0.066179123870    15.994914619570
         C            0.849047131986    -1.291113312467    -0.197240123870    12.000000000000
         C           -0.399384768014    -0.716183412467     0.445152776130    12.000000000000
         C            1.827262131986    -0.143379312467     0.049318876130    12.000000000000
         C           -0.277389868014     0.761633687533     0.064050876130    12.000000000000
         H            0.687677131986    -1.444293312467    -1.268425123870     1.007825032230
         H            1.170951131986    -2.232052312467     0.254130876130     1.007825032230
         H           -0.413478868014    -0.817617312467     1.496916876130     1.007825032230
         H            2.243440131986    -0.161842312467     1.061767876130     1.007825032230
         H            2.641156131986    -0.079306312467    -0.673457123870     1.007825032230
         H           -2.254637868014    -0.522099312467    -0.142619123870     1.007825032230

  Basis Set: AUG-CC-PVTZ
    Blend: AUG-CC-PVTZ
  Basis Set: (AUG-CC-PVTZ AUX)
    Blend: AUG-CC-PVTZ-JKFIT
	 Reference Energy          =    -379.6968750263438324 [Eh]
	 Singles Energy            =      -0.0000000000000000 [Eh]
	 Same-Spin Energy          =      -0.3685071610234128 [Eh]
	 Opposite-Spin Energy      =      -1.1372465575764488 [Eh]
	 Correlation Energy        =      -1.5057537185998615 [Eh]
	 Total Energy              =    -381.2026287449436950 [Eh]

	 ================> DF-SCS-MP2 Energies <==================
	-----------------------------------------------------------
	 SCS Same-Spin Scale       =       0.3333333333333333 [-]
	 SCS Opposite-Spin Scale   =       1.2000000000000000 [-]
	 SCS Same-Spin Energy      =      -0.1228357203411376 [Eh]
	 SCS Opposite-Spin Energy  =      -1.3646958690917386 [Eh]
	 SCS Correlation Energy    =      -1.4875315894328762 [Eh]
	 SCS Total Energy          =    -381.1844066157767088 [Eh]
	-----------------------------------------------------------

  Dipole Moment: [D]
     X:     2.8008      Y:    -2.2435      Z:     1.0715     Total:     3.7451

*** Psi4 exiting successfully. Buy a developer a beer!
