                               Psi4 1.3.2 release

  ==> Input File <==

--------------------------------------------------------------------------
#psi4
#
memory 32 gb

molecule  {
0 1
  O        1.0008990     1.1197090    -0.0959030
  O       -1.6389080    -1.2036290    -0.1576800
  O       -1.2230690     1.6022640    -0.0675910
  C        0.8143200    -1.2427870    -0.1986520
  C       -0.4577570    -0.6687040     0.3963640
  C        1.7711607    -0.1082457     0.0518801
  C       -0.3121170     0.8099600     0.0626390
  H        0.6529500    -1.3959670    -1.2698370
  H        1.1362240    -2.1837260     0.2527190
  H       -0.4482060    -0.7692910     1.4955050
  H        2.2087130    -0.1135160     1.0603560
  H        2.6064290    -0.0309800    -0.6748690
  H       -2.2893650    -0.4737730    -0.1440310
units angstrom
no_reorient  #important for SAPT in psi4, default
symmetry c1  #important for SAPT in psi4, default
}

set PROPERTIES_ORIGIN ["COM"]
properties('MP2/aug-cc-pvtz', properties = ['dipole'])
--------------------------------------------------------------------------

    Molecular point group: c1
  Charge       = 0
  Multiplicity = 1
  Basis Set: AUG-CC-PVTZ
    Blend: AUG-CC-PVTZ
  Basis Set: (AUG-CC-PVTZ AUX)
    Blend: AUG-CC-PVTZ-JKFIT

    Orbital Energies [Eh]
    ---------------------

    Doubly Occupied:

       1A    -20.621071     2A    -20.581265     3A    -20.560062
       4A    -11.392636     5A    -11.319049     6A    -11.317700
       7A    -11.258305     8A     -1.470721     9A     -1.388691
      10A     -1.371083    11A     -1.098048    12A     -0.986942
      13A     -0.862099    14A     -0.798340    15A     -0.735254
      16A     -0.712661    17A     -0.689543    18A     -0.657032
      19A     -0.622329    20A     -0.605314    21A     -0.581040
      22A     -0.560997    23A     -0.540687    24A     -0.522514
      25A     -0.474591    26A     -0.467700    27A     -0.447019

  @DF-RHF Final Energy:  -379.69960298777886

   => Energetics <=

    Nuclear Repulsion Energy =            317.8386093934739165
    One-Electron Energy =               -1149.7910451000398098
    Two-Electron Energy =                 452.2528327187870332
    Total Energy =                       -379.6996029877788601
  Basis Set: (AUG-CC-PVTZ AUX)
    Blend: AUG-CC-PVTZ-RI
    Molecular point group: c1

    Geometry (in Angstrom), charge = 0, multiplicity = 1:

       Center              X                  Y                   Z               Mass
    ------------   -----------------  -----------------  -----------------  -----------------
         O            1.040920886768     1.073033892108    -0.089386380635    15.994914619570
         O           -1.598886113232    -1.250304107892    -0.151163380635    15.994914619570
         O           -1.183047113232     1.555588892108    -0.061074380635    15.994914619570
         C            0.854341886768    -1.289462107892    -0.192135380635    12.000000000000
         C           -0.417735113232    -0.715379107892     0.402880619365    12.000000000000
         C            1.811182586768    -0.154920807892     0.058396719365    12.000000000000
         C           -0.272095113232     0.763284892108     0.069155619365    12.000000000000
         H            0.692971886768    -1.442642107892    -1.263320380635     1.007825032230
         H            1.176245886768    -2.230401107892     0.259235619365     1.007825032230
         H           -0.408184113232    -0.815966107892     1.502021619365     1.007825032230
         H            2.248734886768    -0.160191107892     1.066872619365     1.007825032230
         H            2.646450886768    -0.077655107892    -0.668352380635     1.007825032230
         H           -2.249343113232    -0.520448107892    -0.137514380635     1.007825032230

  Basis Set: AUG-CC-PVTZ
    Blend: AUG-CC-PVTZ
  Basis Set: (AUG-CC-PVTZ AUX)
    Blend: AUG-CC-PVTZ-JKFIT
	 Reference Energy          =    -379.6996029877788601 [Eh]
	 Singles Energy            =      -0.0000000000000000 [Eh]
	 Same-Spin Energy          =      -0.3686843426594135 [Eh]
	 Opposite-Spin Energy      =      -1.1367396713102558 [Eh]
	 Correlation Energy        =      -1.5054240139696693 [Eh]
	 Total Energy              =    -381.2050270017485332 [Eh]

	 ================> DF-SCS-MP2 Energies <==================
	-----------------------------------------------------------
	 SCS Same-Spin Scale       =       0.3333333333333333 [-]
	 SCS Opposite-Spin Scale   =       1.2000000000000000 [-]
	 SCS Same-Spin Energy      =      -0.1228947808864712 [Eh]
	 SCS Opposite-Spin Energy  =      -1.3640876055723068 [Eh]
	 SCS Correlation Energy    =      -1.4869823864587779 [Eh]
	 SCS Total Energy          =    -381.1865853742376657 [Eh]
	-----------------------------------------------------------

  Dipole Moment: [D]
     X:     2.6625      Y:    -2.3079      Z:     0.9854     Total:     3.6587

*** Psi4 exiting successfully. Buy a developer a beer!
