                               Psi4 1.3.2 release

  ==> Input File <==

--------------------------------------------------------------------------
#psi4
#
memory 32 gb

molecule  {
0 1
  O        1.0008990     1.1197090    -0.0959030
  O       -1.6389080    -1.2036290    -0.1576800
  O       -1.2230690     1.6022640    -0.0675910
  C        0.8143200    -1.2427870    -0.1986520
  C       -0.5285504    -0.8047223     0.3550571
  C        1.7925350    -0.0950530     0.0479070
  C       -0.3121170     0.8099600     0.0626390
  H        0.6529500    -1.3959670    -1.2698370
  H        1.1362240    -2.1837260     0.2527190
  H       -0.4482060    -0.7692910     1.4955050
  H        2.2087130    -0.1135160     1.0603560
  H        2.6064290    -0.0309800    -0.6748690
  H       -2.2893650    -0.4737730    -0.1440310
units angstrom
no_reorient  #important for SAPT in psi4, default
symmetry c1  #important for SAPT in psi4, default
}

set PROPERTIES_ORIGIN ["COM"]
properties('MP2/aug-cc-pvtz', properties = ['dipole'])
--------------------------------------------------------------------------

    Molecular point group: c1
  Charge       = 0
  Multiplicity = 1
  Basis Set: AUG-CC-PVTZ
    Blend: AUG-CC-PVTZ
  Basis Set: (AUG-CC-PVTZ AUX)
    Blend: AUG-CC-PVTZ-JKFIT

    Orbital Energies [Eh]
    ---------------------

    Doubly Occupied:

       1A    -20.617774     2A    -20.591190     3A    -20.555509
       4A    -11.385120     5A    -11.326457     6A    -11.316705
       7A    -11.256465     8A     -1.465710     9A     -1.438020
      10A     -1.369024    11A     -1.084450    12A     -0.972648
      13A     -0.848662    14A     -0.813106    15A     -0.734625
      16A     -0.727274    17A     -0.686773    18A     -0.661761
      19A     -0.635459    20A     -0.610515    21A     -0.594704
      22A     -0.552116    23A     -0.537561    24A     -0.523737
      25A     -0.466357    26A     -0.464408    27A     -0.413067

  @DF-RHF Final Energy:  -379.67886639898092

   => Energetics <=

    Nuclear Repulsion Energy =            316.8005929370843319
    One-Electron Energy =               -1147.6605274234186709
    Two-Electron Energy =                 451.1810680873534807
    Total Energy =                       -379.6788663989809152
  Basis Set: (AUG-CC-PVTZ AUX)
    Blend: AUG-CC-PVTZ-RI
    Molecular point group: c1

    Geometry (in Angstrom), charge = 0, multiplicity = 1:

       Center              X                  Y                   Z               Mass
    ------------   -----------------  -----------------  -----------------  -----------------
         O            1.046733092529     1.087479474078    -0.084060976553    15.994914619570
         O           -1.593073907471    -1.235858525922    -0.145837976553    15.994914619570
         O           -1.177234907471     1.570034474078    -0.055748976553    15.994914619570
         C            0.860154092529    -1.275016525922    -0.186809976553    12.000000000000
         C           -0.482716307471    -0.836951825922     0.366899123447    12.000000000000
         C            1.838369092529    -0.127282525922     0.059749023447    12.000000000000
         C           -0.266282907471     0.777730474078     0.074481023447    12.000000000000
         H            0.698784092529    -1.428196525922    -1.257994976553     1.007825032230
         H            1.182058092529    -2.215955525922     0.264561023447     1.007825032230
         H           -0.402371907471    -0.801520525922     1.507347023447     1.007825032230
         H            2.254547092529    -0.145745525922     1.072198023447     1.007825032230
         H            2.652263092529    -0.063209525922    -0.663026976553     1.007825032230
         H           -2.243530907471    -0.506002525922    -0.132188976553     1.007825032230

  Basis Set: AUG-CC-PVTZ
    Blend: AUG-CC-PVTZ
  Basis Set: (AUG-CC-PVTZ AUX)
    Blend: AUG-CC-PVTZ-JKFIT
	 Reference Energy          =    -379.6788663989809152 [Eh]
	 Singles Energy            =      -0.0000000000000000 [Eh]
	 Same-Spin Energy          =      -0.3689003323493420 [Eh]
	 Opposite-Spin Energy      =      -1.1354013323350123 [Eh]
	 Correlation Energy        =      -1.5043016646843543 [Eh]
	 Total Energy              =    -381.1831680636652777 [Eh]

	 ================> DF-SCS-MP2 Energies <==================
	-----------------------------------------------------------
	 SCS Same-Spin Scale       =       0.3333333333333333 [-]
	 SCS Opposite-Spin Scale   =       1.2000000000000000 [-]
	 SCS Same-Spin Energy      =      -0.1229667774497807 [Eh]
	 SCS Opposite-Spin Energy  =      -1.3624815988020147 [Eh]
	 SCS Correlation Energy    =      -1.4854483762517954 [Eh]
	 SCS Total Energy          =    -381.1643147752326968 [Eh]
	-----------------------------------------------------------

  Dipole Moment: [D]
     X:     2.3103      Y:    -2.4173      Z:     0.7543     Total:     3.4278

*** Psi4 exiting successfully. Buy a developer a beer!
