                               Psi4 1.3.2 release

  ==> Input File <==

--------------------------------------------------------------------------
#psi4
#
memory 32 gb

molecule  {
0 1
  O        1.0066587     1.1260315    -0.0719542
  O       -1.6389080    -1.2036290    -0.1576800
  O       -1.2230690     1.6022640    -0.0675910
  C        0.8143200    -1.2427870    -0.1986520
  C       -0.4577570    -0.6687040     0.3963640
  C        1.7925350    -0.0950530     0.0479070
  C       -0.3121170     0.8099600     0.0626390
  H        0.6529500    -1.3959670    -1.2698370
  H        1.1362240    -2.1837260     0.2527190
  H       -0.4482060    -0.7692910     1.4955050
  H        2.2087130    -0.1135160     1.0603560
  H        2.6064290    -0.0309800    -0.6748690
  H       -2.2893650    -0.4737730    -0.1440310
units angstrom
no_reorient  #important for SAPT in psi4, default
symmetry c1  #important for SAPT in psi4, default
}

set PROPERTIES_ORIGIN ["COM"]
properties('MP2/aug-cc-pvtz', properties = ['dipole'])
--------------------------------------------------------------------------

    Molecular point group: c1
  Charge       = 0
  Multiplicity = 1
  Basis Set: AUG-CC-PVTZ
    Blend: AUG-CC-PVTZ
  Basis Set: (AUG-CC-PVTZ AUX)
    Blend: AUG-CC-PVTZ-JKFIT

    Orbital Energies [Eh]
    ---------------------

    Doubly Occupied:

       1A    -20.620084     2A    -20.581173     3A    -20.560844
       4A    -11.393271     5A    -11.318929     6A    -11.316757
       7A    -11.259122     8A     -1.468295     9A     -1.388397
      10A     -1.371002    11A     -1.093642    12A     -0.987641
      13A     -0.861946    14A     -0.797492    15A     -0.733224
      16A     -0.714385    17A     -0.688450    18A     -0.659202
      19A     -0.622258    20A     -0.603987    21A     -0.582363
      22A     -0.560309    23A     -0.536033    24A     -0.523316
      25A     -0.475111    26A     -0.468311    27A     -0.447275

  @DF-RHF Final Energy:  -379.70040602652654

   => Energetics <=

    Nuclear Repulsion Energy =            317.2972153271356319
    One-Electron Energy =               -1148.7296056352631695
    Two-Electron Energy =                 451.7319842816010009
    Total Energy =                       -379.7004060265265366
  Basis Set: (AUG-CC-PVTZ AUX)
    Blend: AUG-CC-PVTZ-RI
    Molecular point group: c1

    Geometry (in Angstrom), charge = 0, multiplicity = 1:

       Center              X                  Y                   Z               Mass
    ------------   -----------------  -----------------  -----------------  -----------------
         O            1.043263829720     1.076813650364    -0.068724616240    15.994914619570
         O           -1.602302870280    -1.252846849636    -0.154450416240    15.994914619570
         O           -1.186463870280     1.553046150364    -0.064361416240    15.994914619570
         C            0.850925129720    -1.292004849636    -0.195422416240    12.000000000000
         C           -0.421151870280    -0.717921849636     0.399593583760    12.000000000000
         C            1.829140129720    -0.144270849636     0.051136583760    12.000000000000
         C           -0.275511870280     0.760742150364     0.065868583760    12.000000000000
         H            0.689555129720    -1.445184849636    -1.266607416240     1.007825032230
         H            1.172829129720    -2.232943849636     0.255948583760     1.007825032230
         H           -0.411600870280    -0.818508849636     1.498734583760     1.007825032230
         H            2.245318129720    -0.162733849636     1.063585583760     1.007825032230
         H            2.643034129720    -0.080197849636    -0.671639416240     1.007825032230
         H           -2.252759870280    -0.522990849636    -0.140801416240     1.007825032230

  Basis Set: AUG-CC-PVTZ
    Blend: AUG-CC-PVTZ
  Basis Set: (AUG-CC-PVTZ AUX)
    Blend: AUG-CC-PVTZ-JKFIT
	 Reference Energy          =    -379.7004060265265366 [Eh]
	 Singles Energy            =      -0.0000000000000000 [Eh]
	 Same-Spin Energy          =      -0.3684753726075918 [Eh]
	 Opposite-Spin Energy      =      -1.1366305713538141 [Eh]
	 Correlation Energy        =      -1.5051059439614058 [Eh]
	 Total Energy              =    -381.2055119704879189 [Eh]

	 ================> DF-SCS-MP2 Energies <==================
	-----------------------------------------------------------
	 SCS Same-Spin Scale       =       0.3333333333333333 [-]
	 SCS Opposite-Spin Scale   =       1.2000000000000000 [-]
	 SCS Same-Spin Energy      =      -0.1228251242025306 [Eh]
	 SCS Opposite-Spin Energy  =      -1.3639566856245768 [Eh]
	 SCS Correlation Energy    =      -1.4867818098271075 [Eh]
	 SCS Total Energy          =    -381.1871878363536439 [Eh]
	-----------------------------------------------------------

  Dipole Moment: [D]
     X:     2.6636      Y:    -2.2952      Z:     0.9539     Total:     3.6431

*** Psi4 exiting successfully. Buy a developer a beer!
