                               Psi4 1.4a3.dev225

  ==> Input File <==

--------------------------------------------------------------------------
#psi4
#
memory 32 gb

molecule  {
0 1
  O        1.0008990     1.1197090    -0.0959030
  O       -1.6389080    -1.2036290    -0.1576800
  O       -1.2230690     1.6022640    -0.0675910
  C        0.8143200    -1.2427870    -0.1986520
  C       -0.4410036    -0.6611167     0.4042225
  C        1.7925350    -0.0950530     0.0479070
  C       -0.3121170     0.8099600     0.0626390
  H        0.6529500    -1.3959670    -1.2698370
  H        1.1362240    -2.1837260     0.2527190
  H       -0.4482060    -0.7692910     1.4955050
  H        2.2087130    -0.1135160     1.0603560
  H        2.6064290    -0.0309800    -0.6748690
  H       -2.2893650    -0.4737730    -0.1440310
units angstrom
no_reorient  #important for SAPT in psi4, default
symmetry c1  #important for SAPT in psi4, default
}

set PROPERTIES_ORIGIN ["COM"]
properties('MP2/aug-cc-pvtz', properties = ['dipole'])
--------------------------------------------------------------------------

    Molecular point group: c1
  Charge       = 0
  Multiplicity = 1
  Basis Set: AUG-CC-PVTZ
    Blend: AUG-CC-PVTZ
  Basis Set: (AUG-CC-PVTZ AUX)
    Blend: AUG-CC-PVTZ-JKFIT

    Orbital Energies [Eh]
    ---------------------

    Doubly Occupied:

       1A    -20.620476     2A    -20.579157     3A    -20.560661
       4A    -11.393300     5A    -11.318180     6A    -11.317550
       7A    -11.259315     8A     -1.470393     9A     -1.383551
      10A     -1.368088    11A     -1.096280    12A     -0.989746
      13A     -0.863544    14A     -0.796504    15A     -0.735375
      16A     -0.712168    17A     -0.688064    18A     -0.658537
      19A     -0.621383    20A     -0.605528    21A     -0.579407
      22A     -0.559250    23A     -0.535581    24A     -0.523060
      25A     -0.477132    26A     -0.468742    27A     -0.449101

  @DF-RHF Final Energy:  -379.69983902734310

   => Energetics <=

    Nuclear Repulsion Energy =            317.4828232994610175
    One-Electron Energy =               -1149.1051774341585769
    Two-Electron Energy =                 451.9225151073545135
    Total Energy =                       -379.6998390273431028
  Basis Set: (AUG-CC-PVTZ AUX)
    Blend: AUG-CC-PVTZ-RI
    Molecular point group: c1

    Geometry (in Angstrom), charge = 0, multiplicity = 1:

       Center              X                  Y                   Z               Mass
    ------------   -----------------  -----------------  -----------------  -----------------
         O            1.036436668367     1.070589945623    -0.089843344526    15.994914619570
         O           -1.603370331633    -1.252748054377    -0.151620344526    15.994914619570
         O           -1.187531331633     1.553144945623    -0.061531344526    15.994914619570
         C            0.849857668367    -1.291906054377    -0.192592344526    12.000000000000
         C           -0.405465931633    -0.710235754377     0.410282155474    12.000000000000
         C            1.828072668367    -0.144172054377     0.053966655474    12.000000000000
         C           -0.276579331633     0.760840945623     0.068698655474    12.000000000000
         H            0.688487668367    -1.445086054377    -1.263777344526     1.007825032230
         H            1.171761668367    -2.232845054377     0.258778655474     1.007825032230
         H           -0.412668331633    -0.818410054377     1.501564655474     1.007825032230
         H            2.244250668367    -0.162635054377     1.066415655474     1.007825032230
         H            2.641966668367    -0.080099054377    -0.668809344526     1.007825032230
         H           -2.253827331633    -0.522892054377    -0.137971344526     1.007825032230

  Basis Set: AUG-CC-PVTZ
    Blend: AUG-CC-PVTZ
  Basis Set: (AUG-CC-PVTZ AUX)
    Blend: AUG-CC-PVTZ-JKFIT
	 Reference Energy          =    -379.6998390273431028 [Eh]
	 Singles Energy            =      -0.0000000000000000 [Eh]
	 Same-Spin Energy          =      -0.3685576296219645 [Eh]
	 Opposite-Spin Energy      =      -1.1368971394359897 [Eh]
	 Correlation Energy        =      -1.5054547690579541 [Eh]
	 Total Energy              =    -381.2052937964010653 [Eh]

	 ================> DF-SCS-MP2 Energies <==================
	-----------------------------------------------------------
	 SCS Same-Spin Scale       =       0.3333333333333333 [-]
	 SCS Opposite-Spin Scale   =       1.2000000000000000 [-]
	 SCS Same-Spin Energy      =      -0.1228525432073215 [Eh]
	 SCS Opposite-Spin Energy  =      -1.3642765673231876 [Eh]
	 SCS Correlation Energy    =      -1.4871291105305091 [Eh]
	 SCS Total Energy          =    -381.1869681378736345 [Eh]
	-----------------------------------------------------------

  Dipole Moment: [D]
     X:     2.7582      Y:    -2.2707      Z:     1.0077     Total:     3.7120

*** Psi4 exiting successfully. Buy a developer a beer!
