                               Psi4 1.3.2 release

  ==> Input File <==

--------------------------------------------------------------------------
#psi4
#
memory 32 gb

molecule  {
0 1
  O        1.0008990     1.1197090    -0.0959030
  O       -1.5995598    -1.3325100    -0.0974733
  O       -1.2230690     1.6022640    -0.0675910
  C        0.8143200    -1.2427870    -0.1986520
  C       -0.4577570    -0.6687040     0.3963640
  C        1.7925350    -0.0950530     0.0479070
  C       -0.3121170     0.8099600     0.0626390
  H        0.6529500    -1.3959670    -1.2698370
  H        1.1362240    -2.1837260     0.2527190
  H       -0.4482060    -0.7692910     1.4955050
  H        2.2087130    -0.1135160     1.0603560
  H        2.6064290    -0.0309800    -0.6748690
  H       -2.2893650    -0.4737730    -0.1440310
units angstrom
no_reorient  #important for SAPT in psi4, default
symmetry c1  #important for SAPT in psi4, default
}

set PROPERTIES_ORIGIN ["COM"]
properties('MP2/aug-cc-pvtz', properties = ['dipole'])
--------------------------------------------------------------------------

    Molecular point group: c1
  Charge       = 0
  Multiplicity = 1
  Basis Set: AUG-CC-PVTZ
    Blend: AUG-CC-PVTZ
  Basis Set: (AUG-CC-PVTZ AUX)
    Blend: AUG-CC-PVTZ-JKFIT

    Orbital Energies [Eh]
    ---------------------

    Doubly Occupied:

       1A    -20.622646     2A    -20.592995     3A    -20.563484
       4A    -11.396629     5A    -11.316690     6A    -11.316331
       7A    -11.256217     8A     -1.471390     9A     -1.381129
      10A     -1.364348    11A     -1.089366    12A     -0.986339
      13A     -0.862349    14A     -0.789331    15A     -0.735383
      16A     -0.703683    17A     -0.679188    18A     -0.656173
      19A     -0.624086    20A     -0.604073    21A     -0.578095
      22A     -0.561188    23A     -0.532711    24A     -0.524814
      25A     -0.471534    26A     -0.467754    27A     -0.448987

  @DF-RHF Final Energy:  -379.67914535377338

   => Energetics <=

    Nuclear Repulsion Energy =            316.2283106444167515
    One-Electron Energy =               -1146.6210822538835146
    Two-Electron Energy =                 450.7136262556933843
    Total Energy =                       -379.6791453537733787
  Basis Set: (AUG-CC-PVTZ AUX)
    Blend: AUG-CC-PVTZ-RI
    Molecular point group: c1

    Geometry (in Angstrom), charge = 0, multiplicity = 1:

       Center              X                  Y                   Z               Mass
    ------------   -----------------  -----------------  -----------------  -----------------
         O            1.032238656137     1.091686215866    -0.098357356119    15.994914619570
         O           -1.568220143863    -1.360532784134    -0.099927656119    15.994914619570
         O           -1.191729343863     1.574241215866    -0.070045356119    15.994914619570
         C            0.845659656137    -1.270809784134    -0.201106356119    12.000000000000
         C           -0.426417343863    -0.696726784134     0.393909643881    12.000000000000
         C            1.823874656137    -0.123075784134     0.045452643881    12.000000000000
         C           -0.280777343863     0.781937215866     0.060184643881    12.000000000000
         H            0.684289656137    -1.423989784134    -1.272291356119     1.007825032230
         H            1.167563656137    -2.211748784134     0.250264643881     1.007825032230
         H           -0.416866343863    -0.797313784134     1.493050643881     1.007825032230
         H            2.240052656137    -0.141538784134     1.057901643881     1.007825032230
         H            2.637768656137    -0.059002784134    -0.677323356119     1.007825032230
         H           -2.258025343863    -0.501795784134    -0.146485356119     1.007825032230

  Basis Set: AUG-CC-PVTZ
    Blend: AUG-CC-PVTZ
  Basis Set: (AUG-CC-PVTZ AUX)
    Blend: AUG-CC-PVTZ-JKFIT
	 Reference Energy          =    -379.6791453537733787 [Eh]
	 Singles Energy            =      -0.0000000000000000 [Eh]
	 Same-Spin Energy          =      -0.3703511171747457 [Eh]
	 Opposite-Spin Energy      =      -1.1413903521137383 [Eh]
	 Correlation Energy        =      -1.5117414692884839 [Eh]
	 Total Energy              =    -381.1908868230618737 [Eh]

	 ================> DF-SCS-MP2 Energies <==================
	-----------------------------------------------------------
	 SCS Same-Spin Scale       =       0.3333333333333333 [-]
	 SCS Opposite-Spin Scale   =       1.2000000000000000 [-]
	 SCS Same-Spin Energy      =      -0.1234503723915819 [Eh]
	 SCS Opposite-Spin Energy  =      -1.3696684225364859 [Eh]
	 SCS Correlation Energy    =      -1.4931187949280678 [Eh]
	 SCS Total Energy          =    -381.1722641487014585 [Eh]
	-----------------------------------------------------------

  Dipole Moment: [D]
     X:     2.6445      Y:    -2.0872      Z:     0.8425     Total:     3.4727

*** Psi4 exiting successfully. Buy a developer a beer!
