                               Psi4 1.3.2 release

  ==> Input File <==

--------------------------------------------------------------------------
#psi4
#
memory 32 gb

molecule  {
0 1
  O        1.0118748     1.0746880    -0.0858730
  O       -1.6389080    -1.2036290    -0.1576800
  O       -1.2230690     1.6022640    -0.0675910
  C        0.8143200    -1.2427870    -0.1986520
  C       -0.4577570    -0.6687040     0.3963640
  C        1.7925350    -0.0950530     0.0479070
  C       -0.3121170     0.8099600     0.0626390
  H        0.6529500    -1.3959670    -1.2698370
  H        1.1362240    -2.1837260     0.2527190
  H       -0.4482060    -0.7692910     1.4955050
  H        2.2087130    -0.1135160     1.0603560
  H        2.6064290    -0.0309800    -0.6748690
  H       -2.2893650    -0.4737730    -0.1440310
units angstrom
no_reorient  #important for SAPT in psi4, default
symmetry c1  #important for SAPT in psi4, default
}

set PROPERTIES_ORIGIN ["COM"]
properties('MP2/aug-cc-pvtz', properties = ['dipole'])
--------------------------------------------------------------------------

    Molecular point group: c1
  Charge       = 0
  Multiplicity = 1
  Basis Set: AUG-CC-PVTZ
    Blend: AUG-CC-PVTZ
  Basis Set: (AUG-CC-PVTZ AUX)
    Blend: AUG-CC-PVTZ-JKFIT

    Orbital Energies [Eh]
    ---------------------

    Doubly Occupied:

       1A    -20.620338     2A    -20.580245     3A    -20.563809
       4A    -11.395789     5A    -11.316789     6A    -11.313256
       7A    -11.256378     8A     -1.478463     9A     -1.391758
      10A     -1.374512    11A     -1.090125    12A     -0.994877
      13A     -0.862596    14A     -0.798851    15A     -0.738178
      16A     -0.716660    17A     -0.690034    18A     -0.663148
      19A     -0.627751    20A     -0.603388    21A     -0.583670
      22A     -0.559691    23A     -0.533177    24A     -0.523090
      25A     -0.474323    26A     -0.467944    27A     -0.446776

  @DF-RHF Final Energy:  -379.70084101369395

   => Energetics <=

    Nuclear Repulsion Energy =            318.3961411053401775
    One-Electron Energy =               -1150.8627277004786720
    Two-Electron Energy =                 452.7657455814446052
    Total Energy =                       -379.7008410136939460
  Basis Set: (AUG-CC-PVTZ AUX)
    Blend: AUG-CC-PVTZ-RI
    Molecular point group: c1

    Geometry (in Angstrom), charge = 0, multiplicity = 1:

       Center              X                  Y                   Z               Mass
    ------------   -----------------  -----------------  -----------------  -----------------
         O            1.047662232093     1.033518971922    -0.080461447003    15.994914619570
         O           -1.603120567907    -1.244798028078    -0.152268447003    15.994914619570
         O           -1.187281567907     1.561094971922    -0.062179447003    15.994914619570
         C            0.850107432093    -1.283956028078    -0.193240447003    12.000000000000
         C           -0.421969567907    -0.709873028078     0.401775552997    12.000000000000
         C            1.828322432093    -0.136222028078     0.053318552997    12.000000000000
         C           -0.276329567907     0.768790971922     0.068050552997    12.000000000000
         H            0.688737432093    -1.437136028078    -1.264425447003     1.007825032230
         H            1.172011432093    -2.224895028078     0.258130552997     1.007825032230
         H           -0.412418567907    -0.810460028078     1.500916552997     1.007825032230
         H            2.244500432093    -0.154685028078     1.065767552997     1.007825032230
         H            2.642216432093    -0.072149028078    -0.669457447003     1.007825032230
         H           -2.253577567907    -0.514942028078    -0.138619447003     1.007825032230

  Basis Set: AUG-CC-PVTZ
    Blend: AUG-CC-PVTZ
  Basis Set: (AUG-CC-PVTZ AUX)
    Blend: AUG-CC-PVTZ-JKFIT
	 Reference Energy          =    -379.7008410136939460 [Eh]
	 Singles Energy            =      -0.0000000000000000 [Eh]
	 Same-Spin Energy          =      -0.3683244875844702 [Eh]
	 Opposite-Spin Energy      =      -1.1354922475168441 [Eh]
	 Correlation Energy        =      -1.5038167351013143 [Eh]
	 Total Energy              =    -381.2046577487952845 [Eh]

	 ================> DF-SCS-MP2 Energies <==================
	-----------------------------------------------------------
	 SCS Same-Spin Scale       =       0.3333333333333333 [-]
	 SCS Opposite-Spin Scale   =       1.2000000000000000 [-]
	 SCS Same-Spin Energy      =      -0.1227748291948234 [Eh]
	 SCS Opposite-Spin Energy  =      -1.3625906970202128 [Eh]
	 SCS Correlation Energy    =      -1.4853655262150363 [Eh]
	 SCS Total Energy          =    -381.1862065399089943 [Eh]
	-----------------------------------------------------------

  Dipole Moment: [D]
     X:     2.6304      Y:    -2.1356      Z:     0.9562     Total:     3.5205

*** Psi4 exiting successfully. Buy a developer a beer!
