                               Psi4 1.3.2 release

  ==> Input File <==

--------------------------------------------------------------------------
#psi4
#
memory 32 gb

molecule  {
0 1
  O        0.9901048     1.1059560    -0.1436618
  O       -1.6389080    -1.2036290    -0.1576800
  O       -1.2230690     1.6022640    -0.0675910
  C        0.8143200    -1.2427870    -0.1986520
  C       -0.4577570    -0.6687040     0.3963640
  C        1.7925350    -0.0950530     0.0479070
  C       -0.3121170     0.8099600     0.0626390
  H        0.6529500    -1.3959670    -1.2698370
  H        1.1362240    -2.1837260     0.2527190
  H       -0.4482060    -0.7692910     1.4955050
  H        2.2087130    -0.1135160     1.0603560
  H        2.6064290    -0.0309800    -0.6748690
  H       -2.2893650    -0.4737730    -0.1440310
units angstrom
no_reorient  #important for SAPT in psi4, default
symmetry c1  #important for SAPT in psi4, default
}

set PROPERTIES_ORIGIN ["COM"]
properties('MP2/aug-cc-pvtz', properties = ['dipole'])
--------------------------------------------------------------------------

    Molecular point group: c1
  Charge       = 0
  Multiplicity = 1
  Basis Set: AUG-CC-PVTZ
    Blend: AUG-CC-PVTZ
  Basis Set: (AUG-CC-PVTZ AUX)
    Blend: AUG-CC-PVTZ-JKFIT

    Orbital Energies [Eh]
    ---------------------

    Doubly Occupied:

       1A    -20.620902     2A    -20.580855     3A    -20.558735
       4A    -11.391692     5A    -11.318016     6A    -11.317959
       7A    -11.258418     8A     -1.472267     9A     -1.388303
      10A     -1.370359    11A     -1.093337    12A     -0.989066
      13A     -0.862506    14A     -0.797529    15A     -0.737000
      16A     -0.713609    17A     -0.689385    18A     -0.656996
      19A     -0.622426    20A     -0.605674    21A     -0.582125
      22A     -0.559920    23A     -0.534588    24A     -0.524118
      25A     -0.474826    26A     -0.468622    27A     -0.446207

  @DF-RHF Final Energy:  -379.70090830084433

   => Energetics <=

    Nuclear Repulsion Energy =            317.7644279465475279
    One-Electron Energy =               -1149.6597963636161239
    Two-Electron Energy =                 452.1944601162242066
    Total Energy =                       -379.7009083008443326
  Basis Set: (AUG-CC-PVTZ AUX)
    Blend: AUG-CC-PVTZ-RI
    Molecular point group: c1

    Geometry (in Angstrom), charge = 0, multiplicity = 1:

       Center              X                  Y                   Z               Mass
    ------------   -----------------  -----------------  -----------------  -----------------
         O            1.029304988242     1.059885269613    -0.129191033290    15.994914619570
         O           -1.599707811758    -1.249699730387    -0.143209233290    15.994914619570
         O           -1.183868811758     1.556193269613    -0.053120233290    15.994914619570
         C            0.853520188242    -1.288857730387    -0.184181233290    12.000000000000
         C           -0.418556811758    -0.714774730387     0.410834766710    12.000000000000
         C            1.831735188242    -0.141123730387     0.062377766710    12.000000000000
         C           -0.272916811758     0.763889269613     0.077109766710    12.000000000000
         H            0.692150188242    -1.442037730387    -1.255366233290     1.007825032230
         H            1.175424188242    -2.229796730387     0.267189766710     1.007825032230
         H           -0.409005811758    -0.815361730387     1.509975766710     1.007825032230
         H            2.247913188242    -0.159586730387     1.074826766710     1.007825032230
         H            2.645629188242    -0.077050730387    -0.660398233290     1.007825032230
         H           -2.250164811758    -0.519843730387    -0.129560233290     1.007825032230

  Basis Set: AUG-CC-PVTZ
    Blend: AUG-CC-PVTZ
  Basis Set: (AUG-CC-PVTZ AUX)
    Blend: AUG-CC-PVTZ-JKFIT
	 Reference Energy          =    -379.7009083008443326 [Eh]
	 Singles Energy            =      -0.0000000000000000 [Eh]
	 Same-Spin Energy          =      -0.3683785259447319 [Eh]
	 Opposite-Spin Energy      =      -1.1361844075861907 [Eh]
	 Correlation Energy        =      -1.5045629335309225 [Eh]
	 Total Energy              =    -381.2054712343752385 [Eh]

	 ================> DF-SCS-MP2 Energies <==================
	-----------------------------------------------------------
	 SCS Same-Spin Scale       =       0.3333333333333333 [-]
	 SCS Opposite-Spin Scale   =       1.2000000000000000 [-]
	 SCS Same-Spin Energy      =      -0.1227928419815773 [Eh]
	 SCS Opposite-Spin Energy  =      -1.3634212891034287 [Eh]
	 SCS Correlation Energy    =      -1.4862141310850061 [Eh]
	 SCS Total Energy          =    -381.1871224319293106 [Eh]
	-----------------------------------------------------------

  Dipole Moment: [D]
     X:     2.7494      Y:    -2.2729      Z:     1.0328     Total:     3.7137

*** Psi4 exiting successfully. Buy a developer a beer!
