                               Psi4 1.4a3.dev225

  ==> Input File <==

--------------------------------------------------------------------------
#psi4
#
memory 32 gb

molecule  {
0 1
  O        1.0008990     1.1197090    -0.0959030
  O       -1.6389080    -1.2036290    -0.1576800
  O       -1.2230690     1.6022640    -0.0675910
  C        0.8143200    -1.2427870    -0.1986520
  C       -0.4577570    -0.6687040     0.3963640
  C        1.8034012    -0.1117272     0.0498810
  C       -0.3121170     0.8099600     0.0626390
  H        0.6529500    -1.3959670    -1.2698370
  H        1.1362240    -2.1837260     0.2527190
  H       -0.4482060    -0.7692910     1.4955050
  H        2.2087130    -0.1135160     1.0603560
  H        2.6064290    -0.0309800    -0.6748690
  H       -2.2893650    -0.4737730    -0.1440310
units angstrom
no_reorient  #important for SAPT in psi4, default
symmetry c1  #important for SAPT in psi4, default
}

set PROPERTIES_ORIGIN ["COM"]
properties('MP2/aug-cc-pvtz', properties = ['dipole'])
--------------------------------------------------------------------------

    Molecular point group: c1
  Charge       = 0
  Multiplicity = 1
  Basis Set: AUG-CC-PVTZ
    Blend: AUG-CC-PVTZ
  Basis Set: (AUG-CC-PVTZ AUX)
    Blend: AUG-CC-PVTZ-JKFIT

    Orbital Energies [Eh]
    ---------------------

    Doubly Occupied:

       1A    -20.618276     2A    -20.580989     3A    -20.558743
       4A    -11.391383     5A    -11.318531     6A    -11.317879
       7A    -11.259389     8A     -1.465287     9A     -1.387041
      10A     -1.368752    11A     -1.094491    12A     -0.988107
      13A     -0.862024    14A     -0.796011    15A     -0.733215
      16A     -0.713759    17A     -0.687429    18A     -0.657502
      19A     -0.620701    20A     -0.604892    21A     -0.581728
      22A     -0.560329    23A     -0.537115    24A     -0.523103
      25A     -0.475390    26A     -0.468646    27A     -0.445886

  @DF-RHF Final Energy:  -379.70014158971799

   => Energetics <=

    Nuclear Repulsion Energy =            317.1799135637360223
    One-Electron Energy =               -1148.5269214501847728
    Two-Electron Energy =                 451.6468662967307637
    Total Energy =                       -379.7001415897179868
  Basis Set: (AUG-CC-PVTZ AUX)
    Blend: AUG-CC-PVTZ-RI
    Molecular point group: c1

    Geometry (in Angstrom), charge = 0, multiplicity = 1:

       Center              X                  Y                   Z               Mass
    ------------   -----------------  -----------------  -----------------  -----------------
         O            1.037129064986     1.073443353113    -0.089151265456    15.994914619570
         O           -1.602677935014    -1.249894646887    -0.150928265456    15.994914619570
         O           -1.186838935014     1.555998353113    -0.060839265456    15.994914619570
         C            0.850550064986    -1.289052646887    -0.191900265456    12.000000000000
         C           -0.421526935014    -0.714969646887     0.403115734544    12.000000000000
         C            1.839631264986    -0.157992846887     0.056632734544    12.000000000000
         C           -0.275886935014     0.763694353113     0.069390734544    12.000000000000
         H            0.689180064986    -1.442232646887    -1.263085265456     1.007825032230
         H            1.172454064986    -2.229991646887     0.259470734544     1.007825032230
         H           -0.411975935014    -0.815556646887     1.502256734544     1.007825032230
         H            2.244943064986    -0.159781646887     1.067107734544     1.007825032230
         H            2.642659064986    -0.077245646887    -0.668117265456     1.007825032230
         H           -2.253134935014    -0.520038646887    -0.137279265456     1.007825032230

  Basis Set: AUG-CC-PVTZ
    Blend: AUG-CC-PVTZ
  Basis Set: (AUG-CC-PVTZ AUX)
    Blend: AUG-CC-PVTZ-JKFIT
	 Reference Energy          =    -379.7001415897179868 [Eh]
	 Singles Energy            =      -0.0000000000000000 [Eh]
	 Same-Spin Energy          =      -0.3684738496047411 [Eh]
	 Opposite-Spin Energy      =      -1.1367063926221599 [Eh]
	 Correlation Energy        =      -1.5051802422269009 [Eh]
	 Total Energy              =    -381.2053218319449002 [Eh]

	 ================> DF-SCS-MP2 Energies <==================
	-----------------------------------------------------------
	 SCS Same-Spin Scale       =       0.3333333333333333 [-]
	 SCS Opposite-Spin Scale   =       1.2000000000000000 [-]
	 SCS Same-Spin Energy      =      -0.1228246165349137 [Eh]
	 SCS Opposite-Spin Energy  =      -1.3640476711465919 [Eh]
	 SCS Correlation Energy    =      -1.4868722876815055 [Eh]
	 SCS Total Energy          =    -381.1870138773994654 [Eh]
	-----------------------------------------------------------

  Dipole Moment: [D]
     X:     2.7473      Y:    -2.3390      Z:     0.9870     Total:     3.7407

*** Psi4 exiting successfully. Buy a developer a beer!
