                               Psi4 1.3.2 release

  ==> Input File <==

--------------------------------------------------------------------------
#psi4
#
memory 32 gb

molecule  {
0 1
  O        1.0008990     1.1197090    -0.0959030
  O       -1.6389080    -1.2036290    -0.1576800
  O       -1.2230690     1.6022640    -0.0675910
  C        0.8143200    -1.2427870    -0.1986520
  C       -0.4705466    -0.6909764     0.3899209
  C        1.7925350    -0.0950530     0.0479070
  C       -0.3121170     0.8099600     0.0626390
  H        0.6529500    -1.3959670    -1.2698370
  H        1.1362240    -2.1837260     0.2527190
  H       -0.4482060    -0.7692910     1.4955050
  H        2.2087130    -0.1135160     1.0603560
  H        2.6064290    -0.0309800    -0.6748690
  H       -2.2893650    -0.4737730    -0.1440310
units angstrom
no_reorient  #important for SAPT in psi4, default
symmetry c1  #important for SAPT in psi4, default
}

set PROPERTIES_ORIGIN ["COM"]
properties('MP2/aug-cc-pvtz', properties = ['dipole'])
--------------------------------------------------------------------------

    Molecular point group: c1
  Charge       = 0
  Multiplicity = 1
  Basis Set: AUG-CC-PVTZ
    Blend: AUG-CC-PVTZ
  Basis Set: (AUG-CC-PVTZ AUX)
    Blend: AUG-CC-PVTZ-JKFIT

    Orbital Energies [Eh]
    ---------------------

    Doubly Occupied:

       1A    -20.620140     2A    -20.582548     3A    -20.559306
       4A    -11.391903     5A    -11.319393     6A    -11.317136
       7A    -11.258264     8A     -1.468638     9A     -1.395068
      10A     -1.371688    11A     -1.091772    12A     -0.985115
      13A     -0.859693    14A     -0.799144    15A     -0.733410
      16A     -0.717134    17A     -0.688745    18A     -0.658982
      19A     -0.623415    20A     -0.603919    21A     -0.586682
      22A     -0.559205    23A     -0.535750    24A     -0.523994
      25A     -0.474033    26A     -0.468036    27A     -0.442175

  @DF-RHF Final Energy:  -379.70071396355723

   => Energetics <=

    Nuclear Repulsion Energy =            317.3350357168717437
    One-Electron Energy =               -1148.8009240397598205
    Two-Electron Energy =                 451.7651743593308424
    Total Energy =                       -379.7007139635572344
  Basis Set: (AUG-CC-PVTZ AUX)
    Blend: AUG-CC-PVTZ-RI
    Molecular point group: c1

    Geometry (in Angstrom), charge = 0, multiplicity = 1:

       Center              X                  Y                   Z               Mass
    ------------   -----------------  -----------------  -----------------  -----------------
         O            1.039911235787     1.074101760293    -0.088161325997    15.994914619570
         O           -1.599895764213    -1.249236239707    -0.149938325997    15.994914619570
         O           -1.184056764213     1.556656760293    -0.059849325997    15.994914619570
         C            0.853332235787    -1.288394239707    -0.190910325997    12.000000000000
         C           -0.431534364213    -0.736583639707     0.397662574003    12.000000000000
         C            1.831547235787    -0.140660239707     0.055648674003    12.000000000000
         C           -0.273104764213     0.764352760293     0.070380674003    12.000000000000
         H            0.691962235787    -1.441574239707    -1.262095325997     1.007825032230
         H            1.175236235787    -2.229333239707     0.260460674003     1.007825032230
         H           -0.409193764213    -0.814898239707     1.503246674003     1.007825032230
         H            2.247725235787    -0.159123239707     1.068097674003     1.007825032230
         H            2.645441235787    -0.076587239707    -0.667127325997     1.007825032230
         H           -2.250352764213    -0.519380239707    -0.136289325997     1.007825032230

  Basis Set: AUG-CC-PVTZ
    Blend: AUG-CC-PVTZ
  Basis Set: (AUG-CC-PVTZ AUX)
    Blend: AUG-CC-PVTZ-JKFIT
	 Reference Energy          =    -379.7007139635572344 [Eh]
	 Singles Energy            =      -0.0000000000000000 [Eh]
	 Same-Spin Energy          =      -0.3683374313812217 [Eh]
	 Opposite-Spin Energy      =      -1.1359678610553843 [Eh]
	 Correlation Energy        =      -1.5043052924366060 [Eh]
	 Total Energy              =    -381.2050192559938182 [Eh]

	 ================> DF-SCS-MP2 Energies <==================
	-----------------------------------------------------------
	 SCS Same-Spin Scale       =       0.3333333333333333 [-]
	 SCS Opposite-Spin Scale   =       1.2000000000000000 [-]
	 SCS Same-Spin Energy      =      -0.1227791437937406 [Eh]
	 SCS Opposite-Spin Energy  =      -1.3631614332664610 [Eh]
	 SCS Correlation Energy    =      -1.4859405770602017 [Eh]
	 SCS Total Energy          =    -381.1866545406174396 [Eh]
	-----------------------------------------------------------

  Dipole Moment: [D]
     X:     2.6382      Y:    -2.3055      Z:     0.9485     Total:     3.6297

*** Psi4 exiting successfully. Buy a developer a beer!
