                               Psi4 1.3.2 release

  ==> Input File <==

--------------------------------------------------------------------------
#psi4
#
memory 32 gb

molecule  {
0 1
  O        1.0008990     1.1197090    -0.0959030
  O       -1.6389080    -1.2036290    -0.1576800
  O       -1.2230690     1.6022640    -0.0675910
  C        0.8143200    -1.2427870    -0.1986520
  C       -0.4577570    -0.6687040     0.3963640
  C        1.7925350    -0.0950530     0.0479070
  C       -0.3121170     0.8099600     0.0626390
  H        0.6479943    -1.3776061    -1.2715459
  H        1.1362240    -2.1837260     0.2527190
  H       -0.4482060    -0.7692910     1.4955050
  H        2.2087130    -0.1135160     1.0603560
  H        2.6064290    -0.0309800    -0.6748690
  H       -2.2893650    -0.4737730    -0.1440310
units angstrom
no_reorient  #important for SAPT in psi4, default
symmetry c1  #important for SAPT in psi4, default
}

set PROPERTIES_ORIGIN ["COM"]
properties('MP2/aug-cc-pvtz', properties = ['dipole'])
--------------------------------------------------------------------------

    Molecular point group: c1
  Charge       = 0
  Multiplicity = 1
  Basis Set: AUG-CC-PVTZ
    Blend: AUG-CC-PVTZ
  Basis Set: (AUG-CC-PVTZ AUX)
    Blend: AUG-CC-PVTZ-JKFIT

    Orbital Energies [Eh]
    ---------------------

    Doubly Occupied:

       1A    -20.620437     2A    -20.581057     3A    -20.560021
       4A    -11.392679     5A    -11.318492     6A    -11.317154
       7A    -11.259014     8A     -1.469801     9A     -1.388389
      10A     -1.370762    11A     -1.093768    12A     -0.988159
      13A     -0.861899    14A     -0.797520    15A     -0.734934
      16A     -0.714187    17A     -0.688507    18A     -0.658509
      19A     -0.622112    20A     -0.604663    21A     -0.582507
      22A     -0.560810    23A     -0.535043    24A     -0.523843
      25A     -0.474873    26A     -0.468417    27A     -0.446940

  @DF-RHF Final Energy:  -379.70074036684758

   => Energetics <=

    Nuclear Repulsion Energy =            317.4970761777808548
    One-Electron Energy =               -1149.1266444816887997
    Two-Electron Energy =                 451.9288279370603618
    Total Energy =                       -379.7007403668475831
  Basis Set: (AUG-CC-PVTZ AUX)
    Blend: AUG-CC-PVTZ-RI
    Molecular point group: c1

    Geometry (in Angstrom), charge = 0, multiplicity = 1:

       Center              X                  Y                   Z               Mass
    ------------   -----------------  -----------------  -----------------  -----------------
         O            1.038455994620     1.071300930832    -0.088902222524    15.994914619570
         O           -1.601351005380    -1.252037069168    -0.150679222524    15.994914619570
         O           -1.185512005380     1.553855930832    -0.060590222524    15.994914619570
         C            0.851876994620    -1.291195069168    -0.191651222524    12.000000000000
         C           -0.420200005380    -0.717112069168     0.403364777476    12.000000000000
         C            1.830091994620    -0.143461069168     0.054907777476    12.000000000000
         C           -0.274560005380     0.761551930832     0.069639777476    12.000000000000
         H            0.685551294620    -1.426014169168    -1.264545122524     1.007825032230
         H            1.173780994620    -2.232134069168     0.259719777476     1.007825032230
         H           -0.410649005380    -0.817699069168     1.502505777476     1.007825032230
         H            2.246269994620    -0.161924069168     1.067356777476     1.007825032230
         H            2.643985994620    -0.079388069168    -0.667868222524     1.007825032230
         H           -2.251808005380    -0.522181069168    -0.137030222524     1.007825032230

  Basis Set: AUG-CC-PVTZ
    Blend: AUG-CC-PVTZ
  Basis Set: (AUG-CC-PVTZ AUX)
    Blend: AUG-CC-PVTZ-JKFIT
	 Reference Energy          =    -379.7007403668475831 [Eh]
	 Singles Energy            =      -0.0000000000000000 [Eh]
	 Same-Spin Energy          =      -0.3684517498572693 [Eh]
	 Opposite-Spin Energy      =      -1.1364799540715889 [Eh]
	 Correlation Energy        =      -1.5049317039288581 [Eh]
	 Total Energy              =    -381.2056720707764157 [Eh]

	 ================> DF-SCS-MP2 Energies <==================
	-----------------------------------------------------------
	 SCS Same-Spin Scale       =       0.3333333333333333 [-]
	 SCS Opposite-Spin Scale   =       1.2000000000000000 [-]
	 SCS Same-Spin Energy      =      -0.1228172499524231 [Eh]
	 SCS Opposite-Spin Energy  =      -1.3637759448859066 [Eh]
	 SCS Correlation Energy    =      -1.4865931948383297 [Eh]
	 SCS Total Energy          =    -381.1873335616859322 [Eh]
	-----------------------------------------------------------

  Dipole Moment: [D]
     X:     2.6959      Y:    -2.2845      Z:     0.9822     Total:     3.6676

*** Psi4 exiting successfully. Buy a developer a beer!
