                               Psi4 1.3.2 release

  ==> Input File <==

--------------------------------------------------------------------------
#psi4
#
memory 32 gb

molecule  {
0 1
  O        1.0126577     1.1319820    -0.0479689
  O       -1.6389080    -1.2036290    -0.1576800
  O       -1.2230690     1.6022640    -0.0675910
  C        0.8143200    -1.2427870    -0.1986520
  C       -0.4577570    -0.6687040     0.3963640
  C        1.7925350    -0.0950530     0.0479070
  C       -0.3121170     0.8099600     0.0626390
  H        0.6529500    -1.3959670    -1.2698370
  H        1.1362240    -2.1837260     0.2527190
  H       -0.4482060    -0.7692910     1.4955050
  H        2.2087130    -0.1135160     1.0603560
  H        2.6064290    -0.0309800    -0.6748690
  H       -2.2893650    -0.4737730    -0.1440310
units angstrom
no_reorient  #important for SAPT in psi4, default
symmetry c1  #important for SAPT in psi4, default
}

set PROPERTIES_ORIGIN ["COM"]
properties('MP2/aug-cc-pvtz', properties = ['dipole'])
--------------------------------------------------------------------------

    Molecular point group: c1
  Charge       = 0
  Multiplicity = 1
  Basis Set: AUG-CC-PVTZ
    Blend: AUG-CC-PVTZ
  Basis Set: (AUG-CC-PVTZ AUX)
    Blend: AUG-CC-PVTZ-JKFIT

    Orbital Energies [Eh]
    ---------------------

    Doubly Occupied:

       1A    -20.619711     2A    -20.581323     3A    -20.561825
       4A    -11.393950     5A    -11.319294     6A    -11.316229
       7A    -11.259316     8A     -1.466685     9A     -1.388411
      10A     -1.371311    11A     -1.093683    12A     -0.987060
      13A     -0.861628    14A     -0.797488    15A     -0.731890
      16A     -0.714591    17A     -0.688122    18A     -0.659801
      19A     -0.622318    20A     -0.603224    21A     -0.582374
      22A     -0.560433    23A     -0.536467    24A     -0.523129
      25A     -0.475226    26A     -0.468182    27A     -0.447670

  @DF-RHF Final Energy:  -379.69975438707593

   => Energetics <=

    Nuclear Repulsion Energy =            317.1194007618636874
    One-Electron Energy =               -1148.3756312304005860
    Two-Electron Energy =                 451.5564760814609144
    Total Energy =                       -379.6997543870759273
  Basis Set: (AUG-CC-PVTZ AUX)
    Blend: AUG-CC-PVTZ-RI
    Molecular point group: c1

    Geometry (in Angstrom), charge = 0, multiplicity = 1:

       Center              X                  Y                   Z               Mass
    ------------   -----------------  -----------------  -----------------  -----------------
         O            1.048322401418     1.081831325124    -0.048499352072    15.994914619570
         O           -1.603243298582    -1.253779674876    -0.158210452072    15.994914619570
         O           -1.187404298582     1.552113325124    -0.068121452072    15.994914619570
         C            0.849984701418    -1.292937674876    -0.199182452072    12.000000000000
         C           -0.422092298582    -0.718854674876     0.395833547928    12.000000000000
         C            1.828199701418    -0.145203674876     0.047376547928    12.000000000000
         C           -0.276452298582     0.759809325124     0.062108547928    12.000000000000
         H            0.688614701418    -1.446117674876    -1.270367452072     1.007825032230
         H            1.171888701418    -2.233876674876     0.252188547928     1.007825032230
         H           -0.412541298582    -0.819441674876     1.494974547928     1.007825032230
         H            2.244377701418    -0.163666674876     1.059825547928     1.007825032230
         H            2.642093701418    -0.081130674876    -0.675399452072     1.007825032230
         H           -2.253700298582    -0.523923674876    -0.144561452072     1.007825032230

  Basis Set: AUG-CC-PVTZ
    Blend: AUG-CC-PVTZ
  Basis Set: (AUG-CC-PVTZ AUX)
    Blend: AUG-CC-PVTZ-JKFIT
	 Reference Energy          =    -379.6997543870759273 [Eh]
	 Singles Energy            =      -0.0000000000000000 [Eh]
	 Same-Spin Energy          =      -0.3685376727704402 [Eh]
	 Opposite-Spin Energy      =      -1.1368594058013222 [Eh]
	 Correlation Energy        =      -1.5053970785717623 [Eh]
	 Total Energy              =    -381.2051514656477025 [Eh]

	 ================> DF-SCS-MP2 Energies <==================
	-----------------------------------------------------------
	 SCS Same-Spin Scale       =       0.3333333333333333 [-]
	 SCS Opposite-Spin Scale   =       1.2000000000000000 [-]
	 SCS Same-Spin Energy      =      -0.1228458909234801 [Eh]
	 SCS Opposite-Spin Energy  =      -1.3642312869615865 [Eh]
	 SCS Correlation Energy    =      -1.4870771778850664 [Eh]
	 SCS Total Energy          =    -381.1868315649609826 [Eh]
	-----------------------------------------------------------

  Dipole Moment: [D]
     X:     2.6266      Y:    -2.2993      Z:     0.9269     Total:     3.6118

*** Psi4 exiting successfully. Buy a developer a beer!
