                               Psi4 1.3.2 release

  ==> Input File <==

--------------------------------------------------------------------------
#psi4
#
memory 32 gb

molecule  {
0 1
  O        0.9584366     1.2522906    -0.1247865
  O       -1.6389080    -1.2036290    -0.1576800
  O       -1.2230690     1.6022640    -0.0675910
  C        0.8143200    -1.2427870    -0.1986520
  C       -0.4577570    -0.6687040     0.3963640
  C        1.7925350    -0.0950530     0.0479070
  C       -0.3121170     0.8099600     0.0626390
  H        0.6529500    -1.3959670    -1.2698370
  H        1.1362240    -2.1837260     0.2527190
  H       -0.4482060    -0.7692910     1.4955050
  H        2.2087130    -0.1135160     1.0603560
  H        2.6064290    -0.0309800    -0.6748690
  H       -2.2893650    -0.4737730    -0.1440310
units angstrom
no_reorient  #important for SAPT in psi4, default
symmetry c1  #important for SAPT in psi4, default
}

set PROPERTIES_ORIGIN ["COM"]
properties('MP2/aug-cc-pvtz', properties = ['dipole'])
--------------------------------------------------------------------------

    Molecular point group: c1
  Charge       = 0
  Multiplicity = 1
  Basis Set: AUG-CC-PVTZ
    Blend: AUG-CC-PVTZ
  Basis Set: (AUG-CC-PVTZ AUX)
    Blend: AUG-CC-PVTZ-JKFIT

    Orbital Energies [Eh]
    ---------------------

    Doubly Occupied:

       1A    -20.618395     2A    -20.583351     3A    -20.548926
       4A    -11.384592     5A    -11.329469     6A    -11.323908
       7A    -11.266104     8A     -1.452020     9A     -1.386028
      10A     -1.349695    11A     -1.103502    12A     -0.975109
      13A     -0.863306    14A     -0.791596    15A     -0.726138
      16A     -0.711680    17A     -0.682851    18A     -0.647780
      19A     -0.610004    20A     -0.606468    21A     -0.575522
      22A     -0.563494    23A     -0.540419    24A     -0.521588
      25A     -0.476587    26A     -0.464779    27A     -0.444876

  @DF-RHF Final Energy:  -379.68338841936526

   => Energetics <=

    Nuclear Repulsion Energy =            314.9765519998478567
    One-Electron Energy =               -1144.2235020157083909
    Two-Electron Energy =                 449.5635615964952763
    Total Energy =                       -379.6833884193652580
  Basis Set: (AUG-CC-PVTZ AUX)
    Blend: AUG-CC-PVTZ-RI
    Molecular point group: c1

    Geometry (in Angstrom), charge = 0, multiplicity = 1:

       Center              X                  Y                   Z               Mass
    ------------   -----------------  -----------------  -----------------  -----------------
         O            1.002601227575     1.183279846372    -0.113274704173    15.994914619570
         O           -1.594743372425    -1.272639753628    -0.146168204173    15.994914619570
         O           -1.178904372425     1.533253246372    -0.056079204173    15.994914619570
         C            0.858484627575    -1.311797753628    -0.187140204173    12.000000000000
         C           -0.413592372425    -0.737714753628     0.407875795827    12.000000000000
         C            1.836699627575    -0.164063753628     0.059418795827    12.000000000000
         C           -0.267952372425     0.740949246372     0.074150795827    12.000000000000
         H            0.697114627575    -1.464977753628    -1.258325204173     1.007825032230
         H            1.180388627575    -2.252736753628     0.264230795827     1.007825032230
         H           -0.404041372425    -0.838301753628     1.507016795827     1.007825032230
         H            2.252877627575    -0.182526753628     1.071867795827     1.007825032230
         H            2.650593627575    -0.099990753628    -0.663357204173     1.007825032230
         H           -2.245200372425    -0.542783753628    -0.132519204173     1.007825032230

  Basis Set: AUG-CC-PVTZ
    Blend: AUG-CC-PVTZ
  Basis Set: (AUG-CC-PVTZ AUX)
    Blend: AUG-CC-PVTZ-JKFIT
	 Reference Energy          =    -379.6833884193652580 [Eh]
	 Singles Energy            =      -0.0000000000000000 [Eh]
	 Same-Spin Energy          =      -0.3694480215111536 [Eh]
	 Opposite-Spin Energy      =      -1.1406305181595466 [Eh]
	 Correlation Energy        =      -1.5100785396707002 [Eh]
	 Total Energy              =    -381.1934669590359590 [Eh]

	 ================> DF-SCS-MP2 Energies <==================
	-----------------------------------------------------------
	 SCS Same-Spin Scale       =       0.3333333333333333 [-]
	 SCS Opposite-Spin Scale   =       1.2000000000000000 [-]
	 SCS Same-Spin Energy      =      -0.1231493405037179 [Eh]
	 SCS Opposite-Spin Energy  =      -1.3687566217914560 [Eh]
	 SCS Correlation Energy    =      -1.4919059622951738 [Eh]
	 SCS Total Energy          =    -381.1752943816604215 [Eh]
	-----------------------------------------------------------

  Dipole Moment: [D]
     X:     2.8707      Y:    -2.7000      Z:     1.0434     Total:     4.0767

*** Psi4 exiting successfully. Buy a developer a beer!
