                               Psi4 1.3.2 release

  ==> Input File <==

--------------------------------------------------------------------------
#psi4
#
memory 32 gb

molecule  {
0 1
  O        1.0008990     1.1197090    -0.0959030
  O       -1.6389080    -1.2036290    -0.1576800
  O       -1.2230690     1.6022640    -0.0675910
  C        0.8143200    -1.2427870    -0.1986520
  C       -0.3739901    -0.6307673     0.4356566
  C        1.7925350    -0.0950530     0.0479070
  C       -0.3121170     0.8099600     0.0626390
  H        0.6529500    -1.3959670    -1.2698370
  H        1.1362240    -2.1837260     0.2527190
  H       -0.4482060    -0.7692910     1.4955050
  H        2.2087130    -0.1135160     1.0603560
  H        2.6064290    -0.0309800    -0.6748690
  H       -2.2893650    -0.4737730    -0.1440310
units angstrom
no_reorient  #important for SAPT in psi4, default
symmetry c1  #important for SAPT in psi4, default
}

set PROPERTIES_ORIGIN ["COM"]
properties('MP2/aug-cc-pvtz', properties = ['dipole'])
--------------------------------------------------------------------------

    Molecular point group: c1
  Charge       = 0
  Multiplicity = 1
  Basis Set: AUG-CC-PVTZ
    Blend: AUG-CC-PVTZ
  Basis Set: (AUG-CC-PVTZ AUX)
    Blend: AUG-CC-PVTZ-JKFIT

    Orbital Energies [Eh]
    ---------------------

    Doubly Occupied:

       1A    -20.620791     2A    -20.571610     3A    -20.563275
       4A    -11.395848     5A    -11.319004     6A    -11.317922
       7A    -11.261041     8A     -1.473330     9A     -1.379763
      10A     -1.345640    11A     -1.107129    12A     -0.995818
      13A     -0.868813    14A     -0.795732    15A     -0.739090
      16A     -0.708219    17A     -0.682282    18A     -0.658723
      19A     -0.623003    20A     -0.607052    21A     -0.576004
      22A     -0.549399    23A     -0.533692    24A     -0.519999
      25A     -0.481370    26A     -0.470039    27A     -0.456505

  @DF-RHF Final Energy:  -379.68843659862318

   => Energetics <=

    Nuclear Repulsion Energy =            317.5954352168254218
    One-Electron Energy =               -1149.3255573190326686
    Two-Electron Energy =                 452.0416855035840626
    Total Energy =                       -379.6884365986231842
  Basis Set: (AUG-CC-PVTZ AUX)
    Blend: AUG-CC-PVTZ-RI
    Molecular point group: c1

    Geometry (in Angstrom), charge = 0, multiplicity = 1:

       Center              X                  Y                   Z               Mass
    ------------   -----------------  -----------------  -----------------  -----------------
         O            1.028555176175     1.067020537084    -0.093540325190    15.994914619570
         O           -1.611251823825    -1.256317462916    -0.155317325190    15.994914619570
         O           -1.195412823825     1.549575537084    -0.065228325190    15.994914619570
         C            0.841976176175    -1.295475462916    -0.196289325190    12.000000000000
         C           -0.346333923825    -0.683455762916     0.438019274810    12.000000000000
         C            1.820191176175    -0.147741462916     0.050269674810    12.000000000000
         C           -0.284460823825     0.757271537084     0.065001674810    12.000000000000
         H            0.680606176175    -1.448655462916    -1.267474325190     1.007825032230
         H            1.163880176175    -2.236414462916     0.255081674810     1.007825032230
         H           -0.420549823825    -0.821979462916     1.497867674810     1.007825032230
         H            2.236369176175    -0.166204462916     1.062718674810     1.007825032230
         H            2.634085176175    -0.083668462916    -0.672506325190     1.007825032230
         H           -2.261708823825    -0.526461462916    -0.141668325190     1.007825032230

  Basis Set: AUG-CC-PVTZ
    Blend: AUG-CC-PVTZ
  Basis Set: (AUG-CC-PVTZ AUX)
    Blend: AUG-CC-PVTZ-JKFIT
	 Reference Energy          =    -379.6884365986231842 [Eh]
	 Singles Energy            =      -0.0000000000000000 [Eh]
	 Same-Spin Energy          =      -0.3694136964646201 [Eh]
	 Opposite-Spin Energy      =      -1.1392794487072742 [Eh]
	 Correlation Energy        =      -1.5086931451718941 [Eh]
	 Total Energy              =    -381.1971297437950739 [Eh]

	 ================> DF-SCS-MP2 Energies <==================
	-----------------------------------------------------------
	 SCS Same-Spin Scale       =       0.3333333333333333 [-]
	 SCS Opposite-Spin Scale   =       1.2000000000000000 [-]
	 SCS Same-Spin Energy      =      -0.1231378988215400 [Eh]
	 SCS Opposite-Spin Energy  =      -1.3671353384487290 [Eh]
	 SCS Correlation Energy    =      -1.4902732372702689 [Eh]
	 SCS Total Energy          =    -381.1787098358934713 [Eh]
	-----------------------------------------------------------

  Dipole Moment: [D]
     X:     2.9884      Y:    -2.2024      Z:     1.0999     Total:     3.8719

*** Psi4 exiting successfully. Buy a developer a beer!
