                               Psi4 1.3.2 release

  ==> Input File <==

--------------------------------------------------------------------------
#psi4
#
memory 32 gb

molecule  {
0 1
  O        1.0008990     1.1197090    -0.0959030
  O       -1.6389080    -1.2036290    -0.1576800
  O       -1.2230690     1.6022640    -0.0675910
  C        0.8212734    -1.2185110    -0.2066191
  C       -0.4577570    -0.6687040     0.3963640
  C        1.7925350    -0.0950530     0.0479070
  C       -0.3121170     0.8099600     0.0626390
  H        0.6529500    -1.3959670    -1.2698370
  H        1.1362240    -2.1837260     0.2527190
  H       -0.4482060    -0.7692910     1.4955050
  H        2.2087130    -0.1135160     1.0603560
  H        2.6064290    -0.0309800    -0.6748690
  H       -2.2893650    -0.4737730    -0.1440310
units angstrom
no_reorient  #important for SAPT in psi4, default
symmetry c1  #important for SAPT in psi4, default
}

set PROPERTIES_ORIGIN ["COM"]
properties('MP2/aug-cc-pvtz', properties = ['dipole'])
--------------------------------------------------------------------------

    Molecular point group: c1
  Charge       = 0
  Multiplicity = 1
  Basis Set: AUG-CC-PVTZ
    Blend: AUG-CC-PVTZ
  Basis Set: (AUG-CC-PVTZ AUX)
    Blend: AUG-CC-PVTZ-JKFIT

    Orbital Energies [Eh]
    ---------------------

    Doubly Occupied:

       1A    -20.619963     2A    -20.581508     3A    -20.559631
       4A    -11.392158     5A    -11.318532     6A    -11.316563
       7A    -11.259293     8A     -1.470041     9A     -1.388524
      10A     -1.370747    11A     -1.095932    12A     -0.989838
      13A     -0.860379    14A     -0.797960    15A     -0.735120
      16A     -0.714501    17A     -0.688021    18A     -0.659331
      19A     -0.622911    20A     -0.605227    21A     -0.581508
      22A     -0.556747    23A     -0.540062    24A     -0.522209
      25A     -0.475472    26A     -0.468776    27A     -0.445841

  @DF-RHF Final Energy:  -379.69991252003257

   => Energetics <=

    Nuclear Repulsion Energy =            317.7809017306713599
    One-Electron Energy =               -1149.6880336493459254
    Two-Electron Energy =                 452.2072193986420530
    Total Energy =                       -379.6999125200325693
  Basis Set: (AUG-CC-PVTZ AUX)
    Blend: AUG-CC-PVTZ-RI
    Molecular point group: c1

    Geometry (in Angstrom), charge = 0, multiplicity = 1:

       Center              X                  Y                   Z               Mass
    ------------   -----------------  -----------------  -----------------  -----------------
         O            1.037589251406     1.068627179035    -0.087982087573    15.994914619570
         O           -1.602217748594    -1.254710820965    -0.149759087573    15.994914619570
         O           -1.186378748594     1.551182179035    -0.059670087573    15.994914619570
         C            0.857963651406    -1.269592820965    -0.198698187573    12.000000000000
         C           -0.421066748594    -0.719785820965     0.404284912427    12.000000000000
         C            1.829225251406    -0.146134820965     0.055827912427    12.000000000000
         C           -0.275426748594     0.758878179035     0.070559912427    12.000000000000
         H            0.689640251406    -1.447048820965    -1.261916087573     1.007825032230
         H            1.172914251406    -2.234807820965     0.260639912427     1.007825032230
         H           -0.411515748594    -0.820372820965     1.503425912427     1.007825032230
         H            2.245403251406    -0.164597820965     1.068276912427     1.007825032230
         H            2.643119251406    -0.082061820965    -0.666948087573     1.007825032230
         H           -2.252674748594    -0.524854820965    -0.136110087573     1.007825032230

  Basis Set: AUG-CC-PVTZ
    Blend: AUG-CC-PVTZ
  Basis Set: (AUG-CC-PVTZ AUX)
    Blend: AUG-CC-PVTZ-JKFIT
	 Reference Energy          =    -379.6999125200325693 [Eh]
	 Singles Energy            =      -0.0000000000000000 [Eh]
	 Same-Spin Energy          =      -0.3685518837392601 [Eh]
	 Opposite-Spin Energy      =      -1.1364966395897818 [Eh]
	 Correlation Energy        =      -1.5050485233290418 [Eh]
	 Total Energy              =    -381.2049610433616067 [Eh]

	 ================> DF-SCS-MP2 Energies <==================
	-----------------------------------------------------------
	 SCS Same-Spin Scale       =       0.3333333333333333 [-]
	 SCS Opposite-Spin Scale   =       1.2000000000000000 [-]
	 SCS Same-Spin Energy      =      -0.1228506279130867 [Eh]
	 SCS Opposite-Spin Energy  =      -1.3637959675077380 [Eh]
	 SCS Correlation Energy    =      -1.4866465954208248 [Eh]
	 SCS Total Energy          =    -381.1865591154534059 [Eh]
	-----------------------------------------------------------

  Dipole Moment: [D]
     X:     2.6942      Y:    -2.2889      Z:     0.9757     Total:     3.6673

*** Psi4 exiting successfully. Buy a developer a beer!
