                               Psi4 1.3.2 release

  ==> Input File <==

--------------------------------------------------------------------------
#psi4
#
memory 32 gb

molecule  {
0 1
  O        1.0211193     1.0289397    -0.0774322
  O       -1.6389080    -1.2036290    -0.1576800
  O       -1.2230690     1.6022640    -0.0675910
  C        0.8143200    -1.2427870    -0.1986520
  C       -0.4577570    -0.6687040     0.3963640
  C        1.7925350    -0.0950530     0.0479070
  C       -0.3121170     0.8099600     0.0626390
  H        0.6529500    -1.3959670    -1.2698370
  H        1.1362240    -2.1837260     0.2527190
  H       -0.4482060    -0.7692910     1.4955050
  H        2.2087130    -0.1135160     1.0603560
  H        2.6064290    -0.0309800    -0.6748690
  H       -2.2893650    -0.4737730    -0.1440310
units angstrom
no_reorient  #important for SAPT in psi4, default
symmetry c1  #important for SAPT in psi4, default
}

set PROPERTIES_ORIGIN ["COM"]
properties('MP2/aug-cc-pvtz', properties = ['dipole'])
--------------------------------------------------------------------------

    Molecular point group: c1
  Charge       = 0
  Multiplicity = 1
  Basis Set: AUG-CC-PVTZ
    Blend: AUG-CC-PVTZ
  Basis Set: (AUG-CC-PVTZ AUX)
    Blend: AUG-CC-PVTZ-JKFIT

    Orbital Energies [Eh]
    ---------------------

    Doubly Occupied:

       1A    -20.619920     2A    -20.579442     3A    -20.567689
       4A    -11.399162     5A    -11.314994     6A    -11.309408
       7A    -11.253746     8A     -1.488889     9A     -1.396647
      10A     -1.376289    11A     -1.086620    12A     -1.002931
      13A     -0.863331    14A     -0.799716    15A     -0.742465
      16A     -0.720330    17A     -0.690817    18A     -0.667986
      19A     -0.633490    20A     -0.602010    21A     -0.584557
      22A     -0.559461    23A     -0.531099    24A     -0.521685
      25A     -0.473672    26A     -0.466419    27A     -0.446224

  @DF-RHF Final Energy:  -379.69708823953732

   => Energetics <=

    Nuclear Repulsion Energy =            319.3851507920041399
    One-Electron Energy =               -1152.7664845018707638
    Two-Electron Energy =                 453.6842454703292447
    Total Energy =                       -379.6970882395373224
  Basis Set: (AUG-CC-PVTZ AUX)
    Blend: AUG-CC-PVTZ-RI
    Molecular point group: c1

    Geometry (in Angstrom), charge = 0, multiplicity = 1:

       Center              X                  Y                   Z               Mass
    ------------   -----------------  -----------------  -----------------  -----------------
         O            1.055457525652     0.994942366554    -0.073343862075    15.994914619570
         O           -1.604569774348    -1.237626333446    -0.153591662075    15.994914619570
         O           -1.188730774348     1.568266666554    -0.063502662075    15.994914619570
         C            0.848658225652    -1.276784333446    -0.194563662075    12.000000000000
         C           -0.423418774348    -0.702701333446     0.400452337925    12.000000000000
         C            1.826873225652    -0.129050333446     0.051995337925    12.000000000000
         C           -0.277778774348     0.775962666554     0.066727337925    12.000000000000
         H            0.687288225652    -1.429964333446    -1.265748662075     1.007825032230
         H            1.170562225652    -2.217723333446     0.256807337925     1.007825032230
         H           -0.413867774348    -0.803288333446     1.499593337925     1.007825032230
         H            2.243051225652    -0.147513333446     1.064444337925     1.007825032230
         H            2.640767225652    -0.064977333446    -0.670780662075     1.007825032230
         H           -2.255026774348    -0.507770333446    -0.139942662075     1.007825032230

  Basis Set: AUG-CC-PVTZ
    Blend: AUG-CC-PVTZ
  Basis Set: (AUG-CC-PVTZ AUX)
    Blend: AUG-CC-PVTZ-JKFIT
	 Reference Energy          =    -379.6970882395373224 [Eh]
	 Singles Energy            =      -0.0000000000000000 [Eh]
	 Same-Spin Energy          =      -0.3683600587109285 [Eh]
	 Opposite-Spin Energy      =      -1.1347968480795441 [Eh]
	 Correlation Energy        =      -1.5031569067904726 [Eh]
	 Total Energy              =    -381.2002451463278021 [Eh]

	 ================> DF-SCS-MP2 Energies <==================
	-----------------------------------------------------------
	 SCS Same-Spin Scale       =       0.3333333333333333 [-]
	 SCS Opposite-Spin Scale   =       1.2000000000000000 [-]
	 SCS Same-Spin Energy      =      -0.1227866862369762 [Eh]
	 SCS Opposite-Spin Energy  =      -1.3617562176954527 [Eh]
	 SCS Correlation Energy    =      -1.4845429039324289 [Eh]
	 SCS Total Energy          =    -381.1816311434697582 [Eh]
	-----------------------------------------------------------

  Dipole Moment: [D]
     X:     2.5607      Y:    -1.9724      Z:     0.9324     Total:     3.3641

*** Psi4 exiting successfully. Buy a developer a beer!
