                               Psi4 1.3.2 release

  ==> Input File <==

--------------------------------------------------------------------------
#psi4
#
memory 32 gb

molecule  {
0 1
  O        1.0008990     1.1197090    -0.0959030
  O       -1.6389080    -1.2036290    -0.1576800
  O       -1.1945657     1.6325716    -0.0756849
  C        0.8143200    -1.2427870    -0.1986520
  C       -0.4577570    -0.6687040     0.3963640
  C        1.7925350    -0.0950530     0.0479070
  C       -0.3121170     0.8099600     0.0626390
  H        0.6529500    -1.3959670    -1.2698370
  H        1.1362240    -2.1837260     0.2527190
  H       -0.4482060    -0.7692910     1.4955050
  H        2.2087130    -0.1135160     1.0603560
  H        2.6064290    -0.0309800    -0.6748690
  H       -2.2893650    -0.4737730    -0.1440310
units angstrom
no_reorient  #important for SAPT in psi4, default
symmetry c1  #important for SAPT in psi4, default
}

set PROPERTIES_ORIGIN ["COM"]
properties('MP2/aug-cc-pvtz', properties = ['dipole'])
--------------------------------------------------------------------------

    Molecular point group: c1
  Charge       = 0
  Multiplicity = 1
  Basis Set: AUG-CC-PVTZ
    Blend: AUG-CC-PVTZ
  Basis Set: (AUG-CC-PVTZ AUX)
    Blend: AUG-CC-PVTZ-JKFIT

    Orbital Energies [Eh]
    ---------------------

    Doubly Occupied:

       1A    -20.618247     2A    -20.582716     3A    -20.558997
       4A    -11.391995     5A    -11.320676     6A    -11.316394
       7A    -11.259503     8A     -1.469577     9A     -1.388496
      10A     -1.369783    11A     -1.094071    12A     -0.988146
      13A     -0.862567    14A     -0.797938    15A     -0.734398
      16A     -0.714000    17A     -0.688445    18A     -0.658194
      19A     -0.621800    20A     -0.604376    21A     -0.582759
      22A     -0.561002    23A     -0.535281    24A     -0.523446
      25A     -0.476101    26A     -0.466652    27A     -0.447639

  @DF-RHF Final Energy:  -379.70057424755754

   => Energetics <=

    Nuclear Repulsion Energy =            317.3381529961750402
    One-Electron Energy =               -1148.8110576805597702
    Two-Electron Energy =                 451.7723304368271897
    Total Energy =                       -379.7005742475575403
  Basis Set: (AUG-CC-PVTZ AUX)
    Blend: AUG-CC-PVTZ-RI
    Molecular point group: c1

    Geometry (in Angstrom), charge = 0, multiplicity = 1:

       Center              X                  Y                   Z               Mass
    ------------   -----------------  -----------------  -----------------  -----------------
         O            1.033938747968     1.066731145885    -0.087650268723    15.994914619570
         O           -1.605868252032    -1.256606854115    -0.149427268723    15.994914619570
         O           -1.161525952032     1.579593745885    -0.067432168723    15.994914619570
         C            0.847359747968    -1.295764854115    -0.190399268723    12.000000000000
         C           -0.424717252032    -0.721681854115     0.404616731277    12.000000000000
         C            1.825574747968    -0.148030854115     0.056159731277    12.000000000000
         C           -0.279077252032     0.756982145885     0.070891731277    12.000000000000
         H            0.685989747968    -1.448944854115    -1.261584268723     1.007825032230
         H            1.169263747968    -2.236703854115     0.260971731277     1.007825032230
         H           -0.415166252032    -0.822268854115     1.503757731277     1.007825032230
         H            2.241752747968    -0.166493854115     1.068608731277     1.007825032230
         H            2.639468747968    -0.083957854115    -0.666616268723     1.007825032230
         H           -2.256325252032    -0.526750854115    -0.135778268723     1.007825032230

  Basis Set: AUG-CC-PVTZ
    Blend: AUG-CC-PVTZ
  Basis Set: (AUG-CC-PVTZ AUX)
    Blend: AUG-CC-PVTZ-JKFIT
	 Reference Energy          =    -379.7005742475575403 [Eh]
	 Singles Energy            =      -0.0000000000000000 [Eh]
	 Same-Spin Energy          =      -0.3683987341348889 [Eh]
	 Opposite-Spin Energy      =      -1.1364796453928561 [Eh]
	 Correlation Energy        =      -1.5048783795277449 [Eh]
	 Total Energy              =    -381.2054526270852648 [Eh]

	 ================> DF-SCS-MP2 Energies <==================
	-----------------------------------------------------------
	 SCS Same-Spin Scale       =       0.3333333333333333 [-]
	 SCS Opposite-Spin Scale   =       1.2000000000000000 [-]
	 SCS Same-Spin Energy      =      -0.1227995780449630 [Eh]
	 SCS Opposite-Spin Energy  =      -1.3637755744714273 [Eh]
	 SCS Correlation Energy    =      -1.4865751525163902 [Eh]
	 SCS Total Energy          =    -381.1871494000739062 [Eh]
	-----------------------------------------------------------

  Dipole Moment: [D]
     X:     2.6294      Y:    -2.3743      Z:     0.9976     Total:     3.6805

*** Psi4 exiting successfully. Buy a developer a beer!
