                               Psi4 1.3.2 release

  ==> Input File <==

--------------------------------------------------------------------------
#psi4
#
memory 32 gb

molecule  {
0 1
  O        1.0008990     1.1197090    -0.0959030
  O       -1.6389080    -1.2036290    -0.1576800
  O       -1.2230690     1.6022640    -0.0675910
  C        0.8143200    -1.2427870    -0.1986520
  C       -0.4809687    -0.6256888     0.4021314
  C        1.7925350    -0.0950530     0.0479070
  C       -0.3121170     0.8099600     0.0626390
  H        0.6529500    -1.3959670    -1.2698370
  H        1.1362240    -2.1837260     0.2527190
  H       -0.4482060    -0.7692910     1.4955050
  H        2.2087130    -0.1135160     1.0603560
  H        2.6064290    -0.0309800    -0.6748690
  H       -2.2893650    -0.4737730    -0.1440310
units angstrom
no_reorient  #important for SAPT in psi4, default
symmetry c1  #important for SAPT in psi4, default
}

set PROPERTIES_ORIGIN ["COM"]
properties('MP2/aug-cc-pvtz', properties = ['dipole'])
--------------------------------------------------------------------------

    Molecular point group: c1
  Charge       = 0
  Multiplicity = 1
  Basis Set: AUG-CC-PVTZ
    Blend: AUG-CC-PVTZ
  Basis Set: (AUG-CC-PVTZ AUX)
    Blend: AUG-CC-PVTZ-JKFIT

    Orbital Energies [Eh]
    ---------------------

    Doubly Occupied:

       1A    -20.620862     2A    -20.583086     3A    -20.559634
       4A    -11.392326     5A    -11.317846     6A    -11.316242
       7A    -11.259861     8A     -1.471058     9A     -1.390441
      10A     -1.371243    11A     -1.088549    12A     -0.992549
      13A     -0.865029    14A     -0.796989    15A     -0.735271
      16A     -0.712421    17A     -0.690471    18A     -0.658361
      19A     -0.622954    20A     -0.604180    21A     -0.579290
      22A     -0.563182    23A     -0.535167    24A     -0.523103
      25A     -0.470495    26A     -0.467613    27A     -0.451929

  @DF-RHF Final Energy:  -379.69848355589221

   => Energetics <=

    Nuclear Repulsion Energy =            317.6679719957479051
    One-Electron Energy =               -1149.4526066582268413
    Two-Electron Energy =                 452.0861511065867830
    Total Energy =                       -379.6984835558922100
  Basis Set: (AUG-CC-PVTZ AUX)
    Blend: AUG-CC-PVTZ-RI
    Molecular point group: c1

    Geometry (in Angstrom), charge = 0, multiplicity = 1:

       Center              X                  Y                   Z               Mass
    ------------   -----------------  -----------------  -----------------  -----------------
         O            1.041136984327     1.066423252088    -0.089597409180    15.994914619570
         O           -1.598670015673    -1.256914747912    -0.151374409180    15.994914619570
         O           -1.182831015673     1.548978252088    -0.061285409180    15.994914619570
         C            0.854557984327    -1.296072747912    -0.192346409180    12.000000000000
         C           -0.440730715673    -0.678974547912     0.408436990820    12.000000000000
         C            1.832772984327    -0.148338747912     0.054212590820    12.000000000000
         C           -0.271879015673     0.756674252088     0.068944590820    12.000000000000
         H            0.693187984327    -1.449252747912    -1.263531409180     1.007825032230
         H            1.176461984327    -2.237011747912     0.259024590820     1.007825032230
         H           -0.407968015673    -0.822576747912     1.501810590820     1.007825032230
         H            2.248950984327    -0.166801747912     1.066661590820     1.007825032230
         H            2.646666984327    -0.084265747912    -0.668563409180     1.007825032230
         H           -2.249127015673    -0.527058747912    -0.137725409180     1.007825032230

  Basis Set: AUG-CC-PVTZ
    Blend: AUG-CC-PVTZ
  Basis Set: (AUG-CC-PVTZ AUX)
    Blend: AUG-CC-PVTZ-JKFIT
	 Reference Energy          =    -379.6984835558922100 [Eh]
	 Singles Energy            =      -0.0000000000000000 [Eh]
	 Same-Spin Energy          =      -0.3684784079154530 [Eh]
	 Opposite-Spin Energy      =      -1.1368146796003360 [Eh]
	 Correlation Energy        =      -1.5052930875157891 [Eh]
	 Total Energy              =    -381.2037766434079913 [Eh]

	 ================> DF-SCS-MP2 Energies <==================
	-----------------------------------------------------------
	 SCS Same-Spin Scale       =       0.3333333333333333 [-]
	 SCS Opposite-Spin Scale   =       1.2000000000000000 [-]
	 SCS Same-Spin Energy      =      -0.1228261359718177 [Eh]
	 SCS Opposite-Spin Energy  =      -1.3641776155204031 [Eh]
	 SCS Correlation Energy    =      -1.4870037514922207 [Eh]
	 SCS Total Energy          =    -381.1854873073844487 [Eh]
	-----------------------------------------------------------

  Dipole Moment: [D]
     X:     2.6490      Y:    -2.3065      Z:     0.9989     Total:     3.6517

*** Psi4 exiting successfully. Buy a developer a beer!
