                               Psi4 1.3.2 release

  ==> Input File <==

--------------------------------------------------------------------------
#psi4
#
memory 32 gb

molecule  {
0 1
  O        1.0008990     1.1197090    -0.0959030
  O       -1.6389080    -1.2036290    -0.1576800
  O       -1.2230690     1.6022640    -0.0675910
  C        0.8143200    -1.2427870    -0.1986520
  C       -0.5415239    -0.7066407     0.3570714
  C        1.7925350    -0.0950530     0.0479070
  C       -0.3121170     0.8099600     0.0626390
  H        0.6529500    -1.3959670    -1.2698370
  H        1.1362240    -2.1837260     0.2527190
  H       -0.4482060    -0.7692910     1.4955050
  H        2.2087130    -0.1135160     1.0603560
  H        2.6064290    -0.0309800    -0.6748690
  H       -2.2893650    -0.4737730    -0.1440310
units angstrom
no_reorient  #important for SAPT in psi4, default
symmetry c1  #important for SAPT in psi4, default
}

set PROPERTIES_ORIGIN ["COM"]
properties('MP2/aug-cc-pvtz', properties = ['dipole'])
--------------------------------------------------------------------------

    Molecular point group: c1
  Charge       = 0
  Multiplicity = 1
  Basis Set: AUG-CC-PVTZ
    Blend: AUG-CC-PVTZ
  Basis Set: (AUG-CC-PVTZ AUX)
    Blend: AUG-CC-PVTZ-JKFIT

    Orbital Energies [Eh]
    ---------------------

    Doubly Occupied:

       1A    -20.619942     2A    -20.591217     3A    -20.556631
       4A    -11.389304     5A    -11.322588     6A    -11.315709
       7A    -11.256789     8A     -1.468443     9A     -1.430295
      10A     -1.371698    11A     -1.080241    12A     -0.979843
      13A     -0.855509    14A     -0.809379    15A     -0.732754
      16A     -0.724343    17A     -0.689860    18A     -0.660069
      19A     -0.634264    20A     -0.602682    21A     -0.597497
      22A     -0.556830    23A     -0.536469    24A     -0.524696
      25A     -0.466858    26A     -0.458525    27A     -0.433501

  @DF-RHF Final Energy:  -379.69167636706175

   => Energetics <=

    Nuclear Repulsion Energy =            317.4536108566057351
    One-Electron Energy =               -1148.9587016779971691
    Two-Electron Energy =                 451.8134144543296316
    Total Energy =                       -379.6916763670617456
  Basis Set: (AUG-CC-PVTZ AUX)
    Blend: AUG-CC-PVTZ-RI
    Molecular point group: c1

    Geometry (in Angstrom), charge = 0, multiplicity = 1:

       Center              X                  Y                   Z               Mass
    ------------   -----------------  -----------------  -----------------  -----------------
         O            1.048258912535     1.075944046671    -0.084297879411    15.994914619570
         O           -1.591548087465    -1.247393953329    -0.146074879411    15.994914619570
         O           -1.175709087465     1.558499046671    -0.055985879411    15.994914619570
         C            0.861679912535    -1.286551953329    -0.187046879411    12.000000000000
         C           -0.494163987465    -0.750405653329     0.368676520589    12.000000000000
         C            1.839894912535    -0.138817953329     0.059512120589    12.000000000000
         C           -0.264757087465     0.766195046671     0.074244120589    12.000000000000
         H            0.700309912535    -1.439731953329    -1.258231879411     1.007825032230
         H            1.183583912535    -2.227490953329     0.264324120589     1.007825032230
         H           -0.400846087465    -0.813055953329     1.507110120589     1.007825032230
         H            2.256072912535    -0.157280953329     1.071961120589     1.007825032230
         H            2.653788912535    -0.074744953329    -0.663263879411     1.007825032230
         H           -2.242005087465    -0.517537953329    -0.132425879411     1.007825032230

  Basis Set: AUG-CC-PVTZ
    Blend: AUG-CC-PVTZ
  Basis Set: (AUG-CC-PVTZ AUX)
    Blend: AUG-CC-PVTZ-JKFIT
	 Reference Energy          =    -379.6916763670617456 [Eh]
	 Singles Energy            =      -0.0000000000000000 [Eh]
	 Same-Spin Energy          =      -0.3683081436980125 [Eh]
	 Opposite-Spin Energy      =      -1.1350517861178879 [Eh]
	 Correlation Energy        =      -1.5033599298159004 [Eh]
	 Total Energy              =    -381.1950362968776744 [Eh]

	 ================> DF-SCS-MP2 Energies <==================
	-----------------------------------------------------------
	 SCS Same-Spin Scale       =       0.3333333333333333 [-]
	 SCS Opposite-Spin Scale   =       1.2000000000000000 [-]
	 SCS Same-Spin Energy      =      -0.1227693812326708 [Eh]
	 SCS Opposite-Spin Energy  =      -1.3620621433414655 [Eh]
	 SCS Correlation Energy    =      -1.4848315245741364 [Eh]
	 SCS Total Energy          =    -381.1765078916358789 [Eh]
	-----------------------------------------------------------

  Dipole Moment: [D]
     X:     2.3493      Y:    -2.3977      Z:     0.8125     Total:     3.4537

*** Psi4 exiting successfully. Buy a developer a beer!
