                               Psi4 1.3.2 release

  ==> Input File <==

--------------------------------------------------------------------------
#psi4
#
memory 32 gb

molecule  {
0 1
  O        0.9203771     1.0606836    -0.1152770
  O       -1.6389080    -1.2036290    -0.1576800
  O       -1.2230690     1.6022640    -0.0675910
  C        0.8143200    -1.2427870    -0.1986520
  C       -0.4577570    -0.6687040     0.3963640
  C        1.7925350    -0.0950530     0.0479070
  C       -0.3121170     0.8099600     0.0626390
  H        0.6529500    -1.3959670    -1.2698370
  H        1.1362240    -2.1837260     0.2527190
  H       -0.4482060    -0.7692910     1.4955050
  H        2.2087130    -0.1135160     1.0603560
  H        2.6064290    -0.0309800    -0.6748690
  H       -2.2893650    -0.4737730    -0.1440310
units angstrom
no_reorient  #important for SAPT in psi4, default
symmetry c1  #important for SAPT in psi4, default
}

set PROPERTIES_ORIGIN ["COM"]
properties('MP2/aug-cc-pvtz', properties = ['dipole'])
--------------------------------------------------------------------------

    Molecular point group: c1
  Charge       = 0
  Multiplicity = 1
  Basis Set: AUG-CC-PVTZ
    Blend: AUG-CC-PVTZ
  Basis Set: (AUG-CC-PVTZ AUX)
    Blend: AUG-CC-PVTZ-JKFIT

    Orbital Energies [Eh]
    ---------------------

    Doubly Occupied:

       1A    -20.625171     2A    -20.576024     3A    -20.544519
       4A    -11.380925     5A    -11.326320     6A    -11.311485
       7A    -11.258372     8A     -1.504648     9A     -1.385557
      10A     -1.364563    11A     -1.095661    12A     -1.000160
      13A     -0.866939    14A     -0.800016    15A     -0.748813
      16A     -0.719068    17A     -0.689517    18A     -0.662464
      19A     -0.622085    20A     -0.611856    21A     -0.583271
      22A     -0.559727    23A     -0.534311    24A     -0.517605
      25A     -0.472202    26A     -0.465599    27A     -0.439314

  @DF-RHF Final Energy:  -379.69932098054278

   => Energetics <=

    Nuclear Repulsion Energy =            320.2799575838467376
    One-Electron Energy =               -1154.6261714100478457
    Two-Electron Energy =                 454.6468928456583853
    Total Energy =                       -379.6993209805427796
  Basis Set: (AUG-CC-PVTZ AUX)
    Blend: AUG-CC-PVTZ-RI
    Molecular point group: c1

    Geometry (in Angstrom), charge = 0, multiplicity = 1:

       Center              X                  Y                   Z               Mass
    ------------   -----------------  -----------------  -----------------  -----------------
         O            0.970508093797     1.021709960173    -0.105255953121    15.994914619570
         O           -1.588777006203    -1.242602639827    -0.147658953121    15.994914619570
         O           -1.172938006203     1.563290360173    -0.057569953121    15.994914619570
         C            0.864450993797    -1.281760639827    -0.188630953121    12.000000000000
         C           -0.407626006203    -0.707677639827     0.406385046879    12.000000000000
         C            1.842665993797    -0.134026639827     0.057928046879    12.000000000000
         C           -0.261986006203     0.770986360173     0.072660046879    12.000000000000
         H            0.703080993797    -1.434940639827    -1.259815953121     1.007825032230
         H            1.186354993797    -2.222699639827     0.262740046879     1.007825032230
         H           -0.398075006203    -0.808264639827     1.505526046879     1.007825032230
         H            2.258843993797    -0.152489639827     1.070377046879     1.007825032230
         H            2.656559993797    -0.069953639827    -0.664847953121     1.007825032230
         H           -2.239234006203    -0.512746639827    -0.134009953121     1.007825032230

  Basis Set: AUG-CC-PVTZ
    Blend: AUG-CC-PVTZ
  Basis Set: (AUG-CC-PVTZ AUX)
    Blend: AUG-CC-PVTZ-JKFIT
	 Reference Energy          =    -379.6993209805427796 [Eh]
	 Singles Energy            =      -0.0000000000000000 [Eh]
	 Same-Spin Energy          =      -0.3674523976664202 [Eh]
	 Opposite-Spin Energy      =      -1.1330300375441484 [Eh]
	 Correlation Energy        =      -1.5004824352105686 [Eh]
	 Total Energy              =    -381.1998034157533652 [Eh]

	 ================> DF-SCS-MP2 Energies <==================
	-----------------------------------------------------------
	 SCS Same-Spin Scale       =       0.3333333333333333 [-]
	 SCS Opposite-Spin Scale   =       1.2000000000000000 [-]
	 SCS Same-Spin Energy      =      -0.1224841325554734 [Eh]
	 SCS Opposite-Spin Energy  =      -1.3596360450529781 [Eh]
	 SCS Correlation Energy    =      -1.4821201776084514 [Eh]
	 SCS Total Energy          =    -381.1814411581512445 [Eh]
	-----------------------------------------------------------

  Dipole Moment: [D]
     X:     3.3020      Y:    -2.2665      Z:     0.9809     Total:     4.1234

*** Psi4 exiting successfully. Buy a developer a beer!
