                               Psi4 1.3.2 release

  ==> Input File <==

--------------------------------------------------------------------------
#psi4
#
memory 32 gb

molecule  {
0 1
  O        1.0008990     1.1197090    -0.0959030
  O       -1.6491656    -1.1592946    -0.1764307
  O       -1.2230690     1.6022640    -0.0675910
  C        0.8143200    -1.2427870    -0.1986520
  C       -0.4577570    -0.6687040     0.3963640
  C        1.7925350    -0.0950530     0.0479070
  C       -0.3121170     0.8099600     0.0626390
  H        0.6529500    -1.3959670    -1.2698370
  H        1.1362240    -2.1837260     0.2527190
  H       -0.4482060    -0.7692910     1.4955050
  H        2.2087130    -0.1135160     1.0603560
  H        2.6064290    -0.0309800    -0.6748690
  H       -2.2893650    -0.4737730    -0.1440310
units angstrom
no_reorient  #important for SAPT in psi4, default
symmetry c1  #important for SAPT in psi4, default
}

set PROPERTIES_ORIGIN ["COM"]
properties('MP2/aug-cc-pvtz', properties = ['dipole'])
--------------------------------------------------------------------------

    Molecular point group: c1
  Charge       = 0
  Multiplicity = 1
  Basis Set: AUG-CC-PVTZ
    Blend: AUG-CC-PVTZ
  Basis Set: (AUG-CC-PVTZ AUX)
    Blend: AUG-CC-PVTZ-JKFIT

    Orbital Energies [Eh]
    ---------------------

    Doubly Occupied:

       1A    -20.619626     2A    -20.576436     3A    -20.558729
       4A    -11.391302     5A    -11.319507     6A    -11.317522
       7A    -11.259895     8A     -1.469303     9A     -1.393998
      10A     -1.370825    11A     -1.095246    12A     -0.989163
      13A     -0.862404    14A     -0.801094    15A     -0.734459
      16A     -0.720062    17A     -0.689928    18A     -0.658882
      19A     -0.621572    20A     -0.604672    21A     -0.583821
      22A     -0.559206    23A     -0.536532    24A     -0.522113
      25A     -0.477072    26A     -0.467718    27A     -0.445896

  @DF-RHF Final Energy:  -379.70164478966296

   => Energetics <=

    Nuclear Repulsion Energy =            317.9389205644998242
    One-Electron Energy =               -1149.9871610133398008
    Two-Electron Energy =                 452.3465956591770691
    Total Energy =                       -379.7016447896629643
  Basis Set: (AUG-CC-PVTZ AUX)
    Blend: AUG-CC-PVTZ-RI
    Molecular point group: c1

    Geometry (in Angstrom), charge = 0, multiplicity = 1:

       Center              X                  Y                   Z               Mass
    ------------   -----------------  -----------------  -----------------  -----------------
         O            1.040015068584     1.064532246117    -0.085979664233    15.994914619570
         O           -1.610049531416    -1.214471353883    -0.166507364233    15.994914619570
         O           -1.183952931416     1.547087246117    -0.057667664233    15.994914619570
         C            0.853436068584    -1.297963753883    -0.188728664233    12.000000000000
         C           -0.418640931416    -0.723880753883     0.406287335767    12.000000000000
         C            1.831651068584    -0.150229753883     0.057830335767    12.000000000000
         C           -0.273000931416     0.754783246117     0.072562335767    12.000000000000
         H            0.692066068584    -1.451143753883    -1.259913664233     1.007825032230
         H            1.175340068584    -2.238902753883     0.262642335767     1.007825032230
         H           -0.409089931416    -0.824467753883     1.505428335767     1.007825032230
         H            2.247829068584    -0.168692753883     1.070279335767     1.007825032230
         H            2.645545068584    -0.086156753883    -0.664945664233     1.007825032230
         H           -2.250248931416    -0.528949753883    -0.134107664233     1.007825032230

  Basis Set: AUG-CC-PVTZ
    Blend: AUG-CC-PVTZ
  Basis Set: (AUG-CC-PVTZ AUX)
    Blend: AUG-CC-PVTZ-JKFIT
	 Reference Energy          =    -379.7016447896629643 [Eh]
	 Singles Energy            =      -0.0000000000000000 [Eh]
	 Same-Spin Energy          =      -0.3678862517607488 [Eh]
	 Opposite-Spin Energy      =      -1.1350903227267306 [Eh]
	 Correlation Energy        =      -1.5029765744874795 [Eh]
	 Total Energy              =    -381.2046213641504551 [Eh]

	 ================> DF-SCS-MP2 Energies <==================
	-----------------------------------------------------------
	 SCS Same-Spin Scale       =       0.3333333333333333 [-]
	 SCS Opposite-Spin Scale   =       1.2000000000000000 [-]
	 SCS Same-Spin Energy      =      -0.1226287505869163 [Eh]
	 SCS Opposite-Spin Energy  =      -1.3621083872720767 [Eh]
	 SCS Correlation Energy    =      -1.4847371378589931 [Eh]
	 SCS Total Energy          =    -381.1863819275219498 [Eh]
	-----------------------------------------------------------

  Dipole Moment: [D]
     X:     2.7146      Y:    -2.3637      Z:     1.0293     Total:     3.7437

*** Psi4 exiting successfully. Buy a developer a beer!
