                               Psi4 1.3.2 release

  ==> Input File <==

--------------------------------------------------------------------------
#psi4
#
memory 32 gb

molecule  {
0 1
  O        1.0008990     1.1197090    -0.0959030
  O       -1.6389080    -1.2036290    -0.1576800
  O       -1.2230690     1.6022640    -0.0675910
  C        0.8143200    -1.2427870    -0.1986520
  C       -0.4359844    -0.7123709     0.3899216
  C        1.7925350    -0.0950530     0.0479070
  C       -0.3121170     0.8099600     0.0626390
  H        0.6529500    -1.3959670    -1.2698370
  H        1.1362240    -2.1837260     0.2527190
  H       -0.4482060    -0.7692910     1.4955050
  H        2.2087130    -0.1135160     1.0603560
  H        2.6064290    -0.0309800    -0.6748690
  H       -2.2893650    -0.4737730    -0.1440310
units angstrom
no_reorient  #important for SAPT in psi4, default
symmetry c1  #important for SAPT in psi4, default
}

set PROPERTIES_ORIGIN ["COM"]
properties('MP2/aug-cc-pvtz', properties = ['dipole'])
--------------------------------------------------------------------------

    Molecular point group: c1
  Charge       = 0
  Multiplicity = 1
  Basis Set: AUG-CC-PVTZ
    Blend: AUG-CC-PVTZ
  Basis Set: (AUG-CC-PVTZ AUX)
    Blend: AUG-CC-PVTZ-JKFIT

    Orbital Energies [Eh]
    ---------------------

    Doubly Occupied:

       1A    -20.619895     2A    -20.579236     3A    -20.560207
       4A    -11.392554     5A    -11.319893     6A    -11.318279
       7A    -11.258008     8A     -1.468418     9A     -1.386468
      10A     -1.370205    11A     -1.099312    12A     -0.984467
      13A     -0.859080    14A     -0.797958    15A     -0.733771
      16A     -0.716071    17A     -0.687083    18A     -0.658645
      19A     -0.621731    20A     -0.605943    21A     -0.585671
      22A     -0.556625    23A     -0.535964    24A     -0.523860
      25A     -0.479227    26A     -0.468414    27A     -0.440102

  @DF-RHF Final Energy:  -379.69839417680464

   => Energetics <=

    Nuclear Repulsion Energy =            317.2541983149094449
    One-Electron Energy =               -1148.6510137027728433
    Two-Electron Energy =                 451.6984212110587578
    Total Energy =                       -379.6983941768046407
  Basis Set: (AUG-CC-PVTZ AUX)
    Blend: AUG-CC-PVTZ-RI
    Molecular point group: c1

    Geometry (in Angstrom), charge = 0, multiplicity = 1:

       Center              X                  Y                   Z               Mass
    ------------   -----------------  -----------------  -----------------  -----------------
         O            1.035846357674     1.076617978439    -0.088161408324    15.994914619570
         O           -1.603960642326    -1.246720021561    -0.149938408324    15.994914619570
         O           -1.188121642326     1.559172978439    -0.059849408324    15.994914619570
         C            0.849267357674    -1.285878021561    -0.190910408324    12.000000000000
         C           -0.401037042326    -0.755461921561     0.397663191676    12.000000000000
         C            1.827482357674    -0.138144021561     0.055648591676    12.000000000000
         C           -0.277169642326     0.766868978439     0.070380591676    12.000000000000
         H            0.687897357674    -1.439058021561    -1.262095408324     1.007825032230
         H            1.171171357674    -2.226817021561     0.260460591676     1.007825032230
         H           -0.413258642326    -0.812382021561     1.503246591676     1.007825032230
         H            2.243660357674    -0.156607021561     1.068097591676     1.007825032230
         H            2.641376357674    -0.074071021561    -0.667127408324     1.007825032230
         H           -2.254417642326    -0.516864021561    -0.136289408324     1.007825032230

  Basis Set: AUG-CC-PVTZ
    Blend: AUG-CC-PVTZ
  Basis Set: (AUG-CC-PVTZ AUX)
    Blend: AUG-CC-PVTZ-JKFIT
	 Reference Energy          =    -379.6983941768046407 [Eh]
	 Singles Energy            =      -0.0000000000000000 [Eh]
	 Same-Spin Energy          =      -0.3686273287224574 [Eh]
	 Opposite-Spin Energy      =      -1.1364907608756212 [Eh]
	 Correlation Energy        =      -1.5051180895980787 [Eh]
	 Total Energy              =    -381.2035122664026972 [Eh]

	 ================> DF-SCS-MP2 Energies <==================
	-----------------------------------------------------------
	 SCS Same-Spin Scale       =       0.3333333333333333 [-]
	 SCS Opposite-Spin Scale   =       1.2000000000000000 [-]
	 SCS Same-Spin Energy      =      -0.1228757762408191 [Eh]
	 SCS Opposite-Spin Energy  =      -1.3637889130507455 [Eh]
	 SCS Correlation Energy    =      -1.4866646892915645 [Eh]
	 SCS Total Energy          =    -381.1850588660961989 [Eh]
	-----------------------------------------------------------

  Dipole Moment: [D]
     X:     2.7408      Y:    -2.2751      Z:     0.9584     Total:     3.6887

*** Psi4 exiting successfully. Buy a developer a beer!
