                               Psi4 1.3.2 release

  ==> Input File <==

--------------------------------------------------------------------------
#psi4
#
memory 32 gb

molecule  {
0 1
  O        1.0008990     1.1197090    -0.0959030
  O       -1.6113111    -1.2319277    -0.1870048
  O       -1.2230690     1.6022640    -0.0675910
  C        0.8143200    -1.2427870    -0.1986520
  C       -0.4577570    -0.6687040     0.3963640
  C        1.7925350    -0.0950530     0.0479070
  C       -0.3121170     0.8099600     0.0626390
  H        0.6529500    -1.3959670    -1.2698370
  H        1.1362240    -2.1837260     0.2527190
  H       -0.4482060    -0.7692910     1.4955050
  H        2.2087130    -0.1135160     1.0603560
  H        2.6064290    -0.0309800    -0.6748690
  H       -2.2893650    -0.4737730    -0.1440310
units angstrom
no_reorient  #important for SAPT in psi4, default
symmetry c1  #important for SAPT in psi4, default
}

set PROPERTIES_ORIGIN ["COM"]
properties('MP2/aug-cc-pvtz', properties = ['dipole'])
--------------------------------------------------------------------------

    Molecular point group: c1
  Charge       = 0
  Multiplicity = 1
  Basis Set: AUG-CC-PVTZ
    Blend: AUG-CC-PVTZ
  Basis Set: (AUG-CC-PVTZ AUX)
    Blend: AUG-CC-PVTZ-JKFIT

    Orbital Energies [Eh]
    ---------------------

    Doubly Occupied:

       1A    -20.620484     2A    -20.585651     3A    -20.560532
       4A    -11.393048     5A    -11.317948     6A    -11.316410
       7A    -11.257365     8A     -1.469750     9A     -1.384324
      10A     -1.369408    11A     -1.091563    12A     -0.987022
      13A     -0.862037    14A     -0.793397    15A     -0.734203
      16A     -0.709411    17A     -0.687353    18A     -0.658603
      19A     -0.622304    20A     -0.603812    21A     -0.579883
      22A     -0.560433    23A     -0.534307    24A     -0.522519
      25A     -0.475761    26A     -0.468392    27A     -0.446680

  @DF-RHF Final Energy:  -379.69621955835521

   => Energetics <=

    Nuclear Repulsion Energy =            317.3264573299244944
    One-Electron Energy =               -1148.8201538156260995
    Two-Electron Energy =                 451.7974769273463380
    Total Energy =                       -379.6962195583552102
  Basis Set: (AUG-CC-PVTZ AUX)
    Blend: AUG-CC-PVTZ-RI
    Molecular point group: c1

    Geometry (in Angstrom), charge = 0, multiplicity = 1:

       Center              X                  Y                   Z               Mass
    ------------   -----------------  -----------------  -----------------  -----------------
         O            1.034080839019     1.075918514313    -0.084322024142    15.994914619570
         O           -1.578129260981    -1.275718185687    -0.175423824142    15.994914619570
         O           -1.189887160981     1.558473514313    -0.056010024142    15.994914619570
         C            0.847501839019    -1.286577485687    -0.187071024142    12.000000000000
         C           -0.424575160981    -0.712494485687     0.407944975858    12.000000000000
         C            1.825716839019    -0.138843485687     0.059487975858    12.000000000000
         C           -0.278935160981     0.766169514313     0.074219975858    12.000000000000
         H            0.686131839019    -1.439757485687    -1.258256024142     1.007825032230
         H            1.169405839019    -2.227516485687     0.264299975858     1.007825032230
         H           -0.415024160981    -0.813081485687     1.507085975858     1.007825032230
         H            2.241894839019    -0.157306485687     1.071936975858     1.007825032230
         H            2.639610839019    -0.074770485687    -0.663288024142     1.007825032230
         H           -2.256183160981    -0.517563485687    -0.132450024142     1.007825032230

  Basis Set: AUG-CC-PVTZ
    Blend: AUG-CC-PVTZ
  Basis Set: (AUG-CC-PVTZ AUX)
    Blend: AUG-CC-PVTZ-JKFIT
	 Reference Energy          =    -379.6962195583552102 [Eh]
	 Singles Energy            =      -0.0000000000000000 [Eh]
	 Same-Spin Energy          =      -0.3690726197442432 [Eh]
	 Opposite-Spin Energy      =      -1.1380113876957250 [Eh]
	 Correlation Energy        =      -1.5070840074399681 [Eh]
	 Total Energy              =    -381.2033035657951814 [Eh]

	 ================> DF-SCS-MP2 Energies <==================
	-----------------------------------------------------------
	 SCS Same-Spin Scale       =       0.3333333333333333 [-]
	 SCS Opposite-Spin Scale   =       1.2000000000000000 [-]
	 SCS Same-Spin Energy      =      -0.1230242065814144 [Eh]
	 SCS Opposite-Spin Energy  =      -1.3656136652348698 [Eh]
	 SCS Correlation Energy    =      -1.4886378718162843 [Eh]
	 SCS Total Energy          =    -381.1848574301715189 [Eh]
	-----------------------------------------------------------

  Dipole Moment: [D]
     X:     2.6311      Y:    -2.2591      Z:     1.0323     Total:     3.6183

*** Psi4 exiting successfully. Buy a developer a beer!
