                               Psi4 1.3.2 release

  ==> Input File <==

--------------------------------------------------------------------------
#psi4
#
memory 32 gb

molecule  {
0 1
  O        1.0008990     1.1197090    -0.0959030
  O       -1.6389080    -1.2036290    -0.1576800
  O       -1.2230690     1.6022640    -0.0675910
  C        0.8143200    -1.2427870    -0.1986520
  C       -0.4577570    -0.6687040     0.3963640
  C        1.7925350    -0.0950530     0.0479070
  C       -0.2929895     1.0041587     0.0188096
  H        0.6529500    -1.3959670    -1.2698370
  H        1.1362240    -2.1837260     0.2527190
  H       -0.4482060    -0.7692910     1.4955050
  H        2.2087130    -0.1135160     1.0603560
  H        2.6064290    -0.0309800    -0.6748690
  H       -2.2893650    -0.4737730    -0.1440310
units angstrom
no_reorient  #important for SAPT in psi4, default
symmetry c1  #important for SAPT in psi4, default
}

set PROPERTIES_ORIGIN ["COM"]
properties('MP2/aug-cc-pvtz', properties = ['dipole'])
--------------------------------------------------------------------------

    Molecular point group: c1
  Charge       = 0
  Multiplicity = 1
  Basis Set: AUG-CC-PVTZ
    Blend: AUG-CC-PVTZ
  Basis Set: (AUG-CC-PVTZ AUX)
    Blend: AUG-CC-PVTZ-JKFIT

    Orbital Energies [Eh]
    ---------------------

    Doubly Occupied:

       1A    -20.620378     2A    -20.570844     3A    -20.566589
       4A    -11.386750     5A    -11.320551     6A    -11.295136
       7A    -11.246827     8A     -1.507644     9A     -1.437321
      10A     -1.366035    11A     -1.078979    12A     -0.970520
      13A     -0.839301    14A     -0.786193    15A     -0.736923
      16A     -0.721722    17A     -0.695466    18A     -0.662725
      19A     -0.636840    20A     -0.619133    21A     -0.580744
      22A     -0.562007    23A     -0.539408    24A     -0.526082
      25A     -0.487754    26A     -0.460065    27A     -0.388913

  @DF-RHF Final Energy:  -379.66605310265618

   => Energetics <=

    Nuclear Repulsion Energy =            317.0257390656189500
    One-Electron Energy =               -1148.1618834590376537
    Two-Electron Energy =                 451.4700912907625252
    Total Energy =                       -379.6660531026561785
  Basis Set: (AUG-CC-PVTZ AUX)
    Blend: AUG-CC-PVTZ-RI
    Molecular point group: c1

    Geometry (in Angstrom), charge = 0, multiplicity = 1:

       Center              X                  Y                   Z               Mass
    ------------   -----------------  -----------------  -----------------  -----------------
         O            1.036157449245     1.048642482917    -0.083764304031    15.994914619570
         O           -1.603649550755    -1.274695517083    -0.145541304031    15.994914619570
         O           -1.187810550755     1.531197482917    -0.055452304031    15.994914619570
         C            0.849578449245    -1.313853517083    -0.186513304031    12.000000000000
         C           -0.422498550755    -0.739770517083     0.408502695969    12.000000000000
         C            1.827793449245    -0.166119517083     0.060045695969    12.000000000000
         C           -0.257731050755     0.933092182917     0.030948295969    12.000000000000
         H            0.688208449245    -1.467033517083    -1.257698304031     1.007825032230
         H            1.171482449245    -2.254792517083     0.264857695969     1.007825032230
         H           -0.412947550755    -0.840357517083     1.507643695969     1.007825032230
         H            2.243971449245    -0.184582517083     1.072494695969     1.007825032230
         H            2.641687449245    -0.102046517083    -0.662730304031     1.007825032230
         H           -2.254106550755    -0.544839517083    -0.131892304031     1.007825032230

  Basis Set: AUG-CC-PVTZ
    Blend: AUG-CC-PVTZ
  Basis Set: (AUG-CC-PVTZ AUX)
    Blend: AUG-CC-PVTZ-JKFIT
	 Reference Energy          =    -379.6660531026561785 [Eh]
	 Singles Energy            =      -0.0000000000000000 [Eh]
	 Same-Spin Energy          =      -0.3661670558740161 [Eh]
	 Opposite-Spin Energy      =      -1.1310767427624482 [Eh]
	 Correlation Energy        =      -1.4972437986364642 [Eh]
	 Total Energy              =    -381.1632969012926537 [Eh]

	 ================> DF-SCS-MP2 Energies <==================
	-----------------------------------------------------------
	 SCS Same-Spin Scale       =       0.3333333333333333 [-]
	 SCS Opposite-Spin Scale   =       1.2000000000000000 [-]
	 SCS Same-Spin Energy      =      -0.1220556852913387 [Eh]
	 SCS Opposite-Spin Energy  =      -1.3572920913149378 [Eh]
	 SCS Correlation Energy    =      -1.4793477766062764 [Eh]
	 SCS Total Energy          =    -381.1454008792624677 [Eh]
	-----------------------------------------------------------

  Dipole Moment: [D]
     X:     2.7083      Y:    -1.2225      Z:     0.7595     Total:     3.0670

*** Psi4 exiting successfully. Buy a developer a beer!
