                               Psi4 1.3.2 release

  ==> Input File <==

--------------------------------------------------------------------------
#psi4
#
memory 32 gb

molecule  {
0 1
  O        1.0008990     1.1197090    -0.0959030
  O       -1.6653153    -1.0688873    -0.2118165
  O       -1.2230690     1.6022640    -0.0675910
  C        0.8143200    -1.2427870    -0.1986520
  C       -0.4577570    -0.6687040     0.3963640
  C        1.7925350    -0.0950530     0.0479070
  C       -0.3121170     0.8099600     0.0626390
  H        0.6529500    -1.3959670    -1.2698370
  H        1.1362240    -2.1837260     0.2527190
  H       -0.4482060    -0.7692910     1.4955050
  H        2.2087130    -0.1135160     1.0603560
  H        2.6064290    -0.0309800    -0.6748690
  H       -2.2893650    -0.4737730    -0.1440310
units angstrom
no_reorient  #important for SAPT in psi4, default
symmetry c1  #important for SAPT in psi4, default
}

set PROPERTIES_ORIGIN ["COM"]
properties('MP2/aug-cc-pvtz', properties = ['dipole'])
--------------------------------------------------------------------------

    Molecular point group: c1
  Charge       = 0
  Multiplicity = 1
  Basis Set: AUG-CC-PVTZ
    Blend: AUG-CC-PVTZ
  Basis Set: (AUG-CC-PVTZ AUX)
    Blend: AUG-CC-PVTZ-JKFIT

    Orbital Energies [Eh]
    ---------------------

    Doubly Occupied:

       1A    -20.617999     2A    -20.566514     3A    -20.555963
       4A    -11.388518     5A    -11.321760     6A    -11.318061
       7A    -11.261969     8A     -1.468611     9A     -1.407951
      10A     -1.369607    11A     -1.099001    12A     -0.991821
      13A     -0.863554    14A     -0.809097    15A     -0.737847
      16A     -0.728860    17A     -0.690421    18A     -0.659352
      19A     -0.620299    20A     -0.604378    21A     -0.586427
      22A     -0.556912    23A     -0.538169    24A     -0.517957
      25A     -0.481394    26A     -0.466002    27A     -0.443533

  @DF-RHF Final Energy:  -379.69053130075844

   => Energetics <=

    Nuclear Repulsion Energy =            318.9820392367225281
    One-Electron Energy =               -1152.0011844515336179
    Two-Electron Energy =                 453.3286139140525961
    Total Energy =                       -379.6905313007584368
  Basis Set: (AUG-CC-PVTZ AUX)
    Blend: AUG-CC-PVTZ-RI
    Molecular point group: c1

    Geometry (in Angstrom), charge = 0, multiplicity = 1:

       Center              X                  Y                   Z               Mass
    ------------   -----------------  -----------------  -----------------  -----------------
         O            1.042546763025     1.050359620072    -0.080432438393    15.994914619570
         O           -1.623667536975    -1.138236679928    -0.196345938393    15.994914619570
         O           -1.181421236975     1.532914620072    -0.052120438393    15.994914619570
         C            0.855967763025    -1.312136379928    -0.183181438393    12.000000000000
         C           -0.416109236975    -0.738053379928     0.411834561607    12.000000000000
         C            1.834182763025    -0.164402379928     0.063377561607    12.000000000000
         C           -0.270469236975     0.740610620072     0.078109561607    12.000000000000
         H            0.694597763025    -1.465316379928    -1.254366438393     1.007825032230
         H            1.177871763025    -2.253075379928     0.268189561607     1.007825032230
         H           -0.406558236975    -0.838640379928     1.510975561607     1.007825032230
         H            2.250360763025    -0.182865379928     1.075826561607     1.007825032230
         H            2.648076763025    -0.100329379928    -0.659398438393     1.007825032230
         H           -2.247717236975    -0.543122379928    -0.128560438393     1.007825032230

  Basis Set: AUG-CC-PVTZ
    Blend: AUG-CC-PVTZ
  Basis Set: (AUG-CC-PVTZ AUX)
    Blend: AUG-CC-PVTZ-JKFIT
	 Reference Energy          =    -379.6905313007584368 [Eh]
	 Singles Energy            =      -0.0000000000000000 [Eh]
	 Same-Spin Energy          =      -0.3670104207162966 [Eh]
	 Opposite-Spin Energy      =      -1.1329039826878819 [Eh]
	 Correlation Energy        =      -1.4999144034041785 [Eh]
	 Total Energy              =    -381.1904457041626415 [Eh]

	 ================> DF-SCS-MP2 Energies <==================
	-----------------------------------------------------------
	 SCS Same-Spin Scale       =       0.3333333333333333 [-]
	 SCS Opposite-Spin Scale   =       1.2000000000000000 [-]
	 SCS Same-Spin Energy      =      -0.1223368069054322 [Eh]
	 SCS Opposite-Spin Energy  =      -1.3594847792254583 [Eh]
	 SCS Correlation Energy    =      -1.4818215861308905 [Eh]
	 SCS Total Energy          =    -381.1723528868893140 [Eh]
	-----------------------------------------------------------

  Dipole Moment: [D]
     X:     2.7491      Y:    -2.5249      Z:     1.1313     Total:     3.9003

*** Psi4 exiting successfully. Buy a developer a beer!
