                               Psi4 1.3.2 release

  ==> Input File <==

--------------------------------------------------------------------------
#psi4
#
memory 32 gb

molecule  {
0 1
  O        1.0008990     1.1197090    -0.0959030
  O       -1.6389080    -1.2036290    -0.1576800
  O       -1.2230690     1.6022640    -0.0675910
  C        0.8143200    -1.2427870    -0.1986520
  C       -0.4577570    -0.6687040     0.3963640
  C        1.9154941    -0.0082749     0.0231920
  C       -0.3121170     0.8099600     0.0626390
  H        0.6529500    -1.3959670    -1.2698370
  H        1.1362240    -2.1837260     0.2527190
  H       -0.4482060    -0.7692910     1.4955050
  H        2.2087130    -0.1135160     1.0603560
  H        2.6064290    -0.0309800    -0.6748690
  H       -2.2893650    -0.4737730    -0.1440310
units angstrom
no_reorient  #important for SAPT in psi4, default
symmetry c1  #important for SAPT in psi4, default
}

set PROPERTIES_ORIGIN ["COM"]
properties('MP2/aug-cc-pvtz', properties = ['dipole'])
--------------------------------------------------------------------------

    Molecular point group: c1
  Charge       = 0
  Multiplicity = 1
  Basis Set: AUG-CC-PVTZ
    Blend: AUG-CC-PVTZ
  Basis Set: (AUG-CC-PVTZ AUX)
    Blend: AUG-CC-PVTZ-JKFIT

    Orbital Energies [Eh]
    ---------------------

    Doubly Occupied:

       1A    -20.617554     2A    -20.580191     3A    -20.560385
       4A    -11.393908     5A    -11.317826     6A    -11.316692
       7A    -11.261830     8A     -1.465422     9A     -1.387009
      10A     -1.369412    11A     -1.072811    12A     -0.997197
      13A     -0.862529    14A     -0.794911    15A     -0.731638
      16A     -0.727147    17A     -0.686402    18A     -0.670590
      19A     -0.620445    20A     -0.602640    21A     -0.587020
      22A     -0.558617    23A     -0.529618    24A     -0.499829
      25A     -0.478561    26A     -0.461624    27A     -0.446393

  @DF-RHF Final Energy:  -379.67838625018328

   => Energetics <=

    Nuclear Repulsion Energy =            315.3811049598847376
    One-Electron Energy =               -1144.9225753918767623
    Two-Electron Energy =                 449.8630841818087447
    Total Energy =                       -379.6783862501832800
  Basis Set: (AUG-CC-PVTZ AUX)
    Blend: AUG-CC-PVTZ-RI
    Molecular point group: c1

    Geometry (in Angstrom), charge = 0, multiplicity = 1:

       Center              X                  Y                   Z               Mass
    ------------   -----------------  -----------------  -----------------  -----------------
         O            1.023945761381     1.061276274917    -0.086012358443    15.994914619570
         O           -1.615861238619    -1.262061725083    -0.147789358443    15.994914619570
         O           -1.200022238619     1.543831274917    -0.057700358443    15.994914619570
         C            0.837366761381    -1.301219725083    -0.188761358443    12.000000000000
         C           -0.434710238619    -0.727136725083     0.406254641557    12.000000000000
         C            1.938540861381    -0.066707625083     0.033082641557    12.000000000000
         C           -0.289070238619     0.751527274917     0.072529641557    12.000000000000
         H            0.675996761381    -1.454399725083    -1.259946358443     1.007825032230
         H            1.159270761381    -2.242158725083     0.262609641557     1.007825032230
         H           -0.425159238619    -0.827723725083     1.505395641557     1.007825032230
         H            2.231759761381    -0.171948725083     1.070246641557     1.007825032230
         H            2.629475761381    -0.089412725083    -0.664978358443     1.007825032230
         H           -2.266318238619    -0.532205725083    -0.134140358443     1.007825032230

  Basis Set: AUG-CC-PVTZ
    Blend: AUG-CC-PVTZ
  Basis Set: (AUG-CC-PVTZ AUX)
    Blend: AUG-CC-PVTZ-JKFIT
	 Reference Energy          =    -379.6783862501832800 [Eh]
	 Singles Energy            =      -0.0000000000000000 [Eh]
	 Same-Spin Energy          =      -0.3679945558520694 [Eh]
	 Opposite-Spin Energy      =      -1.1367242309730448 [Eh]
	 Correlation Energy        =      -1.5047187868251142 [Eh]
	 Total Energy              =    -381.1831050370083744 [Eh]

	 ================> DF-SCS-MP2 Energies <==================
	-----------------------------------------------------------
	 SCS Same-Spin Scale       =       0.3333333333333333 [-]
	 SCS Opposite-Spin Scale   =       1.2000000000000000 [-]
	 SCS Same-Spin Energy      =      -0.1226648519506898 [Eh]
	 SCS Opposite-Spin Energy  =      -1.3640690771676536 [Eh]
	 SCS Correlation Energy    =      -1.4867339291183435 [Eh]
	 SCS Total Energy          =    -381.1651201793015957 [Eh]
	-----------------------------------------------------------

  Dipole Moment: [D]
     X:     2.8300      Y:    -2.1683      Z:     0.9585     Total:     3.6917

*** Psi4 exiting successfully. Buy a developer a beer!
