                               Psi4 1.3.2 release

  ==> Input File <==

--------------------------------------------------------------------------
#psi4
#
memory 32 gb

molecule  {
0 1
  O        1.0008990     1.1197090    -0.0959030
  O       -1.6389080    -1.2036290    -0.1576800
  O       -1.2230690     1.6022640    -0.0675910
  C        0.8143200    -1.2427870    -0.1986520
  C       -0.4577570    -0.6687040     0.3963640
  C        1.7925350    -0.0950530     0.0479070
  C       -0.3121170     0.8099600     0.0626390
  H        0.6836623    -1.5049576    -1.2527567
  H        1.1362240    -2.1837260     0.2527190
  H       -0.4482060    -0.7692910     1.4955050
  H        2.2087130    -0.1135160     1.0603560
  H        2.6064290    -0.0309800    -0.6748690
  H       -2.2893650    -0.4737730    -0.1440310
units angstrom
no_reorient  #important for SAPT in psi4, default
symmetry c1  #important for SAPT in psi4, default
}

set PROPERTIES_ORIGIN ["COM"]
properties('MP2/aug-cc-pvtz', properties = ['dipole'])
--------------------------------------------------------------------------

    Molecular point group: c1
  Charge       = 0
  Multiplicity = 1
  Basis Set: AUG-CC-PVTZ
    Blend: AUG-CC-PVTZ
  Basis Set: (AUG-CC-PVTZ AUX)
    Blend: AUG-CC-PVTZ-JKFIT

    Orbital Energies [Eh]
    ---------------------

    Doubly Occupied:

       1A    -20.620286     2A    -20.580971     3A    -20.559917
       4A    -11.392625     5A    -11.319195     6A    -11.317756
       7A    -11.258331     8A     -1.469669     9A     -1.388283
      10A     -1.370625    11A     -1.092596    12A     -0.988278
      13A     -0.864183    14A     -0.797433    15A     -0.732345
      16A     -0.713934    17A     -0.690629    18A     -0.658738
      19A     -0.623148    20A     -0.604707    21A     -0.581387
      22A     -0.556781    23A     -0.537856    24A     -0.521109
      25A     -0.475656    26A     -0.468427    27A     -0.446624

  @DF-RHF Final Energy:  -379.69964267738635

   => Energetics <=

    Nuclear Repulsion Energy =            317.2803681425552327
    One-Electron Energy =               -1148.6970439425606401
    Two-Electron Energy =                 451.7170331226190001
    Total Energy =                       -379.6996426773863504
  Basis Set: (AUG-CC-PVTZ AUX)
    Blend: AUG-CC-PVTZ-RI
    Molecular point group: c1

    Geometry (in Angstrom), charge = 0, multiplicity = 1:

       Center              X                  Y                   Z               Mass
    ------------   -----------------  -----------------  -----------------  -----------------
         O            1.038103681512     1.072558853979    -0.089087814131    15.994914619570
         O           -1.601703318488    -1.250779146021    -0.150864814131    15.994914619570
         O           -1.185864318488     1.555113853979    -0.060775814131    15.994914619570
         C            0.851524681512    -1.289937146021    -0.191836814131    12.000000000000
         C           -0.420552318488    -0.715854146021     0.403179185869    12.000000000000
         C            1.829739681512    -0.142203146021     0.054722185869    12.000000000000
         C           -0.274912318488     0.762809853979     0.069454185869    12.000000000000
         H            0.720866981512    -1.552107746021    -1.245941514131     1.007825032230
         H            1.173428681512    -2.230876146021     0.259534185869     1.007825032230
         H           -0.411001318488    -0.816441146021     1.502320185869     1.007825032230
         H            2.245917681512    -0.160666146021     1.067171185869     1.007825032230
         H            2.643633681512    -0.078130146021    -0.668053814131     1.007825032230
         H           -2.252160318488    -0.520923146021    -0.137215814131     1.007825032230

  Basis Set: AUG-CC-PVTZ
    Blend: AUG-CC-PVTZ
  Basis Set: (AUG-CC-PVTZ AUX)
    Blend: AUG-CC-PVTZ-JKFIT
	 Reference Energy          =    -379.6996426773863504 [Eh]
	 Singles Energy            =      -0.0000000000000000 [Eh]
	 Same-Spin Energy          =      -0.3683645350488468 [Eh]
	 Opposite-Spin Energy      =      -1.1363229225438811 [Eh]
	 Correlation Energy        =      -1.5046874575927278 [Eh]
	 Total Energy              =    -381.2043301349791022 [Eh]

	 ================> DF-SCS-MP2 Energies <==================
	-----------------------------------------------------------
	 SCS Same-Spin Scale       =       0.3333333333333333 [-]
	 SCS Opposite-Spin Scale   =       1.2000000000000000 [-]
	 SCS Same-Spin Energy      =      -0.1227881783496156 [Eh]
	 SCS Opposite-Spin Energy  =      -1.3635875070526573 [Eh]
	 SCS Correlation Energy    =      -1.4863756854022729 [Eh]
	 SCS Total Energy          =    -381.1860183627886158 [Eh]
	-----------------------------------------------------------

  Dipole Moment: [D]
     X:     2.7009      Y:    -2.3217      Z:     0.9737     Total:     3.6923

*** Psi4 exiting successfully. Buy a developer a beer!
