                               Psi4 1.3.2 release

  ==> Input File <==

--------------------------------------------------------------------------
#psi4
#
memory 32 gb

molecule  {
0 1
  O        1.0008990     1.1197090    -0.0959030
  O       -1.6389080    -1.2036290    -0.1576800
  O       -1.2230690     1.6022640    -0.0675910
  C        0.8143200    -1.2427870    -0.1986520
  C       -0.4577570    -0.6687040     0.3963640
  C        1.7925350    -0.0950530     0.0479070
  C       -0.3216807     0.7128607     0.0845537
  H        0.6529500    -1.3959670    -1.2698370
  H        1.1362240    -2.1837260     0.2527190
  H       -0.4482060    -0.7692910     1.4955050
  H        2.2087130    -0.1135160     1.0603560
  H        2.6064290    -0.0309800    -0.6748690
  H       -2.2893650    -0.4737730    -0.1440310
units angstrom
no_reorient  #important for SAPT in psi4, default
symmetry c1  #important for SAPT in psi4, default
}

set PROPERTIES_ORIGIN ["COM"]
properties('MP2/aug-cc-pvtz', properties = ['dipole'])
--------------------------------------------------------------------------

    Molecular point group: c1
  Charge       = 0
  Multiplicity = 1
  Basis Set: AUG-CC-PVTZ
    Blend: AUG-CC-PVTZ
  Basis Set: (AUG-CC-PVTZ AUX)
    Blend: AUG-CC-PVTZ-JKFIT

    Orbital Energies [Eh]
    ---------------------

    Doubly Occupied:

       1A    -20.621575     2A    -20.587554     3A    -20.558027
       4A    -11.401035     5A    -11.322676     6A    -11.315764
       7A    -11.264696     8A     -1.456899     9A     -1.393588
      10A     -1.338030    11A     -1.108447    12A     -1.001344
      13A     -0.872879    14A     -0.802311    15A     -0.737399
      16A     -0.711893    17A     -0.692518    18A     -0.656252
      19A     -0.608818    20A     -0.598545    21A     -0.586927
      22A     -0.559879    23A     -0.534132    24A     -0.520503
      25A     -0.480975    26A     -0.457915    27A     -0.456168

  @DF-RHF Final Energy:  -379.67703441045853

   => Energetics <=

    Nuclear Repulsion Energy =            317.7529127810596492
    One-Electron Energy =               -1149.5663950233029027
    Two-Electron Energy =                 452.1364478317847215
    Total Energy =                       -379.6770344104585320
  Basis Set: (AUG-CC-PVTZ AUX)
    Blend: AUG-CC-PVTZ-RI
    Molecular point group: c1

    Geometry (in Angstrom), charge = 0, multiplicity = 1:

       Center              X                  Y                   Z               Mass
    ------------   -----------------  -----------------  -----------------  -----------------
         O            1.039531836029     1.082902190477    -0.091496501436    15.994914619570
         O           -1.600275163971    -1.240435809523    -0.153273501436    15.994914619570
         O           -1.184436163971     1.565457190477    -0.063184501436    15.994914619570
         C            0.852952836029    -1.279593809523    -0.194245501436    12.000000000000
         C           -0.419124163971    -0.705510809523     0.400770498564    12.000000000000
         C            1.831167836029    -0.131859809523     0.052313498564    12.000000000000
         C           -0.283047863971     0.676053890477     0.088960198564    12.000000000000
         H            0.691582836029    -1.432773809523    -1.265430501436     1.007825032230
         H            1.174856836029    -2.220532809523     0.257125498564     1.007825032230
         H           -0.409573163971    -0.806097809523     1.499911498564     1.007825032230
         H            2.247345836029    -0.150322809523     1.064762498564     1.007825032230
         H            2.645061836029    -0.067786809523    -0.670462501436     1.007825032230
         H           -2.250732163971    -0.510579809523    -0.139624501436     1.007825032230

  Basis Set: AUG-CC-PVTZ
    Blend: AUG-CC-PVTZ
  Basis Set: (AUG-CC-PVTZ AUX)
    Blend: AUG-CC-PVTZ-JKFIT
	 Reference Energy          =    -379.6770344104585320 [Eh]
	 Singles Energy            =      -0.0000000000000000 [Eh]
	 Same-Spin Energy          =      -0.3714409032404075 [Eh]
	 Opposite-Spin Energy      =      -1.1426418545600638 [Eh]
	 Correlation Energy        =      -1.5140827578004714 [Eh]
	 Total Energy              =    -381.1911171682589838 [Eh]

	 ================> DF-SCS-MP2 Energies <==================
	-----------------------------------------------------------
	 SCS Same-Spin Scale       =       0.3333333333333333 [-]
	 SCS Opposite-Spin Scale   =       1.2000000000000000 [-]
	 SCS Same-Spin Energy      =      -0.1238136344134692 [Eh]
	 SCS Opposite-Spin Energy  =      -1.3711702254720766 [Eh]
	 SCS Correlation Energy    =      -1.4949838598855458 [Eh]
	 SCS Total Energy          =    -381.1720182703440969 [Eh]
	-----------------------------------------------------------

  Dipole Moment: [D]
     X:     2.6588      Y:    -2.6806      Z:     1.0645     Total:     3.9227

*** Psi4 exiting successfully. Buy a developer a beer!
