                               Psi4 1.3.2 release

  ==> Input File <==

--------------------------------------------------------------------------
#psi4
#
memory 32 gb

molecule  {
0 1
  O        1.1287855     1.1970684    -0.0655588
  O       -1.6389080    -1.2036290    -0.1576800
  O       -1.2230690     1.6022640    -0.0675910
  C        0.8143200    -1.2427870    -0.1986520
  C       -0.4577570    -0.6687040     0.3963640
  C        1.7925350    -0.0950530     0.0479070
  C       -0.3121170     0.8099600     0.0626390
  H        0.6529500    -1.3959670    -1.2698370
  H        1.1362240    -2.1837260     0.2527190
  H       -0.4482060    -0.7692910     1.4955050
  H        2.2087130    -0.1135160     1.0603560
  H        2.6064290    -0.0309800    -0.6748690
  H       -2.2893650    -0.4737730    -0.1440310
units angstrom
no_reorient  #important for SAPT in psi4, default
symmetry c1  #important for SAPT in psi4, default
}

set PROPERTIES_ORIGIN ["COM"]
properties('MP2/aug-cc-pvtz', properties = ['dipole'])
--------------------------------------------------------------------------

    Molecular point group: c1
  Charge       = 0
  Multiplicity = 1
  Basis Set: AUG-CC-PVTZ
    Blend: AUG-CC-PVTZ
  Basis Set: (AUG-CC-PVTZ AUX)
    Blend: AUG-CC-PVTZ-JKFIT

    Orbital Energies [Eh]
    ---------------------

    Doubly Occupied:

       1A    -20.611952     2A    -20.588236     3A    -20.581582
       4A    -11.408357     5A    -11.328302     6A    -11.305683
       7A    -11.260115     8A     -1.442596     9A     -1.388165
      10A     -1.369587    11A     -1.094870    12A     -0.973530
      13A     -0.855390    14A     -0.796911    15A     -0.722541
      16A     -0.711757    17A     -0.687152    18A     -0.651796
      19A     -0.617395    20A     -0.596218    21A     -0.578308
      22A     -0.562611    23A     -0.540127    24A     -0.529509
      25A     -0.478533    26A     -0.465226    27A     -0.451524

  @DF-RHF Final Energy:  -379.67718106310832

   => Energetics <=

    Nuclear Repulsion Energy =            313.5867163312137791
    One-Electron Energy =               -1141.3318488820532366
    Two-Electron Energy =                 448.0679514877311362
    Total Energy =                       -379.6771810631083213
  Basis Set: (AUG-CC-PVTZ AUX)
    Blend: AUG-CC-PVTZ-RI
    Molecular point group: c1

    Geometry (in Angstrom), charge = 0, multiplicity = 1:

       Center              X                  Y                   Z               Mass
    ------------   -----------------  -----------------  -----------------  -----------------
         O            1.146245522341     1.136714509147    -0.063331785862    15.994914619570
         O           -1.621447977659    -1.263982890853    -0.155452985862    15.994914619570
         O           -1.205608977659     1.541910109147    -0.065363985862    15.994914619570
         C            0.831780022341    -1.303140890853    -0.196424985862    12.000000000000
         C           -0.440296977659    -0.729057890853     0.398591014138    12.000000000000
         C            1.809995022341    -0.155406890853     0.050134014138    12.000000000000
         C           -0.294656977659     0.749606109147     0.064866014138    12.000000000000
         H            0.670410022341    -1.456320890853    -1.267609985862     1.007825032230
         H            1.153684022341    -2.244079890853     0.254946014138     1.007825032230
         H           -0.430745977659    -0.829644890853     1.497732014138     1.007825032230
         H            2.226173022341    -0.173869890853     1.062583014138     1.007825032230
         H            2.623889022341    -0.091333890853    -0.672641985862     1.007825032230
         H           -2.271904977659    -0.534126890853    -0.141803985862     1.007825032230

  Basis Set: AUG-CC-PVTZ
    Blend: AUG-CC-PVTZ
  Basis Set: (AUG-CC-PVTZ AUX)
    Blend: AUG-CC-PVTZ-JKFIT
	 Reference Energy          =    -379.6771810631083213 [Eh]
	 Singles Energy            =      -0.0000000000000000 [Eh]
	 Same-Spin Energy          =      -0.3705939445985331 [Eh]
	 Opposite-Spin Energy      =      -1.1430426560157039 [Eh]
	 Correlation Energy        =      -1.5136366006142370 [Eh]
	 Total Energy              =    -381.1908176637225552 [Eh]

	 ================> DF-SCS-MP2 Energies <==================
	-----------------------------------------------------------
	 SCS Same-Spin Scale       =       0.3333333333333333 [-]
	 SCS Opposite-Spin Scale   =       1.2000000000000000 [-]
	 SCS Same-Spin Energy      =      -0.1235313148661777 [Eh]
	 SCS Opposite-Spin Energy  =      -1.3716511872188446 [Eh]
	 SCS Correlation Energy    =      -1.4951825020850222 [Eh]
	 SCS Total Energy          =    -381.1723635651933364 [Eh]
	-----------------------------------------------------------

  Dipole Moment: [D]
     X:     1.7954      Y:    -2.3389      Z:     0.9680     Total:     3.1034

*** Psi4 exiting successfully. Buy a developer a beer!
