                               Psi4 1.3.2 release

  ==> Input File <==

--------------------------------------------------------------------------
#psi4
#
memory 32 gb

molecule  {
0 1
  O        1.0426315     1.1470192    -0.0859472
  O       -1.6389080    -1.2036290    -0.1576800
  O       -1.2230690     1.6022640    -0.0675910
  C        0.8143200    -1.2427870    -0.1986520
  C       -0.4577570    -0.6687040     0.3963640
  C        1.7925350    -0.0950530     0.0479070
  C       -0.3121170     0.8099600     0.0626390
  H        0.6529500    -1.3959670    -1.2698370
  H        1.1362240    -2.1837260     0.2527190
  H       -0.4482060    -0.7692910     1.4955050
  H        2.2087130    -0.1135160     1.0603560
  H        2.6064290    -0.0309800    -0.6748690
  H       -2.2893650    -0.4737730    -0.1440310
units angstrom
no_reorient  #important for SAPT in psi4, default
symmetry c1  #important for SAPT in psi4, default
}

set PROPERTIES_ORIGIN ["COM"]
properties('MP2/aug-cc-pvtz', properties = ['dipole'])
--------------------------------------------------------------------------

    Molecular point group: c1
  Charge       = 0
  Multiplicity = 1
  Basis Set: AUG-CC-PVTZ
    Blend: AUG-CC-PVTZ
  Basis Set: (AUG-CC-PVTZ AUX)
    Blend: AUG-CC-PVTZ-JKFIT

    Orbital Energies [Eh]
    ---------------------

    Doubly Occupied:

       1A    -20.617726     2A    -20.583487     3A    -20.567449
       4A    -11.398179     5A    -11.321938     6A    -11.313096
       7A    -11.259263     8A     -1.456910     9A     -1.388418
      10A     -1.372666    11A     -1.093569    12A     -0.982711
      13A     -0.859843    14A     -0.796994    15A     -0.729016
      16A     -0.712948    17A     -0.688271    18A     -0.656217
      19A     -0.621499    20A     -0.601348    21A     -0.581322
      22A     -0.560766    23A     -0.537003    24A     -0.525608
      25A     -0.476184    26A     -0.468348    27A     -0.449471

  @DF-RHF Final Energy:  -379.69567989670111

   => Energetics <=

    Nuclear Repulsion Energy =            316.1244768211665814
    One-Electron Energy =               -1146.3998104217373566
    Two-Electron Energy =                 450.5796537038696670
    Total Energy =                       -379.6956798967011082
  Basis Set: (AUG-CC-PVTZ AUX)
    Blend: AUG-CC-PVTZ-RI
    Molecular point group: c1

    Geometry (in Angstrom), charge = 0, multiplicity = 1:

       Center              X                  Y                   Z               Mass
    ------------   -----------------  -----------------  -----------------  -----------------
         O            1.073597383308     1.094511230831    -0.080524015101    15.994914619570
         O           -1.607942116692    -1.256136969169    -0.152256815101    15.994914619570
         O           -1.192103116692     1.549756030831    -0.062167815101    15.994914619570
         C            0.845285883308    -1.295294969169    -0.193228815101    12.000000000000
         C           -0.426791116692    -0.721211969169     0.401787184899    12.000000000000
         C            1.823500883308    -0.147560969169     0.053330184899    12.000000000000
         C           -0.281151116692     0.757452030831     0.068062184899    12.000000000000
         H            0.683915883308    -1.448474969169    -1.264413815101     1.007825032230
         H            1.167189883308    -2.236233969169     0.258142184899     1.007825032230
         H           -0.417240116692    -0.821798969169     1.500928184899     1.007825032230
         H            2.239678883308    -0.166023969169     1.065779184899     1.007825032230
         H            2.637394883308    -0.083487969169    -0.669445815101     1.007825032230
         H           -2.258399116692    -0.526280969169    -0.138607815101     1.007825032230

  Basis Set: AUG-CC-PVTZ
    Blend: AUG-CC-PVTZ
  Basis Set: (AUG-CC-PVTZ AUX)
    Blend: AUG-CC-PVTZ-JKFIT
	 Reference Energy          =    -379.6956798967011082 [Eh]
	 Singles Energy            =      -0.0000000000000000 [Eh]
	 Same-Spin Energy          =      -0.3690611633789107 [Eh]
	 Opposite-Spin Energy      =      -1.1384547652459265 [Eh]
	 Correlation Energy        =      -1.5075159286248372 [Eh]
	 Total Energy              =    -381.2031958253259631 [Eh]

	 ================> DF-SCS-MP2 Energies <==================
	-----------------------------------------------------------
	 SCS Same-Spin Scale       =       0.3333333333333333 [-]
	 SCS Opposite-Spin Scale   =       1.2000000000000000 [-]
	 SCS Same-Spin Energy      =      -0.1230203877929702 [Eh]
	 SCS Opposite-Spin Energy  =      -1.3661457182951118 [Eh]
	 SCS Correlation Energy    =      -1.4891661060880821 [Eh]
	 SCS Total Energy          =    -381.1848460027891861 [Eh]
	-----------------------------------------------------------

  Dipole Moment: [D]
     X:     2.3949      Y:    -2.3040      Z:     0.9777     Total:     3.4641

*** Psi4 exiting successfully. Buy a developer a beer!
