                               Psi4 1.4a3.dev225

  ==> Input File <==

--------------------------------------------------------------------------
#psi4
#
memory 32 gb

molecule  {
0 1
  O        0.0109280     1.9504830    -1.2088660
  N        1.2104930     0.4628600     0.0596820
  C        3.6816010    -0.9509880     0.4072830
  C        3.5342200     0.1692850    -0.6230390
  C        2.4217031    -1.5744260     0.6657923
  C        2.4642000     1.1676880    -0.1911000
  C        1.2914730    -0.5760260     1.0805660
  C        0.0527250     0.9288280    -0.5097470
  C       -1.1808260     0.1020470    -0.2945890
  C       -2.2823960     0.6556420     0.3835130
  C       -1.2622800    -1.1716740    -0.8705440
  C       -3.4454200    -0.1153760     0.4879690
  C       -2.2065840     2.0368470     0.9809810
  C       -2.4366510    -1.9182050    -0.7675160
  C       -3.5304630    -1.3875060    -0.0828830
  H        4.4130950    -1.6928310     0.0671840
  H        4.0710030    -0.5292960     1.3442740
  H        4.4878230     0.6919580    -0.7653020
  H        3.2457620    -0.2529490    -1.5933530
  H        1.9831950    -2.1398170    -0.2152240
  H        2.4267450    -2.3652010     1.4815110
  H        2.7768740     1.6847790     0.7291870
  H        2.2671880     1.9220510    -0.9540200
  H        0.3069530    -1.0243470     1.2170770
  H        1.5834140    -0.1085280     2.0346680
  H       -0.4031770    -1.5700500    -1.4080150
  H       -4.3043690     0.2928860     1.0181070
  H       -2.0253310     2.7815300     0.2022010
  H       -3.1368610     2.2826280     1.5002420
  H       -1.3844770     2.1136550     1.7007310
  H       -2.4977120    -2.9041740    -1.2220500
  H       -4.4499260    -1.9612690     0.0072960
units angstrom
no_reorient  #important for SAPT in psi4, default
symmetry c1  #important for SAPT in psi4, default
}

set PROPERTIES_ORIGIN ["COM"]
properties('MP2/aug-cc-pvtz', properties = ['dipole'])
--------------------------------------------------------------------------

    Molecular point group: c1
  Charge       = 0
  Multiplicity = 1
  Basis Set: AUG-CC-PVTZ
    Blend: AUG-CC-PVTZ
  Basis Set: (AUG-CC-PVTZ AUX)
    Blend: AUG-CC-PVTZ-JKFIT

    Orbital Energies [Eh]
    ---------------------

    Doubly Occupied:

       1A    -20.510438     2A    -15.583358     3A    -11.348993
       4A    -11.269124     5A    -11.255236     6A    -11.251972
       7A    -11.246376     8A    -11.245020     9A    -11.242750
      10A    -11.239179    11A    -11.237041    12A    -11.234985
      13A    -11.226632    14A    -11.224399    15A    -11.220383
      16A     -1.366716    17A     -1.249683    18A     -1.161567
      19A     -1.096599    20A     -1.051063    21A     -1.036620
      22A     -1.020795    23A     -0.943981    24A     -0.921832
      25A     -0.870621    26A     -0.841958    27A     -0.813859
      28A     -0.788916    29A     -0.742990    30A     -0.712704
      31A     -0.667502    32A     -0.652521    33A     -0.647518
      34A     -0.630363    35A     -0.617614    36A     -0.616259
      37A     -0.598043    38A     -0.595547    39A     -0.576143
      40A     -0.571896    41A     -0.562452    42A     -0.544286
      43A     -0.542463    44A     -0.524719    45A     -0.507768
      46A     -0.497642    47A     -0.491369    48A     -0.487491
      49A     -0.486544    50A     -0.470381    51A     -0.454862
      52A     -0.416834    53A     -0.363067    54A     -0.340199
      55A     -0.330127

  @DF-RHF Final Energy:  -631.71909132664405

   => Energetics <=

    Nuclear Repulsion Energy =           1000.4110694126978842
    One-Electron Energy =               -2843.9615196103641210
    Two-Electron Energy =                1211.8313588710220756
    Total Energy =                       -631.7190913266440475
  Basis Set: (AUG-CC-PVTZ AUX)
    Blend: AUG-CC-PVTZ-RI
    Molecular point group: c1

    Geometry (in Angstrom), charge = 0, multiplicity = 1:

       Center              X                  Y                   Z               Mass
    ------------   -----------------  -----------------  -----------------  -----------------
         O            0.051421651286     1.934374266777    -1.182700761631    15.994914619570
         N            1.250986651286     0.446751266777     0.085847238369    14.003074004430
         C            3.722094651286    -0.967096733223     0.433448238369    12.000000000000
         C            3.574713651286     0.153176266777    -0.596873761631    12.000000000000
         C            2.462196751286    -1.590534733223     0.691957538369    12.000000000000
         C            2.504693651286     1.151579266777    -0.164934761631    12.000000000000
         C            1.331966651286    -0.592134733223     1.106731238369    12.000000000000
         C            0.093218651286     0.912719266777    -0.483581761631    12.000000000000
         C           -1.140332348714     0.085938266777    -0.268423761631    12.000000000000
         C           -2.241902348714     0.639533266777     0.409678238369    12.000000000000
         C           -1.221786348714    -1.187782733223    -0.844378761631    12.000000000000
         C           -3.404926348714    -0.131484733223     0.514134238369    12.000000000000
         C           -2.166090348714     2.020738266777     1.007146238369    12.000000000000
         C           -2.396157348714    -1.934313733223    -0.741350761631    12.000000000000
         C           -3.489969348714    -1.403614733223    -0.056717761631    12.000000000000
         H            4.453588651286    -1.708939733223     0.093349238369     1.007825032230
         H            4.111496651286    -0.545404733223     1.370439238369     1.007825032230
         H            4.528316651286     0.675849266777    -0.739136761631     1.007825032230
         H            3.286255651286    -0.269057733223    -1.567187761631     1.007825032230
         H            2.023688651286    -2.155925733223    -0.189058761631     1.007825032230
         H            2.467238651286    -2.381309733223     1.507676238369     1.007825032230
         H            2.817367651286     1.668670266777     0.755352238369     1.007825032230
         H            2.307681651286     1.905942266777    -0.927854761631     1.007825032230
         H            0.347446651286    -1.040455733223     1.243242238369     1.007825032230
         H            1.623907651286    -0.124636733223     2.060833238369     1.007825032230
         H           -0.362683348714    -1.586158733223    -1.381849761631     1.007825032230
         H           -4.263875348714     0.276777266777     1.044272238369     1.007825032230
         H           -1.984837348714     2.765421266777     0.228366238369     1.007825032230
         H           -3.096367348714     2.266519266777     1.526407238369     1.007825032230
         H           -1.343983348714     2.097546266777     1.726896238369     1.007825032230
         H           -2.457218348714    -2.920282733223    -1.195884761631     1.007825032230
         H           -4.409432348714    -1.977377733223     0.033461238369     1.007825032230

  Basis Set: AUG-CC-PVTZ
    Blend: AUG-CC-PVTZ
  Basis Set: (AUG-CC-PVTZ AUX)
    Blend: AUG-CC-PVTZ-JKFIT
	 Reference Energy          =    -631.7190913266440475 [Eh]
	 Singles Energy            =      -0.0000000000000000 [Eh]
	 Same-Spin Energy          =      -0.6899142873642375 [Eh]
	 Opposite-Spin Energy      =      -2.2134267649546242 [Eh]
	 Correlation Energy        =      -2.9033410523188619 [Eh]
	 Total Energy              =    -634.6224323789629125 [Eh]

	 ================> DF-SCS-MP2 Energies <==================
	-----------------------------------------------------------
	 SCS Same-Spin Scale       =       0.3333333333333333 [-]
	 SCS Opposite-Spin Scale   =       1.2000000000000000 [-]
	 SCS Same-Spin Energy      =      -0.2299714291214125 [Eh]
	 SCS Opposite-Spin Energy  =      -2.6561121179455491 [Eh]
	 SCS Correlation Energy    =      -2.8860835470669617 [Eh]
	 SCS Total Energy          =    -634.6051748737110074 [Eh]
	-----------------------------------------------------------

  Dipole Moment: [D]
     X:     1.4359      Y:    -2.4855      Z:     2.2940     Total:     3.6745

*** Psi4 exiting successfully. Buy a developer a beer!
