                               Psi4 1.4a3.dev225

  ==> Input File <==

--------------------------------------------------------------------------
#psi4
#
memory 32 gb

molecule  {
0 1
  O        0.0109280     1.9504830    -1.2088660
  N        1.2104930     0.4628600     0.0596820
  C        3.6816010    -0.9509880     0.4072830
  C        3.5342200     0.1692850    -0.6230390
  C        2.3335540    -1.6180450     0.6838790
  C        2.4642000     1.1676880    -0.1911000
  C        1.2914730    -0.5760260     1.0805660
  C        0.0527250     0.9288280    -0.5097470
  C       -1.1808260     0.1020470    -0.2945890
  C       -2.2823960     0.6556420     0.3835130
  C       -1.2622800    -1.1716740    -0.8705440
  C       -3.5831439    -0.1348128     0.5330744
  C       -2.2065840     2.0368470     0.9809810
  C       -2.4366510    -1.9182050    -0.7675160
  C       -3.5304630    -1.3875060    -0.0828830
  H        4.4130950    -1.6928310     0.0671840
  H        4.0710030    -0.5292960     1.3442740
  H        4.4878230     0.6919580    -0.7653020
  H        3.2457620    -0.2529490    -1.5933530
  H        1.9831950    -2.1398170    -0.2152240
  H        2.4267450    -2.3652010     1.4815110
  H        2.7768740     1.6847790     0.7291870
  H        2.2671880     1.9220510    -0.9540200
  H        0.3069530    -1.0243470     1.2170770
  H        1.5834140    -0.1085280     2.0346680
  H       -0.4031770    -1.5700500    -1.4080150
  H       -4.3043690     0.2928860     1.0181070
  H       -2.0253310     2.7815300     0.2022010
  H       -3.1368610     2.2826280     1.5002420
  H       -1.3844770     2.1136550     1.7007310
  H       -2.4977120    -2.9041740    -1.2220500
  H       -4.4499260    -1.9612690     0.0072960
units angstrom
no_reorient  #important for SAPT in psi4, default
symmetry c1  #important for SAPT in psi4, default
}

set PROPERTIES_ORIGIN ["COM"]
properties('MP2/aug-cc-pvtz', properties = ['dipole'])
--------------------------------------------------------------------------

    Molecular point group: c1
  Charge       = 0
  Multiplicity = 1
  Basis Set: AUG-CC-PVTZ
    Blend: AUG-CC-PVTZ
  Basis Set: (AUG-CC-PVTZ AUX)
    Blend: AUG-CC-PVTZ-JKFIT

    Orbital Energies [Eh]
    ---------------------

    Doubly Occupied:

       1A    -20.510683     2A    -15.583958     3A    -11.349719
       4A    -11.267188     5A    -11.265920     6A    -11.254700
       7A    -11.249150     8A    -11.245175     9A    -11.243792
      10A    -11.240945    11A    -11.239124    12A    -11.230703
      13A    -11.228368    14A    -11.225727    15A    -11.220464
      16A     -1.366910    17A     -1.249634    18A     -1.151438
      19A     -1.083530    20A     -1.047142    21A     -1.036051
      22A     -1.024569    23A     -0.944735    24A     -0.916571
      25A     -0.866155    26A     -0.846090    27A     -0.818389
      28A     -0.786466    29A     -0.746706    30A     -0.717822
      31A     -0.663935    32A     -0.654779    33A     -0.645058
      34A     -0.637481    35A     -0.626172    36A     -0.614140
      37A     -0.601279    38A     -0.587975    39A     -0.575169
      40A     -0.569913    41A     -0.560791    42A     -0.550565
      43A     -0.543508    44A     -0.525133    45A     -0.506611
      46A     -0.499853    47A     -0.487798    48A     -0.482244
      49A     -0.477310    50A     -0.469564    51A     -0.461414
      52A     -0.415098    53A     -0.366233    54A     -0.342925
      55A     -0.319609

  @DF-RHF Final Energy:  -631.70222113824457

   => Energetics <=

    Nuclear Repulsion Energy =            996.9788798854544893
    One-Electron Energy =               -2837.0774397777931881
    Two-Electron Energy =                1208.3963387540941312
    Total Energy =                       -631.7022211382445676
  Basis Set: (AUG-CC-PVTZ AUX)
    Blend: AUG-CC-PVTZ-RI
    Molecular point group: c1

    Geometry (in Angstrom), charge = 0, multiplicity = 1:

       Center              X                  Y                   Z               Mass
    ------------   -----------------  -----------------  -----------------  -----------------
         O            0.064765138056     1.938099299131    -1.186433845932    15.994914619570
         N            1.264330138056     0.450476299131     0.082114154068    14.003074004430
         C            3.735438138056    -0.963371700869     0.429715154068    12.000000000000
         C            3.588057138056     0.156901299131    -0.600606845932    12.000000000000
         C            2.387391138056    -1.630428700869     0.706311154068    12.000000000000
         C            2.518037138056     1.155304299131    -0.168667845932    12.000000000000
         C            1.345310138056    -0.588409700869     1.102998154068    12.000000000000
         C            0.106562138056     0.916444299131    -0.487314845932    12.000000000000
         C           -1.126988861944     0.089663299131    -0.272156845932    12.000000000000
         C           -2.228558861944     0.643258299131     0.405945154068    12.000000000000
         C           -1.208442861944    -1.184057700869    -0.848111845932    12.000000000000
         C           -3.529306761944    -0.147196500869     0.555506554068    12.000000000000
         C           -2.152746861944     2.024463299131     1.003413154068    12.000000000000
         C           -2.382813861944    -1.930588700869    -0.745083845932    12.000000000000
         C           -3.476625861944    -1.399889700869    -0.060450845932    12.000000000000
         H            4.466932138056    -1.705214700869     0.089616154068     1.007825032230
         H            4.124840138056    -0.541679700869     1.366706154068     1.007825032230
         H            4.541660138056     0.679574299131    -0.742869845932     1.007825032230
         H            3.299599138056    -0.265332700869    -1.570920845932     1.007825032230
         H            2.037032138056    -2.152200700869    -0.192791845932     1.007825032230
         H            2.480582138056    -2.377584700869     1.503943154068     1.007825032230
         H            2.830711138056     1.672395299131     0.751619154068     1.007825032230
         H            2.321025138056     1.909667299131    -0.931587845932     1.007825032230
         H            0.360790138056    -1.036730700869     1.239509154068     1.007825032230
         H            1.637251138056    -0.120911700869     2.057100154068     1.007825032230
         H           -0.349339861944    -1.582433700869    -1.385582845932     1.007825032230
         H           -4.250531861944     0.280502299131     1.040539154068     1.007825032230
         H           -1.971493861944     2.769146299131     0.224633154068     1.007825032230
         H           -3.083023861944     2.270244299131     1.522674154068     1.007825032230
         H           -1.330639861944     2.101271299131     1.723163154068     1.007825032230
         H           -2.443874861944    -2.916557700869    -1.199617845932     1.007825032230
         H           -4.396088861944    -1.973652700869     0.029728154068     1.007825032230

  Basis Set: AUG-CC-PVTZ
    Blend: AUG-CC-PVTZ
  Basis Set: (AUG-CC-PVTZ AUX)
    Blend: AUG-CC-PVTZ-JKFIT
	 Reference Energy          =    -631.7022211382445676 [Eh]
	 Singles Energy            =      -0.0000000000000000 [Eh]
	 Same-Spin Energy          =      -0.6890142490238951 [Eh]
	 Opposite-Spin Energy      =      -2.2139135063021707 [Eh]
	 Correlation Energy        =      -2.9029277553260657 [Eh]
	 Total Energy              =    -634.6051488935706857 [Eh]

	 ================> DF-SCS-MP2 Energies <==================
	-----------------------------------------------------------
	 SCS Same-Spin Scale       =       0.3333333333333333 [-]
	 SCS Opposite-Spin Scale   =       1.2000000000000000 [-]
	 SCS Same-Spin Energy      =      -0.2296714163412983 [Eh]
	 SCS Opposite-Spin Energy  =      -2.6566962075626046 [Eh]
	 SCS Correlation Energy    =      -2.8863676239039031 [Eh]
	 SCS Total Energy          =    -634.5885887621484471 [Eh]
	-----------------------------------------------------------

  Dipole Moment: [D]
     X:     1.4115      Y:    -2.4726      Z:     2.3262     Total:     3.6766

*** Psi4 exiting successfully. Buy a developer a beer!
