                               Psi4 1.4a3.dev225

  ==> Input File <==

--------------------------------------------------------------------------
#psi4
#
memory 32 gb

molecule  {
0 1
  O        0.0109280     1.9504830    -1.2088660
  N        1.2104930     0.4628600     0.0596820
  C        3.6816010    -0.9509880     0.4072830
  C        3.5342200     0.1692850    -0.6230390
  C        2.3335540    -1.6180450     0.6838790
  C        2.4642000     1.1676880    -0.1911000
  C        1.2914730    -0.5760260     1.0805660
  C       -0.0218020     1.0447209    -0.4343643
  C       -1.1808260     0.1020470    -0.2945890
  C       -2.2823960     0.6556420     0.3835130
  C       -1.2622800    -1.1716740    -0.8705440
  C       -3.4454200    -0.1153760     0.4879690
  C       -2.2065840     2.0368470     0.9809810
  C       -2.4366510    -1.9182050    -0.7675160
  C       -3.5304630    -1.3875060    -0.0828830
  H        4.4130950    -1.6928310     0.0671840
  H        4.0710030    -0.5292960     1.3442740
  H        4.4878230     0.6919580    -0.7653020
  H        3.2457620    -0.2529490    -1.5933530
  H        1.9831950    -2.1398170    -0.2152240
  H        2.4267450    -2.3652010     1.4815110
  H        2.7768740     1.6847790     0.7291870
  H        2.2671880     1.9220510    -0.9540200
  H        0.3069530    -1.0243470     1.2170770
  H        1.5834140    -0.1085280     2.0346680
  H       -0.4031770    -1.5700500    -1.4080150
  H       -4.3043690     0.2928860     1.0181070
  H       -2.0253310     2.7815300     0.2022010
  H       -3.1368610     2.2826280     1.5002420
  H       -1.3844770     2.1136550     1.7007310
  H       -2.4977120    -2.9041740    -1.2220500
  H       -4.4499260    -1.9612690     0.0072960
units angstrom
no_reorient  #important for SAPT in psi4, default
symmetry c1  #important for SAPT in psi4, default
}

set PROPERTIES_ORIGIN ["COM"]
properties('MP2/aug-cc-pvtz', properties = ['dipole'])
--------------------------------------------------------------------------

    Molecular point group: c1
  Charge       = 0
  Multiplicity = 1
  Basis Set: AUG-CC-PVTZ
    Blend: AUG-CC-PVTZ
  Basis Set: (AUG-CC-PVTZ AUX)
    Blend: AUG-CC-PVTZ-JKFIT

    Orbital Energies [Eh]
    ---------------------

    Doubly Occupied:

       1A    -20.528895     2A    -15.571017     3A    -11.354262
       4A    -11.258841     5A    -11.251317     6A    -11.249328
       7A    -11.248151     8A    -11.246928     9A    -11.243831
      10A    -11.240996    11A    -11.237475    12A    -11.225631
      13A    -11.225130    14A    -11.223790    15A    -11.221022
      16A     -1.401314    17A     -1.233839    18A     -1.163308
      19A     -1.074027    20A     -1.054610    21A     -1.033025
      22A     -1.019622    23A     -0.943757    24A     -0.906472
      25A     -0.861728    26A     -0.845274    27A     -0.812156
      28A     -0.783621    29A     -0.740768    30A     -0.709237
      31A     -0.672610    32A     -0.652396    33A     -0.649605
      34A     -0.622829    35A     -0.621808    36A     -0.610484
      37A     -0.599109    38A     -0.587089    39A     -0.577294
      40A     -0.574409    41A     -0.557585    42A     -0.551288
      43A     -0.544373    44A     -0.530238    45A     -0.511679
      46A     -0.498451    47A     -0.491260    48A     -0.489950
      49A     -0.478475    50A     -0.465516    51A     -0.455619
      52A     -0.419157    53A     -0.359364    54A     -0.341218
      55A     -0.332241

  @DF-RHF Final Energy:  -631.71550375793436

   => Energetics <=

    Nuclear Repulsion Energy =            999.4411976693878614
    One-Electron Energy =               -2842.1065666469676216
    Two-Electron Energy =                1210.9498652196455168
    Total Energy =                       -631.7155037579343571
  Basis Set: (AUG-CC-PVTZ AUX)
    Blend: AUG-CC-PVTZ-RI
    Molecular point group: c1

    Geometry (in Angstrom), charge = 0, multiplicity = 1:

       Center              X                  Y                   Z               Mass
    ------------   -----------------  -----------------  -----------------  -----------------
         O            0.061031770194     1.930104673561    -1.188222482697    15.994914619570
         N            1.260596770194     0.442481673561     0.080325517303    14.003074004430
         C            3.731704770194    -0.971366326439     0.427926517303    12.000000000000
         C            3.584323770194     0.148906673561    -0.602395482697    12.000000000000
         C            2.383657770194    -1.638423326439     0.704522517303    12.000000000000
         C            2.514303770194     1.147309673561    -0.170456482697    12.000000000000
         C            1.341576770194    -0.596404326439     1.101209517303    12.000000000000
         C            0.028301770194     1.024342573561    -0.413720782697    12.000000000000
         C           -1.130722229806     0.081668673561    -0.273945482697    12.000000000000
         C           -2.232292229806     0.635263673561     0.404156517303    12.000000000000
         C           -1.212176229806    -1.192052326439    -0.849900482697    12.000000000000
         C           -3.395316229806    -0.135754326439     0.508612517303    12.000000000000
         C           -2.156480229806     2.016468673561     1.001624517303    12.000000000000
         C           -2.386547229806    -1.938583326439    -0.746872482697    12.000000000000
         C           -3.480359229806    -1.407884326439    -0.062239482697    12.000000000000
         H            4.463198770194    -1.713209326439     0.087827517303     1.007825032230
         H            4.121106770194    -0.549674326439     1.364917517303     1.007825032230
         H            4.537926770194     0.671579673561    -0.744658482697     1.007825032230
         H            3.295865770194    -0.273327326439    -1.572709482697     1.007825032230
         H            2.033298770194    -2.160195326439    -0.194580482697     1.007825032230
         H            2.476848770194    -2.385579326439     1.502154517303     1.007825032230
         H            2.826977770194     1.664400673561     0.749830517303     1.007825032230
         H            2.317291770194     1.901672673561    -0.933376482697     1.007825032230
         H            0.357056770194    -1.044725326439     1.237720517303     1.007825032230
         H            1.633517770194    -0.128906326439     2.055311517303     1.007825032230
         H           -0.353073229806    -1.590428326439    -1.387371482697     1.007825032230
         H           -4.254265229806     0.272507673561     1.038750517303     1.007825032230
         H           -1.975227229806     2.761151673561     0.222844517303     1.007825032230
         H           -3.086757229806     2.262249673561     1.520885517303     1.007825032230
         H           -1.334373229806     2.093276673561     1.721374517303     1.007825032230
         H           -2.447608229806    -2.924552326439    -1.201406482697     1.007825032230
         H           -4.399822229806    -1.981647326439     0.027939517303     1.007825032230

  Basis Set: AUG-CC-PVTZ
    Blend: AUG-CC-PVTZ
  Basis Set: (AUG-CC-PVTZ AUX)
    Blend: AUG-CC-PVTZ-JKFIT
	 Reference Energy          =    -631.7155037579343571 [Eh]
	 Singles Energy            =      -0.0000000000000000 [Eh]
	 Same-Spin Energy          =      -0.6892566103557165 [Eh]
	 Opposite-Spin Energy      =      -2.2132187763963960 [Eh]
	 Correlation Energy        =      -2.9024753867521125 [Eh]
	 Total Energy              =    -634.6179791446865011 [Eh]

	 ================> DF-SCS-MP2 Energies <==================
	-----------------------------------------------------------
	 SCS Same-Spin Scale       =       0.3333333333333333 [-]
	 SCS Opposite-Spin Scale   =       1.2000000000000000 [-]
	 SCS Same-Spin Energy      =      -0.2297522034519055 [Eh]
	 SCS Opposite-Spin Energy  =      -2.6558625316756750 [Eh]
	 SCS Correlation Energy    =      -2.8856147351275805 [Eh]
	 SCS Total Energy          =    -634.6011184930619038 [Eh]
	-----------------------------------------------------------

  Dipole Moment: [D]
     X:     0.8028      Y:    -2.1050      Z:     2.0186     Total:     3.0250

*** Psi4 exiting successfully. Buy a developer a beer!
