                               Psi4 1.4a3.dev225

  ==> Input File <==

--------------------------------------------------------------------------
#psi4
#
memory 32 gb

molecule  {
0 1
  O        0.0109280     1.9504830    -1.2088660
  N        1.2104930     0.4628600     0.0596820
  C        3.6816010    -0.9509880     0.4072830
  C        3.5342200     0.1692850    -0.6230390
  C        2.3335540    -1.6180450     0.6838790
  C        2.4642000     1.1676880    -0.1911000
  C        1.2914730    -0.5760260     1.0805660
  C        0.0527250     0.9288280    -0.5097470
  C       -1.1808260     0.1020470    -0.2945890
  C       -2.2823960     0.6556420     0.3835130
  C       -1.2622800    -1.1716740    -0.8705440
  C       -3.4225159    -0.1134881     0.4798290
  C       -2.2065840     2.0368470     0.9809810
  C       -2.4366510    -1.9182050    -0.7675160
  C       -3.5304630    -1.3875060    -0.0828830
  H        4.4130950    -1.6928310     0.0671840
  H        4.0710030    -0.5292960     1.3442740
  H        4.4878230     0.6919580    -0.7653020
  H        3.2457620    -0.2529490    -1.5933530
  H        1.9831950    -2.1398170    -0.2152240
  H        2.4267450    -2.3652010     1.4815110
  H        2.7768740     1.6847790     0.7291870
  H        2.2671880     1.9220510    -0.9540200
  H        0.3069530    -1.0243470     1.2170770
  H        1.5834140    -0.1085280     2.0346680
  H       -0.4031770    -1.5700500    -1.4080150
  H       -4.3043690     0.2928860     1.0181070
  H       -2.0253310     2.7815300     0.2022010
  H       -3.1368610     2.2826280     1.5002420
  H       -1.3844770     2.1136550     1.7007310
  H       -2.4977120    -2.9041740    -1.2220500
  H       -4.4499260    -1.9612690     0.0072960
units angstrom
no_reorient  #important for SAPT in psi4, default
symmetry c1  #important for SAPT in psi4, default
}

set PROPERTIES_ORIGIN ["COM"]
properties('MP2/aug-cc-pvtz', properties = ['dipole'])
--------------------------------------------------------------------------

    Molecular point group: c1
  Charge       = 0
  Multiplicity = 1
  Basis Set: AUG-CC-PVTZ
    Blend: AUG-CC-PVTZ
  Basis Set: (AUG-CC-PVTZ AUX)
    Blend: AUG-CC-PVTZ-JKFIT

    Orbital Energies [Eh]
    ---------------------

    Doubly Occupied:

       1A    -20.510843     2A    -15.583931     3A    -11.349448
       4A    -11.267091     5A    -11.254650     6A    -11.249325
       7A    -11.246208     8A    -11.245030     9A    -11.242536
      10A    -11.239246    11A    -11.236456    12A    -11.230654
      13A    -11.228340    14A    -11.225696    15A    -11.220379
      16A     -1.367053    17A     -1.249621    18A     -1.163613
      19A     -1.083654    20A     -1.051865    21A     -1.037424
      22A     -1.022992    23A     -0.943116    24A     -0.919403
      25A     -0.867847    26A     -0.844769    27A     -0.814289
      28A     -0.791735    29A     -0.742425    30A     -0.711718
      31A     -0.667535    32A     -0.653242    33A     -0.648797
      34A     -0.627740    35A     -0.618833    36A     -0.615042
      37A     -0.594947    38A     -0.588071    39A     -0.575853
      40A     -0.572261    41A     -0.560369    42A     -0.547472
      43A     -0.540490    44A     -0.524803    45A     -0.510813
      46A     -0.502325    47A     -0.491757    48A     -0.487043
      49A     -0.478307    50A     -0.469649    51A     -0.461600
      52A     -0.417102    53A     -0.366265    54A     -0.340428
      55A     -0.331286

  @DF-RHF Final Energy:  -631.73001069117652

   => Energetics <=

    Nuclear Repulsion Energy =           1000.4968649491937640
    One-Electron Energy =               -2844.1869770479934232
    Two-Electron Energy =                1211.9601014076229148
    Total Energy =                       -631.7300106911766306
  Basis Set: (AUG-CC-PVTZ AUX)
    Blend: AUG-CC-PVTZ-RI
    Molecular point group: c1

    Geometry (in Angstrom), charge = 0, multiplicity = 1:

       Center              X                  Y                   Z               Mass
    ------------   -----------------  -----------------  -----------------  -----------------
         O            0.055276011012     1.936839538769    -1.183288364664    15.994914619570
         N            1.254841011012     0.449216538769     0.085259635336    14.003074004430
         C            3.725949011012    -0.964631461231     0.432860635336    12.000000000000
         C            3.578568011012     0.155641538769    -0.597461364664    12.000000000000
         C            2.377902011012    -1.631688461231     0.709456635336    12.000000000000
         C            2.508548011012     1.154044538769    -0.165522364664    12.000000000000
         C            1.335821011012    -0.589669461231     1.106143635336    12.000000000000
         C            0.097073011012     0.915184538769    -0.484169364664    12.000000000000
         C           -1.136477988988     0.088403538769    -0.269011364664    12.000000000000
         C           -2.238047988988     0.641998538769     0.409090635336    12.000000000000
         C           -1.217931988988    -1.185317461231    -0.844966364664    12.000000000000
         C           -3.378167888988    -0.127131561231     0.505406635336    12.000000000000
         C           -2.162235988988     2.023203538769     1.006558635336    12.000000000000
         C           -2.392302988988    -1.931848461231    -0.741938364664    12.000000000000
         C           -3.486114988988    -1.401149461231    -0.057305364664    12.000000000000
         H            4.457443011012    -1.706474461231     0.092761635336     1.007825032230
         H            4.115351011012    -0.542939461231     1.369851635336     1.007825032230
         H            4.532171011012     0.678314538769    -0.739724364664     1.007825032230
         H            3.290110011012    -0.266592461231    -1.567775364664     1.007825032230
         H            2.027543011012    -2.153460461231    -0.189646364664     1.007825032230
         H            2.471093011012    -2.378844461231     1.507088635336     1.007825032230
         H            2.821222011012     1.671135538769     0.754764635336     1.007825032230
         H            2.311536011012     1.908407538769    -0.928442364664     1.007825032230
         H            0.351301011012    -1.037990461231     1.242654635336     1.007825032230
         H            1.627762011012    -0.122171461231     2.060245635336     1.007825032230
         H           -0.358828988988    -1.583693461231    -1.382437364664     1.007825032230
         H           -4.260020988988     0.279242538769     1.043684635336     1.007825032230
         H           -1.980982988988     2.767886538769     0.227778635336     1.007825032230
         H           -3.092512988988     2.268984538769     1.525819635336     1.007825032230
         H           -1.340128988988     2.100011538769     1.726308635336     1.007825032230
         H           -2.453363988988    -2.917817461231    -1.196472364664     1.007825032230
         H           -4.405577988988    -1.974912461231     0.032873635336     1.007825032230

  Basis Set: AUG-CC-PVTZ
    Blend: AUG-CC-PVTZ
  Basis Set: (AUG-CC-PVTZ AUX)
    Blend: AUG-CC-PVTZ-JKFIT
	 Reference Energy          =    -631.7300106911765170 [Eh]
	 Singles Energy            =      -0.0000000000000000 [Eh]
	 Same-Spin Energy          =      -0.6890724189625728 [Eh]
	 Opposite-Spin Energy      =      -2.2122788451084925 [Eh]
	 Correlation Energy        =      -2.9013512640710655 [Eh]
	 Total Energy              =    -634.6313619552475984 [Eh]

	 ================> DF-SCS-MP2 Energies <==================
	-----------------------------------------------------------
	 SCS Same-Spin Scale       =       0.3333333333333333 [-]
	 SCS Opposite-Spin Scale   =       1.2000000000000000 [-]
	 SCS Same-Spin Energy      =      -0.2296908063208576 [Eh]
	 SCS Opposite-Spin Energy  =      -2.6547346141301911 [Eh]
	 SCS Correlation Energy    =      -2.8844254204510484 [Eh]
	 SCS Total Energy          =    -634.6144361116275832 [Eh]
	-----------------------------------------------------------

  Dipole Moment: [D]
     X:     1.4118      Y:    -2.5317      Z:     2.2956     Total:     3.6976

*** Psi4 exiting successfully. Buy a developer a beer!
