                               Psi4 1.4a3.dev225

  ==> Input File <==

--------------------------------------------------------------------------
#psi4
#
memory 32 gb

molecule  {
0 1
  O        0.0109280     1.9504830    -1.2088660
  N        1.2104930     0.4628600     0.0596820
  C        3.6816010    -0.9509880     0.4072830
  C        3.5342200     0.1692850    -0.6230390
  C        2.3335540    -1.6180450     0.6838790
  C        2.4642000     1.1676880    -0.1911000
  C        1.2914730    -0.5760260     1.0805660
  C        0.0527250     0.9288280    -0.5097470
  C       -1.1808260     0.1020470    -0.2945890
  C       -2.3067816     0.6531146     0.3930289
  C       -1.2622800    -1.1716740    -0.8705440
  C       -3.4454200    -0.1153760     0.4879690
  C       -2.2065840     2.0368470     0.9809810
  C       -2.4366510    -1.9182050    -0.7675160
  C       -3.5304630    -1.3875060    -0.0828830
  H        4.4130950    -1.6928310     0.0671840
  H        4.0710030    -0.5292960     1.3442740
  H        4.4878230     0.6919580    -0.7653020
  H        3.2457620    -0.2529490    -1.5933530
  H        1.9831950    -2.1398170    -0.2152240
  H        2.4267450    -2.3652010     1.4815110
  H        2.7768740     1.6847790     0.7291870
  H        2.2671880     1.9220510    -0.9540200
  H        0.3069530    -1.0243470     1.2170770
  H        1.5834140    -0.1085280     2.0346680
  H       -0.4031770    -1.5700500    -1.4080150
  H       -4.3043690     0.2928860     1.0181070
  H       -2.0253310     2.7815300     0.2022010
  H       -3.1368610     2.2826280     1.5002420
  H       -1.3844770     2.1136550     1.7007310
  H       -2.4977120    -2.9041740    -1.2220500
  H       -4.4499260    -1.9612690     0.0072960
units angstrom
no_reorient  #important for SAPT in psi4, default
symmetry c1  #important for SAPT in psi4, default
}

set PROPERTIES_ORIGIN ["COM"]
properties('MP2/aug-cc-pvtz', properties = ['dipole'])
--------------------------------------------------------------------------

    Molecular point group: c1
  Charge       = 0
  Multiplicity = 1
  Basis Set: AUG-CC-PVTZ
    Blend: AUG-CC-PVTZ
  Basis Set: (AUG-CC-PVTZ AUX)
    Blend: AUG-CC-PVTZ-JKFIT

    Orbital Energies [Eh]
    ---------------------

    Doubly Occupied:

       1A    -20.510846     2A    -15.584032     3A    -11.349880
       4A    -11.266983     5A    -11.254707     6A    -11.251689
       7A    -11.247735     8A    -11.245702     9A    -11.242835
      10A    -11.239161    11A    -11.234519    12A    -11.230635
      13A    -11.228335    14A    -11.225713    15A    -11.220320
      16A     -1.367018    17A     -1.249649    18A     -1.161238
      19A     -1.083670    20A     -1.050405    21A     -1.037967
      22A     -1.023269    23A     -0.943516    24A     -0.918812
      25A     -0.867837    26A     -0.844816    27A     -0.812709
      28A     -0.791860    29A     -0.742940    30A     -0.712424
      31A     -0.666872    32A     -0.652569    33A     -0.648482
      34A     -0.627856    35A     -0.620263    36A     -0.615200
      37A     -0.596037    38A     -0.587998    39A     -0.576974
      40A     -0.571808    41A     -0.559907    42A     -0.547251
      43A     -0.541529    44A     -0.524548    45A     -0.510870
      46A     -0.502393    47A     -0.490941    48A     -0.486364
      49A     -0.478218    50A     -0.469640    51A     -0.461597
      52A     -0.417470    53A     -0.366272    54A     -0.341915
      55A     -0.328461

  @DF-RHF Final Energy:  -631.72975863029319

   => Energetics <=

    Nuclear Repulsion Energy =            999.6932590577908968
    One-Electron Energy =               -2842.5807276277778328
    Two-Electron Energy =                1211.1577099396938593
    Total Energy =                       -631.7297586302931904
  Basis Set: (AUG-CC-PVTZ AUX)
    Blend: AUG-CC-PVTZ-RI
    Molecular point group: c1

    Geometry (in Angstrom), charge = 0, multiplicity = 1:

       Center              X                  Y                   Z               Mass
    ------------   -----------------  -----------------  -----------------  -----------------
         O            0.058069658266     1.937100373385    -1.184331390028    15.994914619570
         N            1.257634658266     0.449477373385     0.084216609972    14.003074004430
         C            3.728742658266    -0.964370626615     0.431817609972    12.000000000000
         C            3.581361658266     0.155902373385    -0.598504390028    12.000000000000
         C            2.380695658266    -1.631427626615     0.708413609972    12.000000000000
         C            2.511341658266     1.154305373385    -0.166565390028    12.000000000000
         C            1.338614658266    -0.589408626615     1.105100609972    12.000000000000
         C            0.099866658266     0.915445373385    -0.485212390028    12.000000000000
         C           -1.133684341734     0.088664373385    -0.270054390028    12.000000000000
         C           -2.259639941734     0.639731973385     0.417563509972    12.000000000000
         C           -1.215138341734    -1.185056626615    -0.846009390028    12.000000000000
         C           -3.398278341734    -0.128758626615     0.512503609972    12.000000000000
         C           -2.159442341734     2.023464373385     1.005515609972    12.000000000000
         C           -2.389509341734    -1.931587626615    -0.742981390028    12.000000000000
         C           -3.483321341734    -1.400888626615    -0.058348390028    12.000000000000
         H            4.460236658266    -1.706213626615     0.091718609972     1.007825032230
         H            4.118144658266    -0.542678626615     1.368808609972     1.007825032230
         H            4.534964658266     0.678575373385    -0.740767390028     1.007825032230
         H            3.292903658266    -0.266331626615    -1.568818390028     1.007825032230
         H            2.030336658266    -2.153199626615    -0.190689390028     1.007825032230
         H            2.473886658266    -2.378583626615     1.506045609972     1.007825032230
         H            2.824015658266     1.671396373385     0.753721609972     1.007825032230
         H            2.314329658266     1.908668373385    -0.929485390028     1.007825032230
         H            0.354094658266    -1.037729626615     1.241611609972     1.007825032230
         H            1.630555658266    -0.121910626615     2.059202609972     1.007825032230
         H           -0.356035341734    -1.583432626615    -1.383480390028     1.007825032230
         H           -4.257227341734     0.279503373385     1.042641609972     1.007825032230
         H           -1.978189341734     2.768147373385     0.226735609972     1.007825032230
         H           -3.089719341734     2.269245373385     1.524776609972     1.007825032230
         H           -1.337335341734     2.100272373385     1.725265609972     1.007825032230
         H           -2.450570341734    -2.917556626615    -1.197515390028     1.007825032230
         H           -4.402784341734    -1.974651626615     0.031830609972     1.007825032230

  Basis Set: AUG-CC-PVTZ
    Blend: AUG-CC-PVTZ
  Basis Set: (AUG-CC-PVTZ AUX)
    Blend: AUG-CC-PVTZ-JKFIT
	 Reference Energy          =    -631.7297586302931904 [Eh]
	 Singles Energy            =      -0.0000000000000000 [Eh]
	 Same-Spin Energy          =      -0.6890090307096672 [Eh]
	 Opposite-Spin Energy      =      -2.2123350148894199 [Eh]
	 Correlation Energy        =      -2.9013440455990871 [Eh]
	 Total Energy              =    -634.6311026758922935 [Eh]

	 ================> DF-SCS-MP2 Energies <==================
	-----------------------------------------------------------
	 SCS Same-Spin Scale       =       0.3333333333333333 [-]
	 SCS Opposite-Spin Scale   =       1.2000000000000000 [-]
	 SCS Same-Spin Energy      =      -0.2296696769032224 [Eh]
	 SCS Opposite-Spin Energy  =      -2.6548020178673037 [Eh]
	 SCS Correlation Energy    =      -2.8844716947705260 [Eh]
	 SCS Total Energy          =    -634.6142303250637724 [Eh]
	-----------------------------------------------------------

  Dipole Moment: [D]
     X:     1.4156      Y:    -2.5211      Z:     2.3000     Total:     3.6945

*** Psi4 exiting successfully. Buy a developer a beer!
