                               Psi4 1.4a3.dev225

  ==> Input File <==

--------------------------------------------------------------------------
#psi4
#
memory 32 gb

molecule  {
0 1
  O        0.0109280     1.9504830    -1.2088660
  N        1.2104930     0.4628600     0.0596820
  C        3.6816010    -0.9509880     0.4072830
  C        3.5342200     0.1692850    -0.6230390
  C        2.3335540    -1.6180450     0.6838790
  C        2.4642000     1.1676880    -0.1911000
  C        1.2942486    -0.6116340     1.1155570
  C        0.0527250     0.9288280    -0.5097470
  C       -1.1808260     0.1020470    -0.2945890
  C       -2.2823960     0.6556420     0.3835130
  C       -1.2622800    -1.1716740    -0.8705440
  C       -3.4454200    -0.1153760     0.4879690
  C       -2.2065840     2.0368470     0.9809810
  C       -2.4366510    -1.9182050    -0.7675160
  C       -3.5304630    -1.3875060    -0.0828830
  H        4.4130950    -1.6928310     0.0671840
  H        4.0710030    -0.5292960     1.3442740
  H        4.4878230     0.6919580    -0.7653020
  H        3.2457620    -0.2529490    -1.5933530
  H        1.9831950    -2.1398170    -0.2152240
  H        2.4267450    -2.3652010     1.4815110
  H        2.7768740     1.6847790     0.7291870
  H        2.2671880     1.9220510    -0.9540200
  H        0.3069530    -1.0243470     1.2170770
  H        1.5834140    -0.1085280     2.0346680
  H       -0.4031770    -1.5700500    -1.4080150
  H       -4.3043690     0.2928860     1.0181070
  H       -2.0253310     2.7815300     0.2022010
  H       -3.1368610     2.2826280     1.5002420
  H       -1.3844770     2.1136550     1.7007310
  H       -2.4977120    -2.9041740    -1.2220500
  H       -4.4499260    -1.9612690     0.0072960
units angstrom
no_reorient  #important for SAPT in psi4, default
symmetry c1  #important for SAPT in psi4, default
}

set PROPERTIES_ORIGIN ["COM"]
properties('MP2/aug-cc-pvtz', properties = ['dipole'])
--------------------------------------------------------------------------

    Molecular point group: c1
  Charge       = 0
  Multiplicity = 1
  Basis Set: AUG-CC-PVTZ
    Blend: AUG-CC-PVTZ
  Basis Set: (AUG-CC-PVTZ AUX)
    Blend: AUG-CC-PVTZ-JKFIT

    Orbital Energies [Eh]
    ---------------------

    Doubly Occupied:

       1A    -20.508498     2A    -15.581783     3A    -11.347257
       4A    -11.268763     5A    -11.253333     6A    -11.251423
       7A    -11.245878     8A    -11.244409     9A    -11.242349
      10A    -11.238877    11A    -11.236698    12A    -11.231635
      13A    -11.229438    14A    -11.225298    15A    -11.219914
      16A     -1.364162    17A     -1.239988    18A     -1.160954
      19A     -1.084240    20A     -1.050504    21A     -1.038439
      22A     -1.023062    23A     -0.942602    24A     -0.918917
      25A     -0.866893    26A     -0.842705    27A     -0.814334
      28A     -0.790368    29A     -0.740997    30A     -0.710139
      31A     -0.666715    32A     -0.652050    33A     -0.647081
      34A     -0.628681    35A     -0.620643    36A     -0.613606
      37A     -0.596647    38A     -0.588678    39A     -0.575106
      40A     -0.571185    41A     -0.557098    42A     -0.548758
      43A     -0.540317    44A     -0.525706    45A     -0.509638
      46A     -0.502917    47A     -0.491180    48A     -0.489514
      49A     -0.478998    50A     -0.471732    51A     -0.458562
      52A     -0.415189    53A     -0.366137    54A     -0.339888
      55A     -0.329654

  @DF-RHF Final Energy:  -631.72856506738049

   => Energetics <=

    Nuclear Repulsion Energy =            999.0740223299882246
    One-Electron Energy =               -2841.4061050397331201
    Two-Electron Energy =                1210.6035176423645225
    Total Energy =                       -631.7285650673804867
  Basis Set: (AUG-CC-PVTZ AUX)
    Blend: AUG-CC-PVTZ-RI
    Molecular point group: c1

    Geometry (in Angstrom), charge = 0, multiplicity = 1:

       Center              X                  Y                   Z               Mass
    ------------   -----------------  -----------------  -----------------  -----------------
         O            0.056465105651     1.939054615584    -1.185836335992    15.994914619570
         N            1.256030105651     0.451431615584     0.082711664008    14.003074004430
         C            3.727138105651    -0.962416384416     0.430312664008    12.000000000000
         C            3.579757105651     0.157856615584    -0.600009335992    12.000000000000
         C            2.379091105651    -1.629473384416     0.706908664008    12.000000000000
         C            2.509737105651     1.156259615584    -0.168070335992    12.000000000000
         C            1.339785705651    -0.623062384416     1.138586664008    12.000000000000
         C            0.098262105651     0.917399615584    -0.486717335992    12.000000000000
         C           -1.135288894349     0.090618615584    -0.271559335992    12.000000000000
         C           -2.236858894349     0.644213615584     0.406542664008    12.000000000000
         C           -1.216742894349    -1.183102384416    -0.847514335992    12.000000000000
         C           -3.399882894349    -0.126804384416     0.510998664008    12.000000000000
         C           -2.161046894349     2.025418615584     1.004010664008    12.000000000000
         C           -2.391113894349    -1.929633384416    -0.744486335992    12.000000000000
         C           -3.484925894349    -1.398934384416    -0.059853335992    12.000000000000
         H            4.458632105651    -1.704259384416     0.090213664008     1.007825032230
         H            4.116540105651    -0.540724384416     1.367303664008     1.007825032230
         H            4.533360105651     0.680529615584    -0.742272335992     1.007825032230
         H            3.291299105651    -0.264377384416    -1.570323335992     1.007825032230
         H            2.028732105651    -2.151245384416    -0.192194335992     1.007825032230
         H            2.472282105651    -2.376629384416     1.504540664008     1.007825032230
         H            2.822411105651     1.673350615584     0.752216664008     1.007825032230
         H            2.312725105651     1.910622615584    -0.930990335992     1.007825032230
         H            0.352490105651    -1.035775384416     1.240106664008     1.007825032230
         H            1.628951105651    -0.119956384416     2.057697664008     1.007825032230
         H           -0.357639894349    -1.581478384416    -1.384985335992     1.007825032230
         H           -4.258831894349     0.281457615584     1.041136664008     1.007825032230
         H           -1.979793894349     2.770101615584     0.225230664008     1.007825032230
         H           -3.091323894349     2.271199615584     1.523271664008     1.007825032230
         H           -1.338939894349     2.102226615584     1.723760664008     1.007825032230
         H           -2.452174894349    -2.915602384416    -1.199020335992     1.007825032230
         H           -4.404388894349    -1.972697384416     0.030325664008     1.007825032230

  Basis Set: AUG-CC-PVTZ
    Blend: AUG-CC-PVTZ
  Basis Set: (AUG-CC-PVTZ AUX)
    Blend: AUG-CC-PVTZ-JKFIT
	 Reference Energy          =    -631.7285650673804867 [Eh]
	 Singles Energy            =      -0.0000000000000000 [Eh]
	 Same-Spin Energy          =      -0.6888545561078925 [Eh]
	 Opposite-Spin Energy      =      -2.2123807881495114 [Eh]
	 Correlation Energy        =      -2.9012353442574037 [Eh]
	 Total Energy              =    -634.6298004116379161 [Eh]

	 ================> DF-SCS-MP2 Energies <==================
	-----------------------------------------------------------
	 SCS Same-Spin Scale       =       0.3333333333333333 [-]
	 SCS Opposite-Spin Scale   =       1.2000000000000000 [-]
	 SCS Same-Spin Energy      =      -0.2296181853692975 [Eh]
	 SCS Opposite-Spin Energy  =      -2.6548569457794136 [Eh]
	 SCS Correlation Energy    =      -2.8844751311487111 [Eh]
	 SCS Total Energy          =    -634.6130401985292337 [Eh]
	-----------------------------------------------------------

  Dipole Moment: [D]
     X:     1.4707      Y:    -2.6048      Z:     2.3990     Total:     3.8344

*** Psi4 exiting successfully. Buy a developer a beer!
