                               Psi4 1.4a3.dev225

  ==> Input File <==

--------------------------------------------------------------------------
#psi4
#
memory 32 gb

molecule  {
0 1
  O        0.0109280     1.9504830    -1.2088660
  N        1.2104930     0.4628600     0.0596820
  C        3.6816010    -0.9509880     0.4072830
  C        3.5342200     0.1692850    -0.6230390
  C        2.3335540    -1.6180450     0.6838790
  C        2.4642000     1.1676880    -0.1911000
  C        1.2914730    -0.5760260     1.0805660
  C        0.0527250     0.9288280    -0.5097470
  C       -1.1808260     0.1020470    -0.2945890
  C       -2.2823960     0.6556420     0.3835130
  C       -1.2506459    -0.9897475    -0.7882799
  C       -3.4454200    -0.1153760     0.4879690
  C       -2.2065840     2.0368470     0.9809810
  C       -2.4366510    -1.9182050    -0.7675160
  C       -3.5304630    -1.3875060    -0.0828830
  H        4.4130950    -1.6928310     0.0671840
  H        4.0710030    -0.5292960     1.3442740
  H        4.4878230     0.6919580    -0.7653020
  H        3.2457620    -0.2529490    -1.5933530
  H        1.9831950    -2.1398170    -0.2152240
  H        2.4267450    -2.3652010     1.4815110
  H        2.7768740     1.6847790     0.7291870
  H        2.2671880     1.9220510    -0.9540200
  H        0.3069530    -1.0243470     1.2170770
  H        1.5834140    -0.1085280     2.0346680
  H       -0.4031770    -1.5700500    -1.4080150
  H       -4.3043690     0.2928860     1.0181070
  H       -2.0253310     2.7815300     0.2022010
  H       -3.1368610     2.2826280     1.5002420
  H       -1.3844770     2.1136550     1.7007310
  H       -2.4977120    -2.9041740    -1.2220500
  H       -4.4499260    -1.9612690     0.0072960
units angstrom
no_reorient  #important for SAPT in psi4, default
symmetry c1  #important for SAPT in psi4, default
}

set PROPERTIES_ORIGIN ["COM"]
properties('MP2/aug-cc-pvtz', properties = ['dipole'])
--------------------------------------------------------------------------

    Molecular point group: c1
  Charge       = 0
  Multiplicity = 1
  Basis Set: AUG-CC-PVTZ
    Blend: AUG-CC-PVTZ
  Basis Set: (AUG-CC-PVTZ AUX)
    Blend: AUG-CC-PVTZ-JKFIT

    Orbital Energies [Eh]
    ---------------------

    Doubly Occupied:

       1A    -20.511917     2A    -15.584372     3A    -11.350360
       4A    -11.267800     5A    -11.254955     6A    -11.253183
       7A    -11.246814     8A    -11.241453     9A    -11.240386
      10A    -11.233559    11A    -11.230414    12A    -11.228249
      13A    -11.225593    14A    -11.222343    15A    -11.220837
      16A     -1.368574    17A     -1.250478    18A     -1.180814
      19A     -1.084402    20A     -1.056662    21A     -1.039935
      22A     -1.029778    23A     -0.934579    24A     -0.923339
      25A     -0.866781    26A     -0.834529    27A     -0.820421
      28A     -0.794916    29A     -0.746674    30A     -0.716256
      31A     -0.665138    32A     -0.654476    33A     -0.645880
      34A     -0.628120    35A     -0.623407    36A     -0.612277
      37A     -0.601261    38A     -0.588983    39A     -0.574214
      40A     -0.562916    41A     -0.561329    42A     -0.548194
      43A     -0.540259    44A     -0.525128    45A     -0.509442
      46A     -0.502684    47A     -0.497219    48A     -0.479776
      49A     -0.472281    50A     -0.469845    51A     -0.461590
      52A     -0.411555    53A     -0.370356    54A     -0.365554
      55A     -0.316669

  @DF-RHF Final Energy:  -631.67120540954033

   => Energetics <=

    Nuclear Repulsion Energy =           1003.7214183894424195
    One-Electron Energy =               -2850.4874009738132372
    Two-Electron Energy =                1215.0947771748303694
    Total Energy =                       -631.6712054095403346
  Basis Set: (AUG-CC-PVTZ AUX)
    Blend: AUG-CC-PVTZ-RI
    Molecular point group: c1

    Geometry (in Angstrom), charge = 0, multiplicity = 1:

       Center              X                  Y                   Z               Mass
    ------------   -----------------  -----------------  -----------------  -----------------
         O            0.055941788222     1.926203727153    -1.188629002599    15.994914619570
         N            1.255506788222     0.438580727153     0.079918997401    14.003074004430
         C            3.726614788222    -0.975267272847     0.427519997401    12.000000000000
         C            3.579233788222     0.145005727153    -0.602802002599    12.000000000000
         C            2.378567788222    -1.642324272847     0.704115997401    12.000000000000
         C            2.509213788222     1.143408727153    -0.170863002599    12.000000000000
         C            1.336486788222    -0.600305272847     1.100802997401    12.000000000000
         C            0.097738788222     0.904548727153    -0.489510002599    12.000000000000
         C           -1.135812211778     0.077767727153    -0.274352002599    12.000000000000
         C           -2.237382211778     0.631362727153     0.403749997401    12.000000000000
         C           -1.205632111778    -1.014026772847    -0.768042902599    12.000000000000
         C           -3.400406211778    -0.139655272847     0.508205997401    12.000000000000
         C           -2.161570211778     2.012567727153     1.001217997401    12.000000000000
         C           -2.391637211778    -1.942484272847    -0.747279002599    12.000000000000
         C           -3.485449211778    -1.411785272847    -0.062646002599    12.000000000000
         H            4.458108788222    -1.717110272847     0.087420997401     1.007825032230
         H            4.116016788222    -0.553575272847     1.364510997401     1.007825032230
         H            4.532836788222     0.667678727153    -0.745065002599     1.007825032230
         H            3.290775788222    -0.277228272847    -1.573116002599     1.007825032230
         H            2.028208788222    -2.164096272847    -0.194987002599     1.007825032230
         H            2.471758788222    -2.389480272847     1.501747997401     1.007825032230
         H            2.821887788222     1.660499727153     0.749423997401     1.007825032230
         H            2.312201788222     1.897771727153    -0.933783002599     1.007825032230
         H            0.351966788222    -1.048626272847     1.237313997401     1.007825032230
         H            1.628427788222    -0.132807272847     2.054904997401     1.007825032230
         H           -0.358163211778    -1.594329272847    -1.387778002599     1.007825032230
         H           -4.259355211778     0.268606727153     1.038343997401     1.007825032230
         H           -1.980317211778     2.757250727153     0.222437997401     1.007825032230
         H           -3.091847211778     2.258348727153     1.520478997401     1.007825032230
         H           -1.339463211778     2.089375727153     1.720967997401     1.007825032230
         H           -2.452698211778    -2.928453272847    -1.201813002599     1.007825032230
         H           -4.404912211778    -1.985548272847     0.027532997401     1.007825032230

  Basis Set: AUG-CC-PVTZ
    Blend: AUG-CC-PVTZ
  Basis Set: (AUG-CC-PVTZ AUX)
    Blend: AUG-CC-PVTZ-JKFIT
	 Reference Energy          =    -631.6712054095403346 [Eh]
	 Singles Energy            =      -0.0000000000000000 [Eh]
	 Same-Spin Energy          =      -0.6880929862942821 [Eh]
	 Opposite-Spin Energy      =      -2.2133818981878361 [Eh]
	 Correlation Energy        =      -2.9014748844821181 [Eh]
	 Total Energy              =    -634.5726802940224616 [Eh]

	 ================> DF-SCS-MP2 Energies <==================
	-----------------------------------------------------------
	 SCS Same-Spin Scale       =       0.3333333333333333 [-]
	 SCS Opposite-Spin Scale   =       1.2000000000000000 [-]
	 SCS Same-Spin Energy      =      -0.2293643287647607 [Eh]
	 SCS Opposite-Spin Energy  =      -2.6560582778254034 [Eh]
	 SCS Correlation Energy    =      -2.8854226065901640 [Eh]
	 SCS Total Energy          =    -634.5566280161305031 [Eh]
	-----------------------------------------------------------

  Dipole Moment: [D]
     X:     1.3797      Y:    -2.5232      Z:     2.3116     Total:     3.6897

*** Psi4 exiting successfully. Buy a developer a beer!
