                               Psi4 1.4a3.dev225

  ==> Input File <==

--------------------------------------------------------------------------
#psi4
#
memory 32 gb

molecule  {
0 1
  O        0.0109280     1.9504830    -1.2088660
  N        1.2104930     0.4628600     0.0596820
  C        3.6816010    -0.9509880     0.4072830
  C        3.5342200     0.1692850    -0.6230390
  C        2.3335540    -1.6180450     0.6838790
  C        2.4642000     1.1676880    -0.1911000
  C        1.2914730    -0.5760260     1.0805660
  C        0.0527250     0.9288280    -0.5097470
  C       -1.1319982     0.1852188    -0.2760573
  C       -2.2823960     0.6556420     0.3835130
  C       -1.2622800    -1.1716740    -0.8705440
  C       -3.4454200    -0.1153760     0.4879690
  C       -2.2065840     2.0368470     0.9809810
  C       -2.4366510    -1.9182050    -0.7675160
  C       -3.5304630    -1.3875060    -0.0828830
  H        4.4130950    -1.6928310     0.0671840
  H        4.0710030    -0.5292960     1.3442740
  H        4.4878230     0.6919580    -0.7653020
  H        3.2457620    -0.2529490    -1.5933530
  H        1.9831950    -2.1398170    -0.2152240
  H        2.4267450    -2.3652010     1.4815110
  H        2.7768740     1.6847790     0.7291870
  H        2.2671880     1.9220510    -0.9540200
  H        0.3069530    -1.0243470     1.2170770
  H        1.5834140    -0.1085280     2.0346680
  H       -0.4031770    -1.5700500    -1.4080150
  H       -4.3043690     0.2928860     1.0181070
  H       -2.0253310     2.7815300     0.2022010
  H       -3.1368610     2.2826280     1.5002420
  H       -1.3844770     2.1136550     1.7007310
  H       -2.4977120    -2.9041740    -1.2220500
  H       -4.4499260    -1.9612690     0.0072960
units angstrom
no_reorient  #important for SAPT in psi4, default
symmetry c1  #important for SAPT in psi4, default
}

set PROPERTIES_ORIGIN ["COM"]
properties('MP2/aug-cc-pvtz', properties = ['dipole'])
--------------------------------------------------------------------------

    Molecular point group: c1
  Charge       = 0
  Multiplicity = 1
  Basis Set: AUG-CC-PVTZ
    Blend: AUG-CC-PVTZ
  Basis Set: (AUG-CC-PVTZ AUX)
    Blend: AUG-CC-PVTZ-JKFIT

    Orbital Energies [Eh]
    ---------------------

    Doubly Occupied:

       1A    -20.509628     2A    -15.583908     3A    -11.345574
       4A    -11.266819     5A    -11.256517     6A    -11.254661
       7A    -11.254325     8A    -11.247900     9A    -11.245705
      10A    -11.240653    11A    -11.238556    12A    -11.230466
      13A    -11.228177    14A    -11.225533    15A    -11.217819
      16A     -1.369627    17A     -1.250191    18A     -1.156327
      19A     -1.084899    20A     -1.054546    21A     -1.036178
      22A     -1.020777    23A     -0.946671    24A     -0.917054
      25A     -0.870289    26A     -0.850792    27A     -0.814103
      28A     -0.787692    29A     -0.744052    30A     -0.716675
      31A     -0.670900    32A     -0.654858    33A     -0.648385
      34A     -0.628495    35A     -0.617602    36A     -0.615033
      37A     -0.594782    38A     -0.589106    39A     -0.575969
      40A     -0.570867    41A     -0.560519    42A     -0.547112
      43A     -0.540081    44A     -0.526562    45A     -0.512410
      46A     -0.502127    47A     -0.487245    48A     -0.483336
      49A     -0.473548    50A     -0.469079    51A     -0.461454
      52A     -0.422217    53A     -0.366113    54A     -0.335085
      55A     -0.330000

  @DF-RHF Final Energy:  -631.71627742825899

   => Energetics <=

    Nuclear Repulsion Energy =           1000.2823647054294725
    One-Electron Energy =               -2843.6992916851772861
    Two-Electron Energy =                1211.7006495514888229
    Total Energy =                       -631.7162774282589908
  Basis Set: (AUG-CC-PVTZ AUX)
    Blend: AUG-CC-PVTZ-RI
    Molecular point group: c1

    Geometry (in Angstrom), charge = 0, multiplicity = 1:

       Center              X                  Y                   Z               Mass
    ------------   -----------------  -----------------  -----------------  -----------------
         O            0.053744563924     1.932037678236    -1.184863999982    15.994914619570
         N            1.253309563924     0.444414678236     0.083684000018    14.003074004430
         C            3.724417563924    -0.969433321764     0.431285000018    12.000000000000
         C            3.577036563924     0.150839678236    -0.599036999982    12.000000000000
         C            2.376370563924    -1.636490321764     0.707881000018    12.000000000000
         C            2.507016563924     1.149242678236    -0.167097999982    12.000000000000
         C            1.334289563924    -0.594471321764     1.104568000018    12.000000000000
         C            0.095541563924     0.910382678236    -0.485744999982    12.000000000000
         C           -1.089181636076     0.166773478236    -0.252055299982    12.000000000000
         C           -2.239579436076     0.637196678236     0.407515000018    12.000000000000
         C           -1.219463436076    -1.190119321764    -0.846541999982    12.000000000000
         C           -3.402603436076    -0.133821321764     0.511971000018    12.000000000000
         C           -2.163767436076     2.018401678236     1.004983000018    12.000000000000
         C           -2.393834436076    -1.936650321764    -0.743513999982    12.000000000000
         C           -3.487646436076    -1.405951321764    -0.058880999982    12.000000000000
         H            4.455911563924    -1.711276321764     0.091186000018     1.007825032230
         H            4.113819563924    -0.547741321764     1.368276000018     1.007825032230
         H            4.530639563924     0.673512678236    -0.741299999982     1.007825032230
         H            3.288578563924    -0.271394321764    -1.569350999982     1.007825032230
         H            2.026011563924    -2.158262321764    -0.191221999982     1.007825032230
         H            2.469561563924    -2.383646321764     1.505513000018     1.007825032230
         H            2.819690563924     1.666333678236     0.753189000018     1.007825032230
         H            2.310004563924     1.903605678236    -0.930017999982     1.007825032230
         H            0.349769563924    -1.042792321764     1.241079000018     1.007825032230
         H            1.626230563924    -0.126973321764     2.058670000018     1.007825032230
         H           -0.360360436076    -1.588495321764    -1.384012999982     1.007825032230
         H           -4.261552436076     0.274440678236     1.042109000018     1.007825032230
         H           -1.982514436076     2.763084678236     0.226203000018     1.007825032230
         H           -3.094044436076     2.264182678236     1.524244000018     1.007825032230
         H           -1.341660436076     2.095209678236     1.724733000018     1.007825032230
         H           -2.454895436076    -2.922619321764    -1.198047999982     1.007825032230
         H           -4.407109436076    -1.979714321764     0.031298000018     1.007825032230

  Basis Set: AUG-CC-PVTZ
    Blend: AUG-CC-PVTZ
  Basis Set: (AUG-CC-PVTZ AUX)
    Blend: AUG-CC-PVTZ-JKFIT
	 Reference Energy          =    -631.7162774282589908 [Eh]
	 Singles Energy            =      -0.0000000000000000 [Eh]
	 Same-Spin Energy          =      -0.6902856003829295 [Eh]
	 Opposite-Spin Energy      =      -2.2146465321329134 [Eh]
	 Correlation Energy        =      -2.9049321325158428 [Eh]
	 Total Energy              =    -634.6212095607747870 [Eh]

	 ================> DF-SCS-MP2 Energies <==================
	-----------------------------------------------------------
	 SCS Same-Spin Scale       =       0.3333333333333333 [-]
	 SCS Opposite-Spin Scale   =       1.2000000000000000 [-]
	 SCS Same-Spin Energy      =      -0.2300952001276432 [Eh]
	 SCS Opposite-Spin Energy  =      -2.6575758385594961 [Eh]
	 SCS Correlation Energy    =      -2.8876710386871394 [Eh]
	 SCS Total Energy          =    -634.6039484669461217 [Eh]
	-----------------------------------------------------------

  Dipole Moment: [D]
     X:     1.3441      Y:    -2.5935      Z:     2.3102     Total:     3.7242

*** Psi4 exiting successfully. Buy a developer a beer!
