                               Psi4 1.4a3.dev225

  ==> Input File <==

--------------------------------------------------------------------------
#psi4
#
memory 32 gb

molecule  {
0 1
  O        0.0109280     1.9504830    -1.2088660
  N        1.2104930     0.4628600     0.0596820
  C        3.6816010    -0.9509880     0.4072830
  C        3.5342200     0.1692850    -0.6230390
  C        2.3335540    -1.6180450     0.6838790
  C        2.4642000     1.1676880    -0.1911000
  C        1.2914730    -0.5760260     1.0805660
  C        0.0527250     0.9288280    -0.5097470
  C       -1.1808260     0.1020470    -0.2945890
  C       -2.2823960     0.6556420     0.3835130
  C       -1.2622800    -1.1716740    -0.8705440
  C       -3.4454200    -0.1153760     0.4879690
  C       -2.2065840     2.0368470     0.9809810
  C       -2.4366510    -1.9182050    -0.7675160
  C       -3.5304630    -1.3875060    -0.0828830
  H        4.4130950    -1.6928310     0.0671840
  H        4.0710030    -0.5292960     1.3442740
  H        4.4878230     0.6919580    -0.7653020
  H        3.2457620    -0.2529490    -1.5933530
  H        1.9863861    -2.0380045    -0.2682198
  H        2.4267450    -2.3652010     1.4815110
  H        2.7768740     1.6847790     0.7291870
  H        2.2671880     1.9220510    -0.9540200
  H        0.3069530    -1.0243470     1.2170770
  H        1.5834140    -0.1085280     2.0346680
  H       -0.4031770    -1.5700500    -1.4080150
  H       -4.3043690     0.2928860     1.0181070
  H       -2.0253310     2.7815300     0.2022010
  H       -3.1368610     2.2826280     1.5002420
  H       -1.3844770     2.1136550     1.7007310
  H       -2.4977120    -2.9041740    -1.2220500
  H       -4.4499260    -1.9612690     0.0072960
units angstrom
no_reorient  #important for SAPT in psi4, default
symmetry c1  #important for SAPT in psi4, default
}

set PROPERTIES_ORIGIN ["COM"]
properties('MP2/aug-cc-pvtz', properties = ['dipole'])
--------------------------------------------------------------------------

    Molecular point group: c1
  Charge       = 0
  Multiplicity = 1
  Basis Set: AUG-CC-PVTZ
    Blend: AUG-CC-PVTZ
  Basis Set: (AUG-CC-PVTZ AUX)
    Blend: AUG-CC-PVTZ-JKFIT

    Orbital Energies [Eh]
    ---------------------

    Doubly Occupied:

       1A    -20.510966     2A    -15.584101     3A    -11.349628
       4A    -11.266493     5A    -11.254738     6A    -11.251895
       7A    -11.246429     8A    -11.245095     9A    -11.242683
      10A    -11.239179    11A    -11.237017    12A    -11.230931
      13A    -11.227746    14A    -11.225866    15A    -11.220367
      16A     -1.367172    17A     -1.249868    18A     -1.161488
      19A     -1.084261    20A     -1.050857    21A     -1.037520
      22A     -1.023279    23A     -0.943209    24A     -0.918841
      25A     -0.866937    26A     -0.843665    27A     -0.815113
      28A     -0.790586    29A     -0.743567    30A     -0.712807
      31A     -0.666751    32A     -0.653194    33A     -0.647647
      34A     -0.628367    35A     -0.621828    36A     -0.614181
      37A     -0.597907    38A     -0.588372    39A     -0.575620
      40A     -0.572231    41A     -0.559999    42A     -0.548436
      43A     -0.541713    44A     -0.524800    45A     -0.507767
      46A     -0.501389    47A     -0.491764    48A     -0.489018
      49A     -0.478410    50A     -0.469597    51A     -0.460793
      52A     -0.417076    53A     -0.366361    54A     -0.340050
      55A     -0.330036

  @DF-RHF Final Energy:  -631.72917611800131

   => Energetics <=

    Nuclear Repulsion Energy =           1000.2346018289786116
    One-Electron Energy =               -2843.6563330289236546
    Two-Electron Energy =                1211.6925550819437376
    Total Energy =                       -631.7291761180013054
  Basis Set: (AUG-CC-PVTZ AUX)
    Blend: AUG-CC-PVTZ-RI
    Molecular point group: c1

    Geometry (in Angstrom), charge = 0, multiplicity = 1:

       Center              X                  Y                   Z               Mass
    ------------   -----------------  -----------------  -----------------  -----------------
         O            0.056613242210     1.936445928830    -1.183506300396    15.994914619570
         N            1.256178242210     0.448822928830     0.085041699604    14.003074004430
         C            3.727286242210    -0.965025071170     0.432642699604    12.000000000000
         C            3.579905242210     0.155247928830    -0.597679300396    12.000000000000
         C            2.379239242210    -1.632082071170     0.709238699604    12.000000000000
         C            2.509885242210     1.153650928830    -0.165740300396    12.000000000000
         C            1.337158242210    -0.590063071170     1.105925699604    12.000000000000
         C            0.098410242210     0.914790928830    -0.484387300396    12.000000000000
         C           -1.135140757790     0.088009928830    -0.269229300396    12.000000000000
         C           -2.236710757790     0.641604928830     0.408872699604    12.000000000000
         C           -1.216594757790    -1.185711071170    -0.845184300396    12.000000000000
         C           -3.399734757790    -0.129413071170     0.513328699604    12.000000000000
         C           -2.160898757790     2.022809928830     1.006340699604    12.000000000000
         C           -2.390965757790    -1.932242071170    -0.742156300396    12.000000000000
         C           -3.484777757790    -1.401543071170    -0.057523300396    12.000000000000
         H            4.458780242210    -1.706868071170     0.092543699604     1.007825032230
         H            4.116688242210    -0.543333071170     1.369633699604     1.007825032230
         H            4.533508242210     0.677920928830    -0.739942300396     1.007825032230
         H            3.291447242210    -0.266986071170    -1.567993300396     1.007825032230
         H            2.032071342210    -2.052041571170    -0.242860100396     1.007825032230
         H            2.472430242210    -2.379238071170     1.506870699604     1.007825032230
         H            2.822559242210     1.670741928830     0.754546699604     1.007825032230
         H            2.312873242210     1.908013928830    -0.928660300396     1.007825032230
         H            0.352638242210    -1.038384071170     1.242436699604     1.007825032230
         H            1.629099242210    -0.122565071170     2.060027699604     1.007825032230
         H           -0.357491757790    -1.584087071170    -1.382655300396     1.007825032230
         H           -4.258683757790     0.278848928830     1.043466699604     1.007825032230
         H           -1.979645757790     2.767492928830     0.227560699604     1.007825032230
         H           -3.091175757790     2.268590928830     1.525601699604     1.007825032230
         H           -1.338791757790     2.099617928830     1.726090699604     1.007825032230
         H           -2.452026757790    -2.918211071170    -1.196690300396     1.007825032230
         H           -4.404240757790    -1.975306071170     0.032655699604     1.007825032230

  Basis Set: AUG-CC-PVTZ
    Blend: AUG-CC-PVTZ
  Basis Set: (AUG-CC-PVTZ AUX)
    Blend: AUG-CC-PVTZ-JKFIT
	 Reference Energy          =    -631.7291761180013054 [Eh]
	 Singles Energy            =      -0.0000000000000000 [Eh]
	 Same-Spin Energy          =      -0.6892069789945934 [Eh]
	 Opposite-Spin Energy      =      -2.2125952715523796 [Eh]
	 Correlation Energy        =      -2.9018022505469729 [Eh]
	 Total Energy              =    -634.6309783685483126 [Eh]

	 ================> DF-SCS-MP2 Energies <==================
	-----------------------------------------------------------
	 SCS Same-Spin Scale       =       0.3333333333333333 [-]
	 SCS Opposite-Spin Scale   =       1.2000000000000000 [-]
	 SCS Same-Spin Energy      =      -0.2297356596648645 [Eh]
	 SCS Opposite-Spin Energy  =      -2.6551143258628556 [Eh]
	 SCS Correlation Energy    =      -2.8848499855277199 [Eh]
	 SCS Total Energy          =    -634.6140261035289996 [Eh]
	-----------------------------------------------------------

  Dipole Moment: [D]
     X:     1.4014      Y:    -2.4897      Z:     2.3048     Total:     3.6708

*** Psi4 exiting successfully. Buy a developer a beer!
