                               Psi4 1.4a3.dev225

  ==> Input File <==

--------------------------------------------------------------------------
#psi4
#
memory 32 gb

molecule  {
0 1
  O        0.0109280     1.9504830    -1.2088660
  N        1.2104930     0.4628600     0.0596820
  C        3.6816010    -0.9509880     0.4072830
  C        3.5342200     0.1692850    -0.6230390
  C        2.3335540    -1.6180450     0.6838790
  C        2.4642000     1.1676880    -0.1911000
  C        1.2914730    -0.5760260     1.0805660
  C        0.0527250     0.9288280    -0.5097470
  C       -1.1808260     0.1020470    -0.2945890
  C       -2.2823960     0.6556420     0.3835130
  C       -1.2622800    -1.1716740    -0.8705440
  C       -3.4454200    -0.1153760     0.4879690
  C       -2.2065840     2.0368470     0.9809810
  C       -2.4366510    -1.9182050    -0.7675160
  C       -3.5304630    -1.3875060    -0.0828830
  H        4.4130950    -1.6928310     0.0671840
  H        4.0710030    -0.5292960     1.3442740
  H        4.4878230     0.6919580    -0.7653020
  H        3.2457620    -0.2529490    -1.5933530
  H        1.9831950    -2.1398170    -0.2152240
  H        2.4267450    -2.3652010     1.4815110
  H        2.7768740     1.6847790     0.7291870
  H        2.2671880     1.9220510    -0.9540200
  H        0.3069530    -1.0243470     1.2170770
  H        1.5834140    -0.1085280     2.0346680
  H       -0.4031770    -1.5700500    -1.4080150
  H       -4.3043690     0.2928860     1.0181070
  H       -2.0253310     2.7815300     0.2022010
  H       -3.1368610     2.2826280     1.5002420
  H       -1.3094230     2.1206672     1.7664404
  H       -2.4977120    -2.9041740    -1.2220500
  H       -4.4499260    -1.9612690     0.0072960
units angstrom
no_reorient  #important for SAPT in psi4, default
symmetry c1  #important for SAPT in psi4, default
}

set PROPERTIES_ORIGIN ["COM"]
properties('MP2/aug-cc-pvtz', properties = ['dipole'])
--------------------------------------------------------------------------

    Molecular point group: c1
  Charge       = 0
  Multiplicity = 1
  Basis Set: AUG-CC-PVTZ
    Blend: AUG-CC-PVTZ
  Basis Set: (AUG-CC-PVTZ AUX)
    Blend: AUG-CC-PVTZ-JKFIT

    Orbital Energies [Eh]
    ---------------------

    Doubly Occupied:

       1A    -20.510707     2A    -15.583783     3A    -11.349485
       4A    -11.266968     5A    -11.254509     6A    -11.252729
       7A    -11.246696     8A    -11.245433     9A    -11.243073
      10A    -11.239628    11A    -11.237739    12A    -11.232228
      13A    -11.230568    14A    -11.228249    15A    -11.225595
      16A     -1.366912    17A     -1.249476    18A     -1.161771
      19A     -1.083548    20A     -1.049788    21A     -1.037334
      22A     -1.023356    23A     -0.939679    24A     -0.916928
      25A     -0.867266    26A     -0.844227    27A     -0.814726
      28A     -0.790428    29A     -0.742550    30A     -0.712142
      31A     -0.666649    32A     -0.653150    33A     -0.648092
      34A     -0.627769    35A     -0.620619    36A     -0.615023
      37A     -0.596325    38A     -0.587802    39A     -0.575122
      40A     -0.563883    41A     -0.560176    42A     -0.546336
      43A     -0.540339    44A     -0.523379    45A     -0.506121
      46A     -0.500980    47A     -0.490845    48A     -0.489087
      49A     -0.478565    50A     -0.469506    51A     -0.461474
      52A     -0.416981    53A     -0.366116    54A     -0.340368
      55A     -0.329830

  @DF-RHF Final Energy:  -631.72423741116631

   => Energetics <=

    Nuclear Repulsion Energy =            999.5997774794025190
    One-Electron Energy =               -2842.4039092961602364
    Two-Electron Energy =                1211.0798944055914035
    Total Energy =                       -631.7242374111663139
  Basis Set: (AUG-CC-PVTZ AUX)
    Blend: AUG-CC-PVTZ-RI
    Molecular point group: c1

    Geometry (in Angstrom), charge = 0, multiplicity = 1:

       Center              X                  Y                   Z               Mass
    ------------   -----------------  -----------------  -----------------  -----------------
         O            0.056256697791     1.936916276087    -1.184095250697    15.994914619570
         N            1.255821697791     0.449293276087     0.084452749303    14.003074004430
         C            3.726929697791    -0.964554723913     0.432053749303    12.000000000000
         C            3.579548697791     0.155718276087    -0.598268250697    12.000000000000
         C            2.378882697791    -1.631611723913     0.708649749303    12.000000000000
         C            2.509528697791     1.154121276087    -0.166329250697    12.000000000000
         C            1.336801697791    -0.589592723913     1.105336749303    12.000000000000
         C            0.098053697791     0.915261276087    -0.484976250697    12.000000000000
         C           -1.135497302209     0.088480276087    -0.269818250697    12.000000000000
         C           -2.237067302209     0.642075276087     0.408283749303    12.000000000000
         C           -1.216951302209    -1.185240723913    -0.845773250697    12.000000000000
         C           -3.400091302209    -0.128942723913     0.512739749303    12.000000000000
         C           -2.161255302209     2.023280276087     1.005751749303    12.000000000000
         C           -2.391322302209    -1.931771723913    -0.742745250697    12.000000000000
         C           -3.485134302209    -1.401072723913    -0.058112250697    12.000000000000
         H            4.458423697791    -1.706397723913     0.091954749303     1.007825032230
         H            4.116331697791    -0.542862723913     1.369044749303     1.007825032230
         H            4.533151697791     0.678391276087    -0.740531250697     1.007825032230
         H            3.291090697791    -0.266515723913    -1.568582250697     1.007825032230
         H            2.028523697791    -2.153383723913    -0.190453250697     1.007825032230
         H            2.472073697791    -2.378767723913     1.506281749303     1.007825032230
         H            2.822202697791     1.671212276087     0.753957749303     1.007825032230
         H            2.312516697791     1.908484276087    -0.929249250697     1.007825032230
         H            0.352281697791    -1.037913723913     1.241847749303     1.007825032230
         H            1.628742697791    -0.122094723913     2.059438749303     1.007825032230
         H           -0.357848302209    -1.583616723913    -1.383244250697     1.007825032230
         H           -4.259040302209     0.279319276087     1.042877749303     1.007825032230
         H           -1.980002302209     2.767963276087     0.226971749303     1.007825032230
         H           -3.091532302209     2.269061276087     1.525012749303     1.007825032230
         H           -1.264094302209     2.107100476087     1.791211149303     1.007825032230
         H           -2.452383302209    -2.917740723913    -1.197279250697     1.007825032230
         H           -4.404597302209    -1.974835723913     0.032066749303     1.007825032230

  Basis Set: AUG-CC-PVTZ
    Blend: AUG-CC-PVTZ
  Basis Set: (AUG-CC-PVTZ AUX)
    Blend: AUG-CC-PVTZ-JKFIT
	 Reference Energy          =    -631.7242374111663139 [Eh]
	 Singles Energy            =      -0.0000000000000000 [Eh]
	 Same-Spin Energy          =      -0.6890507864951315 [Eh]
	 Opposite-Spin Energy      =      -2.2129834205120700 [Eh]
	 Correlation Energy        =      -2.9020342070072016 [Eh]
	 Total Energy              =    -634.6262716181735186 [Eh]

	 ================> DF-SCS-MP2 Energies <==================
	-----------------------------------------------------------
	 SCS Same-Spin Scale       =       0.3333333333333333 [-]
	 SCS Opposite-Spin Scale   =       1.2000000000000000 [-]
	 SCS Same-Spin Energy      =      -0.2296835954983772 [Eh]
	 SCS Opposite-Spin Energy  =      -2.6555801046144838 [Eh]
	 SCS Correlation Energy    =      -2.8852637001128612 [Eh]
	 SCS Total Energy          =    -634.6095011112792008 [Eh]
	-----------------------------------------------------------

  Dipole Moment: [D]
     X:     1.3678      Y:    -2.5474      Z:     2.2616     Total:     3.6708

*** Psi4 exiting successfully. Buy a developer a beer!
