                               Psi4 1.4a3.dev225

  ==> Input File <==

--------------------------------------------------------------------------
#psi4
#
memory 32 gb

molecule  {
0 1
  O        0.0109280     1.9504830    -1.2088660
  N        1.2104930     0.4628600     0.0596820
  C        3.6816010    -0.9509880     0.4072830
  C        3.5342200     0.1692850    -0.6230390
  C        2.3335540    -1.6180450     0.6838790
  C        2.4642000     1.1676880    -0.1911000
  C        1.2914730    -0.5760260     1.0805660
  C        0.0527250     0.9288280    -0.5097470
  C       -1.1808260     0.1020470    -0.2945890
  C       -2.2823960     0.6556420     0.3835130
  C       -1.2622800    -1.1716740    -0.8705440
  C       -3.4454200    -0.1153760     0.4879690
  C       -2.2065840     2.0368470     0.9809810
  C       -2.4366510    -1.9182050    -0.7675160
  C       -3.5304630    -1.3875060    -0.0828830
  H        4.4130950    -1.6928310     0.0671840
  H        4.0710030    -0.5292960     1.3442740
  H        4.4878230     0.6919580    -0.7653020
  H        3.2457620    -0.2529490    -1.5933530
  H        1.9831950    -2.1398170    -0.2152240
  H        2.4267450    -2.3652010     1.4815110
  H        2.7711939     1.6753854     0.7124688
  H        2.2671880     1.9220510    -0.9540200
  H        0.3069530    -1.0243470     1.2170770
  H        1.5834140    -0.1085280     2.0346680
  H       -0.4031770    -1.5700500    -1.4080150
  H       -4.3043690     0.2928860     1.0181070
  H       -2.0253310     2.7815300     0.2022010
  H       -3.1368610     2.2826280     1.5002420
  H       -1.3844770     2.1136550     1.7007310
  H       -2.4977120    -2.9041740    -1.2220500
  H       -4.4499260    -1.9612690     0.0072960
units angstrom
no_reorient  #important for SAPT in psi4, default
symmetry c1  #important for SAPT in psi4, default
}

set PROPERTIES_ORIGIN ["COM"]
properties('MP2/aug-cc-pvtz', properties = ['dipole'])
--------------------------------------------------------------------------

    Molecular point group: c1
  Charge       = 0
  Multiplicity = 1
  Basis Set: AUG-CC-PVTZ
    Blend: AUG-CC-PVTZ
  Basis Set: (AUG-CC-PVTZ AUX)
    Blend: AUG-CC-PVTZ-JKFIT

    Orbital Energies [Eh]
    ---------------------

    Doubly Occupied:

       1A    -20.510618     2A    -15.583620     3A    -11.349302
       4A    -11.267054     5A    -11.252146     6A    -11.251782
       7A    -11.246268     8A    -11.244938     9A    -11.242589
      10A    -11.239084    11A    -11.236924    12A    -11.230602
      13A    -11.228308    14A    -11.225454    15A    -11.220303
      16A     -1.366849    17A     -1.249546    18A     -1.161371
      19A     -1.083591    20A     -1.050754    21A     -1.037577
      22A     -1.023277    23A     -0.943224    24A     -0.919186
      25A     -0.867508    26A     -0.844430    27A     -0.815229
      28A     -0.791265    29A     -0.743516    30A     -0.712264
      31A     -0.666700    32A     -0.652996    33A     -0.648890
      34A     -0.628117    35A     -0.620404    36A     -0.615685
      37A     -0.596530    38A     -0.588130    39A     -0.575598
      40A     -0.571818    41A     -0.560115    42A     -0.547347
      43A     -0.541594    44A     -0.524976    45A     -0.508205
      46A     -0.502896    47A     -0.491582    48A     -0.489337
      49A     -0.478549    50A     -0.469651    51A     -0.461547
      52A     -0.416791    53A     -0.366244    54A     -0.339932
      55A     -0.329939

  @DF-RHF Final Energy:  -631.73076743273748

   => Energetics <=

    Nuclear Repulsion Energy =           1000.0822011715542885
    One-Electron Energy =               -2843.3616355175836361
    Two-Electron Energy =                1211.5486669132919815
    Total Energy =                       -631.7307674327373661
  Basis Set: (AUG-CC-PVTZ AUX)
    Blend: AUG-CC-PVTZ-RI
    Molecular point group: c1

    Geometry (in Angstrom), charge = 0, multiplicity = 1:

       Center              X                  Y                   Z               Mass
    ------------   -----------------  -----------------  -----------------  -----------------
         O            0.056657256255     1.936997672697    -1.183686290012    15.994914619570
         N            1.256222256255     0.449374672697     0.084861709988    14.003074004430
         C            3.727330256255    -0.964473327303     0.432462709988    12.000000000000
         C            3.579949256255     0.155799672697    -0.597859290012    12.000000000000
         C            2.379283256255    -1.631530327303     0.709058709988    12.000000000000
         C            2.509929256255     1.154202672697    -0.165920290012    12.000000000000
         C            1.337202256255    -0.589511327303     1.105745709988    12.000000000000
         C            0.098454256255     0.915342672697    -0.484567290012    12.000000000000
         C           -1.135096743745     0.088561672697    -0.269409290012    12.000000000000
         C           -2.236666743745     0.642156672697     0.408692709988    12.000000000000
         C           -1.216550743745    -1.185159327303    -0.845364290012    12.000000000000
         C           -3.399690743745    -0.128861327303     0.513148709988    12.000000000000
         C           -2.160854743745     2.023361672697     1.006160709988    12.000000000000
         C           -2.390921743745    -1.931690327303    -0.742336290012    12.000000000000
         C           -3.484733743745    -1.400991327303    -0.057703290012    12.000000000000
         H            4.458824256255    -1.706316327303     0.092363709988     1.007825032230
         H            4.116732256255    -0.542781327303     1.369453709988     1.007825032230
         H            4.533552256255     0.678472672697    -0.740122290012     1.007825032230
         H            3.291491256255    -0.266434327303    -1.568173290012     1.007825032230
         H            2.028924256255    -2.153302327303    -0.190044290012     1.007825032230
         H            2.472474256255    -2.378686327303     1.506690709988     1.007825032230
         H            2.816923156255     1.661900072697     0.737648509988     1.007825032230
         H            2.312917256255     1.908565672697    -0.928840290012     1.007825032230
         H            0.352682256255    -1.037832327303     1.242256709988     1.007825032230
         H            1.629143256255    -0.122013327303     2.059847709988     1.007825032230
         H           -0.357447743745    -1.583535327303    -1.382835290012     1.007825032230
         H           -4.258639743745     0.279400672697     1.043286709988     1.007825032230
         H           -1.979601743745     2.768044672697     0.227380709988     1.007825032230
         H           -3.091131743745     2.269142672697     1.525421709988     1.007825032230
         H           -1.338747743745     2.100169672697     1.725910709988     1.007825032230
         H           -2.451982743745    -2.917659327303    -1.196870290012     1.007825032230
         H           -4.404196743745    -1.974754327303     0.032475709988     1.007825032230

  Basis Set: AUG-CC-PVTZ
    Blend: AUG-CC-PVTZ
  Basis Set: (AUG-CC-PVTZ AUX)
    Blend: AUG-CC-PVTZ-JKFIT
	 Reference Energy          =    -631.7307674327374798 [Eh]
	 Singles Energy            =      -0.0000000000000000 [Eh]
	 Same-Spin Energy          =      -0.6889961306402803 [Eh]
	 Opposite-Spin Energy      =      -2.2121316329491609 [Eh]
	 Correlation Energy        =      -2.9011277635894412 [Eh]
	 Total Energy              =    -634.6318951963269228 [Eh]

	 ================> DF-SCS-MP2 Energies <==================
	-----------------------------------------------------------
	 SCS Same-Spin Scale       =       0.3333333333333333 [-]
	 SCS Opposite-Spin Scale   =       1.2000000000000000 [-]
	 SCS Same-Spin Energy      =      -0.2296653768800934 [Eh]
	 SCS Opposite-Spin Energy  =      -2.6545579595389932 [Eh]
	 SCS Correlation Energy    =      -2.8842233364190868 [Eh]
	 SCS Total Energy          =    -634.6149907691565204 [Eh]
	-----------------------------------------------------------

  Dipole Moment: [D]
     X:     1.4161      Y:    -2.5107      Z:     2.3149     Total:     3.6970

*** Psi4 exiting successfully. Buy a developer a beer!
