                               Psi4 1.4a3.dev225

  ==> Input File <==

--------------------------------------------------------------------------
#psi4
#
memory 32 gb

molecule  {
0 1
  O        0.0109280     1.9504830    -1.2088660
  N        1.2104930     0.4628600     0.0596820
  C        3.6816010    -0.9509880     0.4072830
  C        3.5342200     0.1692850    -0.6230390
  C        2.3335540    -1.6180450     0.6838790
  C        2.4642000     1.1676880    -0.1911000
  C        1.2914730    -0.5760260     1.0805660
  C        0.0527250     0.9288280    -0.5097470
  C       -1.1938814     0.0816599    -0.2987089
  C       -2.2823960     0.6556420     0.3835130
  C       -1.2622800    -1.1716740    -0.8705440
  C       -3.4454200    -0.1153760     0.4879690
  C       -2.2065840     2.0368470     0.9809810
  C       -2.4366510    -1.9182050    -0.7675160
  C       -3.5304630    -1.3875060    -0.0828830
  H        4.4130950    -1.6928310     0.0671840
  H        4.0710030    -0.5292960     1.3442740
  H        4.4878230     0.6919580    -0.7653020
  H        3.2457620    -0.2529490    -1.5933530
  H        1.9831950    -2.1398170    -0.2152240
  H        2.4267450    -2.3652010     1.4815110
  H        2.7768740     1.6847790     0.7291870
  H        2.2671880     1.9220510    -0.9540200
  H        0.3069530    -1.0243470     1.2170770
  H        1.5834140    -0.1085280     2.0346680
  H       -0.4031770    -1.5700500    -1.4080150
  H       -4.3043690     0.2928860     1.0181070
  H       -2.0253310     2.7815300     0.2022010
  H       -3.1368610     2.2826280     1.5002420
  H       -1.3844770     2.1136550     1.7007310
  H       -2.4977120    -2.9041740    -1.2220500
  H       -4.4499260    -1.9612690     0.0072960
units angstrom
no_reorient  #important for SAPT in psi4, default
symmetry c1  #important for SAPT in psi4, default
}

set PROPERTIES_ORIGIN ["COM"]
properties('MP2/aug-cc-pvtz', properties = ['dipole'])
--------------------------------------------------------------------------

    Molecular point group: c1
  Charge       = 0
  Multiplicity = 1
  Basis Set: AUG-CC-PVTZ
    Blend: AUG-CC-PVTZ
  Basis Set: (AUG-CC-PVTZ AUX)
    Blend: AUG-CC-PVTZ-JKFIT

    Orbital Energies [Eh]
    ---------------------

    Doubly Occupied:

       1A    -20.510999     2A    -15.583815     3A    -11.350120
       4A    -11.267100     5A    -11.254579     6A    -11.251393
       7A    -11.244959     8A    -11.243029     9A    -11.241933
      10A    -11.238818    11A    -11.236657    12A    -11.230651
      13A    -11.228330    14A    -11.225677    15A    -11.220996
      16A     -1.366366    17A     -1.249373    18A     -1.163108
      19A     -1.083327    20A     -1.050283    21A     -1.037664
      22A     -1.023838    23A     -0.942522    24A     -0.919046
      25A     -0.866912    26A     -0.842167    27A     -0.815907
      28A     -0.791798    29A     -0.742376    30A     -0.711437
      31A     -0.665848    32A     -0.652465    33A     -0.648266
      34A     -0.627629    35A     -0.621221    36A     -0.615253
      37A     -0.596386    38A     -0.587805    39A     -0.575697
      40A     -0.572044    41A     -0.560155    42A     -0.547597
      43A     -0.541984    44A     -0.524451    45A     -0.507175
      46A     -0.502205    47A     -0.492507    48A     -0.490983
      49A     -0.478928    50A     -0.469631    51A     -0.461537
      52A     -0.414854    53A     -0.366206    54A     -0.342140
      55A     -0.329273

  @DF-RHF Final Energy:  -631.73058239866498

   => Energetics <=

    Nuclear Repulsion Energy =            999.9122448045778810
    One-Electron Energy =               -2843.0308071990543795
    Two-Electron Energy =                1211.3879799958117474
    Total Energy =                       -631.7305823986648647
  Basis Set: (AUG-CC-PVTZ AUX)
    Blend: AUG-CC-PVTZ-RI
    Molecular point group: c1

    Geometry (in Angstrom), charge = 0, multiplicity = 1:

       Center              X                  Y                   Z               Mass
    ------------   -----------------  -----------------  -----------------  -----------------
         O            0.057400324730     1.938155438269    -1.183525852771    15.994914619570
         N            1.256965324730     0.450532438269     0.085022147229    14.003074004430
         C            3.728073324730    -0.963315561731     0.432623147229    12.000000000000
         C            3.580692324730     0.156957438269    -0.597698852771    12.000000000000
         C            2.380026324730    -1.630372561731     0.709219147229    12.000000000000
         C            2.510672324730     1.155360438269    -0.165759852771    12.000000000000
         C            1.337945324730    -0.588353561731     1.105906147229    12.000000000000
         C            0.099197324730     0.916500438269    -0.484406852771    12.000000000000
         C           -1.147409075270     0.069332338269    -0.273368752771    12.000000000000
         C           -2.235923675270     0.643314438269     0.408853147229    12.000000000000
         C           -1.215807675270    -1.184001561731    -0.845203852771    12.000000000000
         C           -3.398947675270    -0.127703561731     0.513309147229    12.000000000000
         C           -2.160111675270     2.024519438269     1.006321147229    12.000000000000
         C           -2.390178675270    -1.930532561731    -0.742175852771    12.000000000000
         C           -3.483990675270    -1.399833561731    -0.057542852771    12.000000000000
         H            4.459567324730    -1.705158561731     0.092524147229     1.007825032230
         H            4.117475324730    -0.541623561731     1.369614147229     1.007825032230
         H            4.534295324730     0.679630438269    -0.739961852771     1.007825032230
         H            3.292234324730    -0.265276561731    -1.568012852771     1.007825032230
         H            2.029667324730    -2.152144561731    -0.189883852771     1.007825032230
         H            2.473217324730    -2.377528561731     1.506851147229     1.007825032230
         H            2.823346324730     1.672451438269     0.754527147229     1.007825032230
         H            2.313660324730     1.909723438269    -0.928679852771     1.007825032230
         H            0.353425324730    -1.036674561731     1.242417147229     1.007825032230
         H            1.629886324730    -0.120855561731     2.060008147229     1.007825032230
         H           -0.356704675270    -1.582377561731    -1.382674852771     1.007825032230
         H           -4.257896675270     0.280558438269     1.043447147229     1.007825032230
         H           -1.978858675270     2.769202438269     0.227541147229     1.007825032230
         H           -3.090388675270     2.270300438269     1.525582147229     1.007825032230
         H           -1.338004675270     2.101327438269     1.726071147229     1.007825032230
         H           -2.451239675270    -2.916501561731    -1.196709852771     1.007825032230
         H           -4.403453675270    -1.973596561731     0.032636147229     1.007825032230

  Basis Set: AUG-CC-PVTZ
    Blend: AUG-CC-PVTZ
  Basis Set: (AUG-CC-PVTZ AUX)
    Blend: AUG-CC-PVTZ-JKFIT
	 Reference Energy          =    -631.7305823986649784 [Eh]
	 Singles Energy            =      -0.0000000000000000 [Eh]
	 Same-Spin Energy          =      -0.6888135279173369 [Eh]
	 Opposite-Spin Energy      =      -2.2119308263165354 [Eh]
	 Correlation Energy        =      -2.9007443542338720 [Eh]
	 Total Energy              =    -634.6313267528988717 [Eh]

	 ================> DF-SCS-MP2 Energies <==================
	-----------------------------------------------------------
	 SCS Same-Spin Scale       =       0.3333333333333333 [-]
	 SCS Opposite-Spin Scale   =       1.2000000000000000 [-]
	 SCS Same-Spin Energy      =      -0.2296045093057789 [Eh]
	 SCS Opposite-Spin Energy  =      -2.6543169915798424 [Eh]
	 SCS Correlation Energy    =      -2.8839215008856214 [Eh]
	 SCS Total Energy          =    -634.6145038995506411 [Eh]
	-----------------------------------------------------------

  Dipole Moment: [D]
     X:     1.4175      Y:    -2.5013      Z:     2.3021     Total:     3.6831

*** Psi4 exiting successfully. Buy a developer a beer!
