                               Psi4 1.4a3.dev225

  ==> Input File <==

--------------------------------------------------------------------------
#psi4
#
memory 32 gb

molecule  {
0 1
  O        0.0109280     1.9504830    -1.2088660
  N        1.2114271     0.4801000     0.1076274
  C        3.6816010    -0.9509880     0.4072830
  C        3.5342200     0.1692850    -0.6230390
  C        2.3335540    -1.6180450     0.6838790
  C        2.4642000     1.1676880    -0.1911000
  C        1.2914730    -0.5760260     1.0805660
  C        0.0527250     0.9288280    -0.5097470
  C       -1.1808260     0.1020470    -0.2945890
  C       -2.2823960     0.6556420     0.3835130
  C       -1.2622800    -1.1716740    -0.8705440
  C       -3.4454200    -0.1153760     0.4879690
  C       -2.2065840     2.0368470     0.9809810
  C       -2.4366510    -1.9182050    -0.7675160
  C       -3.5304630    -1.3875060    -0.0828830
  H        4.4130950    -1.6928310     0.0671840
  H        4.0710030    -0.5292960     1.3442740
  H        4.4878230     0.6919580    -0.7653020
  H        3.2457620    -0.2529490    -1.5933530
  H        1.9831950    -2.1398170    -0.2152240
  H        2.4267450    -2.3652010     1.4815110
  H        2.7768740     1.6847790     0.7291870
  H        2.2671880     1.9220510    -0.9540200
  H        0.3069530    -1.0243470     1.2170770
  H        1.5834140    -0.1085280     2.0346680
  H       -0.4031770    -1.5700500    -1.4080150
  H       -4.3043690     0.2928860     1.0181070
  H       -2.0253310     2.7815300     0.2022010
  H       -3.1368610     2.2826280     1.5002420
  H       -1.3844770     2.1136550     1.7007310
  H       -2.4977120    -2.9041740    -1.2220500
  H       -4.4499260    -1.9612690     0.0072960
units angstrom
no_reorient  #important for SAPT in psi4, default
symmetry c1  #important for SAPT in psi4, default
}

set PROPERTIES_ORIGIN ["COM"]
properties('MP2/aug-cc-pvtz', properties = ['dipole'])
--------------------------------------------------------------------------

    Molecular point group: c1
  Charge       = 0
  Multiplicity = 1
  Basis Set: AUG-CC-PVTZ
    Blend: AUG-CC-PVTZ
  Basis Set: (AUG-CC-PVTZ AUX)
    Blend: AUG-CC-PVTZ-JKFIT

    Orbital Energies [Eh]
    ---------------------

    Doubly Occupied:

       1A    -20.513433     2A    -15.582933     3A    -11.352067
       4A    -11.264671     5A    -11.254297     6A    -11.252223
       7A    -11.246786     8A    -11.245481     9A    -11.242938
      10A    -11.239447    11A    -11.237269    12A    -11.230191
      13A    -11.228113    14A    -11.225887    15A    -11.220450
      16A     -1.367243    17A     -1.251136    18A     -1.161781
      19A     -1.082445    20A     -1.051035    21A     -1.037178
      22A     -1.024167    23A     -0.942921    24A     -0.916691
      25A     -0.868657    26A     -0.845242    27A     -0.816060
      28A     -0.791289    29A     -0.741256    30A     -0.711815
      31A     -0.667345    32A     -0.653131    33A     -0.647929
      34A     -0.626633    35A     -0.621661    36A     -0.616477
      37A     -0.596745    38A     -0.587156    39A     -0.576262
      40A     -0.571766    41A     -0.563533    42A     -0.547624
      43A     -0.542205    44A     -0.522866    45A     -0.508678
      46A     -0.501140    47A     -0.491527    48A     -0.489412
      49A     -0.479248    50A     -0.468942    51A     -0.463327
      52A     -0.417594    53A     -0.363300    54A     -0.340387
      55A     -0.330335

  @DF-RHF Final Energy:  -631.72922325496779

   => Energetics <=

    Nuclear Repulsion Energy =            999.7807811482209672
    One-Electron Energy =               -2842.7393665318058993
    Two-Electron Energy =                1211.2293621286171401
    Total Energy =                       -631.7292232549677919
  Basis Set: (AUG-CC-PVTZ AUX)
    Blend: AUG-CC-PVTZ-RI
    Molecular point group: c1

    Geometry (in Angstrom), charge = 0, multiplicity = 1:

       Center              X                  Y                   Z               Mass
    ------------   -----------------  -----------------  -----------------  -----------------
         O            0.056564681428     1.935762607229    -1.187074408797    15.994914619570
         N            1.257063781428     0.465379607229     0.129418991203    14.003074004430
         C            3.727237681428    -0.965708392771     0.429074591203    12.000000000000
         C            3.579856681428     0.154564607229    -0.601247408797    12.000000000000
         C            2.379190681428    -1.632765392771     0.705670591203    12.000000000000
         C            2.509836681428     1.152967607229    -0.169308408797    12.000000000000
         C            1.337109681428    -0.590746392771     1.102357591203    12.000000000000
         C            0.098361681428     0.914107607229    -0.487955408797    12.000000000000
         C           -1.135189318572     0.087326607229    -0.272797408797    12.000000000000
         C           -2.236759318572     0.640921607229     0.405304591203    12.000000000000
         C           -1.216643318572    -1.186394392771    -0.848752408797    12.000000000000
         C           -3.399783318572    -0.130096392771     0.509760591203    12.000000000000
         C           -2.160947318572     2.022126607229     1.002772591203    12.000000000000
         C           -2.391014318572    -1.932925392771    -0.745724408797    12.000000000000
         C           -3.484826318572    -1.402226392771    -0.061091408797    12.000000000000
         H            4.458731681428    -1.707551392771     0.088975591203     1.007825032230
         H            4.116639681428    -0.544016392771     1.366065591203     1.007825032230
         H            4.533459681428     0.677237607229    -0.743510408797     1.007825032230
         H            3.291398681428    -0.267669392771    -1.571561408797     1.007825032230
         H            2.028831681428    -2.154537392771    -0.193432408797     1.007825032230
         H            2.472381681428    -2.379921392771     1.503302591203     1.007825032230
         H            2.822510681428     1.670058607229     0.750978591203     1.007825032230
         H            2.312824681428     1.907330607229    -0.932228408797     1.007825032230
         H            0.352589681428    -1.039067392771     1.238868591203     1.007825032230
         H            1.629050681428    -0.123248392771     2.056459591203     1.007825032230
         H           -0.357540318572    -1.584770392771    -1.386223408797     1.007825032230
         H           -4.258732318572     0.278165607229     1.039898591203     1.007825032230
         H           -1.979694318572     2.766809607229     0.223992591203     1.007825032230
         H           -3.091224318572     2.267907607229     1.522033591203     1.007825032230
         H           -1.338840318572     2.098934607229     1.722522591203     1.007825032230
         H           -2.452075318572    -2.918894392771    -1.200258408797     1.007825032230
         H           -4.404289318572    -1.975989392771     0.029087591203     1.007825032230

  Basis Set: AUG-CC-PVTZ
    Blend: AUG-CC-PVTZ
  Basis Set: (AUG-CC-PVTZ AUX)
    Blend: AUG-CC-PVTZ-JKFIT
	 Reference Energy          =    -631.7292232549677919 [Eh]
	 Singles Energy            =      -0.0000000000000000 [Eh]
	 Same-Spin Energy          =      -0.6892456402130456 [Eh]
	 Opposite-Spin Energy      =      -2.2125709368010713 [Eh]
	 Correlation Energy        =      -2.9018165770141167 [Eh]
	 Total Energy              =    -634.6310398319818660 [Eh]

	 ================> DF-SCS-MP2 Energies <==================
	-----------------------------------------------------------
	 SCS Same-Spin Scale       =       0.3333333333333333 [-]
	 SCS Opposite-Spin Scale   =       1.2000000000000000 [-]
	 SCS Same-Spin Energy      =      -0.2297485467376819 [Eh]
	 SCS Opposite-Spin Energy  =      -2.6550851241612854 [Eh]
	 SCS Correlation Energy    =      -2.8848336708989670 [Eh]
	 SCS Total Energy          =    -634.6140569258667483 [Eh]
	-----------------------------------------------------------

  Dipole Moment: [D]
     X:     1.3624      Y:    -2.5135      Z:     2.2127     Total:     3.6152

*** Psi4 exiting successfully. Buy a developer a beer!
