                               Psi4 1.4a3.dev225

  ==> Input File <==

--------------------------------------------------------------------------
#psi4
#
memory 32 gb

molecule  {
0 1
  O        0.0109280     1.9504830    -1.2088660
  N        1.2104930     0.4628600     0.0596820
  C        3.6816010    -0.9509880     0.4072830
  C        3.5342200     0.1692850    -0.6230390
  C        2.3335540    -1.6180450     0.6838790
  C        2.4642000     1.1676880    -0.1911000
  C        1.2914730    -0.5760260     1.0805660
  C        0.0527250     0.9288280    -0.5097470
  C       -1.1808260     0.1020470    -0.2945890
  C       -2.2823960     0.6556420     0.3835130
  C       -1.2622800    -1.1716740    -0.8705440
  C       -3.4454200    -0.1153760     0.4879690
  C       -2.2065840     2.0368470     0.9809810
  C       -2.4366510    -1.9182050    -0.7675160
  C       -3.5304630    -1.3875060    -0.0828830
  H        4.4130950    -1.6928310     0.0671840
  H        4.0710030    -0.5292960     1.3442740
  H        4.4878230     0.6919580    -0.7653020
  H        3.2457620    -0.2529490    -1.5933530
  H        1.9831950    -2.1398170    -0.2152240
  H        2.4267450    -2.3652010     1.4815110
  H        2.7768740     1.6847790     0.7291870
  H        2.2671880     1.9220510    -0.9540200
  H        0.2618069    -1.0449052     1.2233368
  H        1.5834140    -0.1085280     2.0346680
  H       -0.4031770    -1.5700500    -1.4080150
  H       -4.3043690     0.2928860     1.0181070
  H       -2.0253310     2.7815300     0.2022010
  H       -3.1368610     2.2826280     1.5002420
  H       -1.3844770     2.1136550     1.7007310
  H       -2.4977120    -2.9041740    -1.2220500
  H       -4.4499260    -1.9612690     0.0072960
units angstrom
no_reorient  #important for SAPT in psi4, default
symmetry c1  #important for SAPT in psi4, default
}

set PROPERTIES_ORIGIN ["COM"]
properties('MP2/aug-cc-pvtz', properties = ['dipole'])
--------------------------------------------------------------------------

    Molecular point group: c1
  Charge       = 0
  Multiplicity = 1
  Basis Set: AUG-CC-PVTZ
    Blend: AUG-CC-PVTZ
  Basis Set: (AUG-CC-PVTZ AUX)
    Blend: AUG-CC-PVTZ-JKFIT

    Orbital Energies [Eh]
    ---------------------

    Doubly Occupied:

       1A    -20.510921     2A    -15.584295     3A    -11.349563
       4A    -11.272351     5A    -11.255007     6A    -11.251709
       7A    -11.246219     8A    -11.244943     9A    -11.242548
      10A    -11.239069    11A    -11.236920    12A    -11.230884
      13A    -11.228559    14A    -11.225888    15A    -11.220267
      16A     -1.367116    17A     -1.249533    18A     -1.161373
      19A     -1.083799    20A     -1.050710    21A     -1.036562
      22A     -1.022407    23A     -0.943014    24A     -0.918215
      25A     -0.865620    26A     -0.844115    27A     -0.815257
      28A     -0.791076    29A     -0.741537    30A     -0.711005
      31A     -0.666119    32A     -0.652732    33A     -0.648375
      34A     -0.626559    35A     -0.619188    36A     -0.615448
      37A     -0.596089    38A     -0.587814    39A     -0.575590
      40A     -0.571794    41A     -0.559120    42A     -0.546068
      43A     -0.541530    44A     -0.524929    45A     -0.508074
      46A     -0.502155    47A     -0.491330    48A     -0.489044
      49A     -0.478675    50A     -0.468611    51A     -0.460570
      52A     -0.416997    53A     -0.366470    54A     -0.339540
      55A     -0.329878

  @DF-RHF Final Energy:  -631.72814752851195

   => Energetics <=

    Nuclear Repulsion Energy =            999.7804181582125693
    One-Electron Energy =               -2842.7707763188395802
    Two-Electron Energy =                1211.2622106321150568
    Total Energy =                       -631.7281475285119541
  Basis Set: (AUG-CC-PVTZ AUX)
    Blend: AUG-CC-PVTZ-RI
    Molecular point group: c1

    Geometry (in Angstrom), charge = 0, multiplicity = 1:

       Center              X                  Y                   Z               Mass
    ------------   -----------------  -----------------  -----------------  -----------------
         O            0.056853064969     1.937053065338    -1.183800294285    15.994914619570
         N            1.256418064969     0.449430065338     0.084747705715    14.003074004430
         C            3.727526064969    -0.964417934662     0.432348705715    12.000000000000
         C            3.580145064969     0.155855065338    -0.597973294285    12.000000000000
         C            2.379479064969    -1.631474934662     0.708944705715    12.000000000000
         C            2.510125064969     1.154258065338    -0.166034294285    12.000000000000
         C            1.337398064969    -0.589455934662     1.105631705715    12.000000000000
         C            0.098650064969     0.915398065338    -0.484681294285    12.000000000000
         C           -1.134900935031     0.088617065338    -0.269523294285    12.000000000000
         C           -2.236470935031     0.642212065338     0.408578705715    12.000000000000
         C           -1.216354935031    -1.185103934662    -0.845478294285    12.000000000000
         C           -3.399494935031    -0.128805934662     0.513034705715    12.000000000000
         C           -2.160658935031     2.023417065338     1.006046705715    12.000000000000
         C           -2.390725935031    -1.931634934662    -0.742450294285    12.000000000000
         C           -3.484537935031    -1.400935934662    -0.057817294285    12.000000000000
         H            4.459020064969    -1.706260934662     0.092249705715     1.007825032230
         H            4.116928064969    -0.542725934662     1.369339705715     1.007825032230
         H            4.533748064969     0.678528065338    -0.740236294285     1.007825032230
         H            3.291687064969    -0.266378934662    -1.568287294285     1.007825032230
         H            2.029120064969    -2.153246934662    -0.190158294285     1.007825032230
         H            2.472670064969    -2.378630934662     1.506576705715     1.007825032230
         H            2.822799064969     1.671349065338     0.754252705715     1.007825032230
         H            2.313113064969     1.908621065338    -0.928954294285     1.007825032230
         H            0.307731964969    -1.058335134662     1.248402505715     1.007825032230
         H            1.629339064969    -0.121957934662     2.059733705715     1.007825032230
         H           -0.357251935031    -1.583479934662    -1.382949294285     1.007825032230
         H           -4.258443935031     0.279456065338     1.043172705715     1.007825032230
         H           -1.979405935031     2.768100065338     0.227266705715     1.007825032230
         H           -3.090935935031     2.269198065338     1.525307705715     1.007825032230
         H           -1.338551935031     2.100225065338     1.725796705715     1.007825032230
         H           -2.451786935031    -2.917603934662    -1.196984294285     1.007825032230
         H           -4.404000935031    -1.974698934662     0.032361705715     1.007825032230

  Basis Set: AUG-CC-PVTZ
    Blend: AUG-CC-PVTZ
  Basis Set: (AUG-CC-PVTZ AUX)
    Blend: AUG-CC-PVTZ-JKFIT
	 Reference Energy          =    -631.7281475285119541 [Eh]
	 Singles Energy            =      -0.0000000000000000 [Eh]
	 Same-Spin Energy          =      -0.6892544811006958 [Eh]
	 Opposite-Spin Energy      =      -2.2128643023374606 [Eh]
	 Correlation Energy        =      -2.9021187834381563 [Eh]
	 Total Energy              =    -634.6302663119500949 [Eh]

	 ================> DF-SCS-MP2 Energies <==================
	-----------------------------------------------------------
	 SCS Same-Spin Scale       =       0.3333333333333333 [-]
	 SCS Opposite-Spin Scale   =       1.2000000000000000 [-]
	 SCS Same-Spin Energy      =      -0.2297514937002319 [Eh]
	 SCS Opposite-Spin Energy  =      -2.6554371628049527 [Eh]
	 SCS Correlation Energy    =      -2.8851886565051847 [Eh]
	 SCS Total Energy          =    -634.6133361850171468 [Eh]
	-----------------------------------------------------------

  Dipole Moment: [D]
     X:     1.4178      Y:    -2.5113      Z:     2.2908     Total:     3.6830

*** Psi4 exiting successfully. Buy a developer a beer!
