                               Psi4 1.4a3.dev225

  ==> Input File <==

--------------------------------------------------------------------------
#psi4
#
memory 32 gb

molecule  {
0 1
  O        0.0109280     1.9504830    -1.2088660
  N        1.2104930     0.4628600     0.0596820
  C        3.6816010    -0.9509880     0.4072830
  C        3.5342200     0.1692850    -0.6230390
  C        2.3335540    -1.6180450     0.6838790
  C        2.4642000     1.1676880    -0.1911000
  C        1.2914730    -0.5760260     1.0805660
  C        0.0527250     0.9288280    -0.5097470
  C       -1.1808260     0.1020470    -0.2945890
  C       -2.2823960     0.6556420     0.3835130
  C       -1.2739141    -1.3536005    -0.9528081
  C       -3.4454200    -0.1153760     0.4879690
  C       -2.2065840     2.0368470     0.9809810
  C       -2.4366510    -1.9182050    -0.7675160
  C       -3.5304630    -1.3875060    -0.0828830
  H        4.4130950    -1.6928310     0.0671840
  H        4.0710030    -0.5292960     1.3442740
  H        4.4878230     0.6919580    -0.7653020
  H        3.2457620    -0.2529490    -1.5933530
  H        1.9831950    -2.1398170    -0.2152240
  H        2.4267450    -2.3652010     1.4815110
  H        2.7768740     1.6847790     0.7291870
  H        2.2671880     1.9220510    -0.9540200
  H        0.3069530    -1.0243470     1.2170770
  H        1.5834140    -0.1085280     2.0346680
  H       -0.4031770    -1.5700500    -1.4080150
  H       -4.3043690     0.2928860     1.0181070
  H       -2.0253310     2.7815300     0.2022010
  H       -3.1368610     2.2826280     1.5002420
  H       -1.3844770     2.1136550     1.7007310
  H       -2.4977120    -2.9041740    -1.2220500
  H       -4.4499260    -1.9612690     0.0072960
units angstrom
no_reorient  #important for SAPT in psi4, default
symmetry c1  #important for SAPT in psi4, default
}

set PROPERTIES_ORIGIN ["COM"]
properties('MP2/aug-cc-pvtz', properties = ['dipole'])
--------------------------------------------------------------------------

    Molecular point group: c1
  Charge       = 0
  Multiplicity = 1
  Basis Set: AUG-CC-PVTZ
    Blend: AUG-CC-PVTZ
  Basis Set: (AUG-CC-PVTZ AUX)
    Blend: AUG-CC-PVTZ-JKFIT

    Orbital Energies [Eh]
    ---------------------

    Doubly Occupied:

       1A    -20.509795     2A    -15.583263     3A    -11.348738
       4A    -11.266833     5A    -11.257202     6A    -11.254320
       7A    -11.250338     8A    -11.248053     9A    -11.243580
      10A    -11.241690    11A    -11.233160    12A    -11.230849
      13A    -11.228386    14A    -11.225681    15A    -11.219866
      16A     -1.365739    17A     -1.248881    18A     -1.154646
      19A     -1.083432    20A     -1.061824    21A     -1.033929
      22A     -1.013534    23A     -0.948216    24A     -0.914615
      25A     -0.869448    26A     -0.851282    27A     -0.815359
      28A     -0.787712    29A     -0.739913    30A     -0.707597
      31A     -0.684892    32A     -0.652138    33A     -0.650637
      34A     -0.630082    35A     -0.619181    36A     -0.612678
      37A     -0.593977    38A     -0.587889    39A     -0.576928
      40A     -0.570078    41A     -0.559600    42A     -0.549725
      43A     -0.542452    44A     -0.524006    45A     -0.513886
      46A     -0.501343    47A     -0.490061    48A     -0.481668
      49A     -0.470561    50A     -0.463127    51A     -0.461390
      52A     -0.412392    53A     -0.365848    54A     -0.351701
      55A     -0.317441

  @DF-RHF Final Energy:  -631.68897183863942

   => Energetics <=

    Nuclear Repulsion Energy =            996.7865161869324311
    One-Electron Energy =               -2836.7078495311047845
    Two-Electron Energy =                1208.2323615055329356
    Total Energy =                       -631.6889718386394179
  Basis Set: (AUG-CC-PVTZ AUX)
    Blend: AUG-CC-PVTZ-RI
    Molecular point group: c1

    Geometry (in Angstrom), charge = 0, multiplicity = 1:

       Center              X                  Y                   Z               Mass
    ------------   -----------------  -----------------  -----------------  -----------------
         O            0.057316361185     1.947698406426    -1.178909470562    15.994914619570
         N            1.256881361185     0.460075406426     0.089638529438    14.003074004430
         C            3.727989361185    -0.953772593574     0.437239529438    12.000000000000
         C            3.580608361185     0.166500406426    -0.593082470562    12.000000000000
         C            2.379942361185    -1.620829593574     0.713835529438    12.000000000000
         C            2.510588361185     1.164903406426    -0.161143470562    12.000000000000
         C            1.337861361185    -0.578810593574     1.110522529438    12.000000000000
         C            0.099113361185     0.926043406426    -0.479790470562    12.000000000000
         C           -1.134437638815     0.099262406426    -0.264632470562    12.000000000000
         C           -2.236007638815     0.652857406426     0.413469529438    12.000000000000
         C           -1.227525738815    -1.356385093574    -0.922851570562    12.000000000000
         C           -3.399031638815    -0.118160593574     0.517925529438    12.000000000000
         C           -2.160195638815     2.034062406426     1.010937529438    12.000000000000
         C           -2.390262638815    -1.920989593574    -0.737559470562    12.000000000000
         C           -3.484074638815    -1.390290593574    -0.052926470562    12.000000000000
         H            4.459483361185    -1.695615593574     0.097140529438     1.007825032230
         H            4.117391361185    -0.532080593574     1.374230529438     1.007825032230
         H            4.534211361185     0.689173406426    -0.735345470562     1.007825032230
         H            3.292150361185    -0.255733593574    -1.563396470562     1.007825032230
         H            2.029583361185    -2.142601593574    -0.185267470562     1.007825032230
         H            2.473133361185    -2.367985593574     1.511467529438     1.007825032230
         H            2.823262361185     1.681994406426     0.759143529438     1.007825032230
         H            2.313576361185     1.919266406426    -0.924063470562     1.007825032230
         H            0.353341361185    -1.027131593574     1.247033529438     1.007825032230
         H            1.629802361185    -0.111312593574     2.064624529438     1.007825032230
         H           -0.356788638815    -1.572834593574    -1.378058470562     1.007825032230
         H           -4.257980638815     0.290101406426     1.048063529438     1.007825032230
         H           -1.978942638815     2.778745406426     0.232157529438     1.007825032230
         H           -3.090472638815     2.279843406426     1.530198529438     1.007825032230
         H           -1.338088638815     2.110870406426     1.730687529438     1.007825032230
         H           -2.451323638815    -2.906958593574    -1.192093470562     1.007825032230
         H           -4.403537638815    -1.964053593574     0.037252529438     1.007825032230

  Basis Set: AUG-CC-PVTZ
    Blend: AUG-CC-PVTZ
  Basis Set: (AUG-CC-PVTZ AUX)
    Blend: AUG-CC-PVTZ-JKFIT
	 Reference Energy          =    -631.6889718386394179 [Eh]
	 Singles Energy            =      -0.0000000000000000 [Eh]
	 Same-Spin Energy          =      -0.6889672069430104 [Eh]
	 Opposite-Spin Energy      =      -2.2149781998822173 [Eh]
	 Correlation Energy        =      -2.9039454068252279 [Eh]
	 Total Energy              =    -634.5929172454646050 [Eh]

	 ================> DF-SCS-MP2 Energies <==================
	-----------------------------------------------------------
	 SCS Same-Spin Scale       =       0.3333333333333333 [-]
	 SCS Opposite-Spin Scale   =       1.2000000000000000 [-]
	 SCS Same-Spin Energy      =      -0.2296557356476701 [Eh]
	 SCS Opposite-Spin Energy  =      -2.6579738398586605 [Eh]
	 SCS Correlation Energy    =      -2.8876295755063306 [Eh]
	 SCS Total Energy          =    -634.5766014141457845 [Eh]
	-----------------------------------------------------------

  Dipole Moment: [D]
     X:     1.3922      Y:    -2.5109      Z:     2.3087     Total:     3.6841

*** Psi4 exiting successfully. Buy a developer a beer!
