                               Psi4 1.4a3.dev225

  ==> Input File <==

--------------------------------------------------------------------------
#psi4
#
memory 32 gb

molecule  {
0 1
  O        0.0109280     1.9504830    -1.2088660
  N        1.2104930     0.4628600     0.0596820
  C        3.6816010    -0.9509880     0.4072830
  C        3.5342200     0.1692850    -0.6230390
  C        2.3335540    -1.6180450     0.6838790
  C        2.4642000     1.1676880    -0.1911000
  C        1.2914730    -0.5760260     1.0805660
  C        0.0527250     0.9288280    -0.5097470
  C       -1.1808260     0.1020470    -0.2945890
  C       -2.3311367     0.6510086     0.4027239
  C       -1.2622800    -1.1716740    -0.8705440
  C       -3.4454200    -0.1153760     0.4879690
  C       -2.2065840     2.0368470     0.9809810
  C       -2.4366510    -1.9182050    -0.7675160
  C       -3.5304630    -1.3875060    -0.0828830
  H        4.4130950    -1.6928310     0.0671840
  H        4.0710030    -0.5292960     1.3442740
  H        4.4878230     0.6919580    -0.7653020
  H        3.2457620    -0.2529490    -1.5933530
  H        1.9831950    -2.1398170    -0.2152240
  H        2.4267450    -2.3652010     1.4815110
  H        2.7768740     1.6847790     0.7291870
  H        2.2671880     1.9220510    -0.9540200
  H        0.3069530    -1.0243470     1.2170770
  H        1.5834140    -0.1085280     2.0346680
  H       -0.4031770    -1.5700500    -1.4080150
  H       -4.3043690     0.2928860     1.0181070
  H       -2.0253310     2.7815300     0.2022010
  H       -3.1368610     2.2826280     1.5002420
  H       -1.3844770     2.1136550     1.7007310
  H       -2.4977120    -2.9041740    -1.2220500
  H       -4.4499260    -1.9612690     0.0072960
units angstrom
no_reorient  #important for SAPT in psi4, default
symmetry c1  #important for SAPT in psi4, default
}

set PROPERTIES_ORIGIN ["COM"]
properties('MP2/aug-cc-pvtz', properties = ['dipole'])
--------------------------------------------------------------------------

    Molecular point group: c1
  Charge       = 0
  Multiplicity = 1
  Basis Set: AUG-CC-PVTZ
    Blend: AUG-CC-PVTZ
  Basis Set: (AUG-CC-PVTZ AUX)
    Blend: AUG-CC-PVTZ-JKFIT

    Orbital Energies [Eh]
    ---------------------

    Doubly Occupied:

       1A    -20.510886     2A    -15.584136     3A    -11.350260
       4A    -11.266890     5A    -11.254768     6A    -11.251431
       7A    -11.249596     8A    -11.245679     9A    -11.243009
      10A    -11.239236    11A    -11.231958    12A    -11.230628
      13A    -11.228341    14A    -11.225738    15A    -11.220381
      16A     -1.367024    17A     -1.249688    18A     -1.161220
      19A     -1.083729    20A     -1.050668    21A     -1.038291
      22A     -1.023160    23A     -0.943944    24A     -0.918879
      25A     -0.868269    26A     -0.845621    27A     -0.809977
      28A     -0.792640    29A     -0.743140    30A     -0.712492
      31A     -0.666997    32A     -0.652098    33A     -0.648579
      34A     -0.627850    35A     -0.620120    36A     -0.615085
      37A     -0.595856    38A     -0.587953    39A     -0.578305
      40A     -0.571867    41A     -0.559595    42A     -0.547103
      43A     -0.541461    44A     -0.524346    45A     -0.513769
      46A     -0.502477    47A     -0.491068    48A     -0.482880
      49A     -0.477136    50A     -0.469638    51A     -0.461629
      52A     -0.417887    53A     -0.366304    54A     -0.344685
      55A     -0.326415

  @DF-RHF Final Energy:  -631.72718854063464

   => Energetics <=

    Nuclear Repulsion Energy =            999.4215812918531583
    One-Electron Energy =               -2842.0319710808503260
    Two-Electron Energy =                1210.8832012483624112
    Total Energy =                       -631.7271885406346428
  Basis Set: (AUG-CC-PVTZ AUX)
    Blend: AUG-CC-PVTZ-RI
    Molecular point group: c1

    Geometry (in Angstrom), charge = 0, multiplicity = 1:

       Center              X                  Y                   Z               Mass
    ------------   -----------------  -----------------  -----------------  -----------------
         O            0.059508440036     1.937224785701    -1.184904123840    15.994914619570
         N            1.259073440036     0.449601785701     0.083643876160    14.003074004430
         C            3.730181440036    -0.964246214299     0.431244876160    12.000000000000
         C            3.582800440036     0.156026785701    -0.599077123840    12.000000000000
         C            2.382134440036    -1.631303214299     0.707840876160    12.000000000000
         C            2.512780440036     1.154429785701    -0.167138123840    12.000000000000
         C            1.340053440036    -0.589284214299     1.104527876160    12.000000000000
         C            0.101305440036     0.915569785701    -0.485785123840    12.000000000000
         C           -1.132245559964     0.088788785701    -0.270627123840    12.000000000000
         C           -2.282556259964     0.637750385701     0.426685776160    12.000000000000
         C           -1.213699559964    -1.184932214299    -0.846582123840    12.000000000000
         C           -3.396839559964    -0.128634214299     0.511930876160    12.000000000000
         C           -2.158003559964     2.023588785701     1.004942876160    12.000000000000
         C           -2.388070559964    -1.931463214299    -0.743554123840    12.000000000000
         C           -3.481882559964    -1.400764214299    -0.058921123840    12.000000000000
         H            4.461675440036    -1.706089214299     0.091145876160     1.007825032230
         H            4.119583440036    -0.542554214299     1.368235876160     1.007825032230
         H            4.536403440036     0.678699785701    -0.741340123840     1.007825032230
         H            3.294342440036    -0.266207214299    -1.569391123840     1.007825032230
         H            2.031775440036    -2.153075214299    -0.191262123840     1.007825032230
         H            2.475325440036    -2.378459214299     1.505472876160     1.007825032230
         H            2.825454440036     1.671520785701     0.753148876160     1.007825032230
         H            2.315768440036     1.908792785701    -0.930058123840     1.007825032230
         H            0.355533440036    -1.037605214299     1.241038876160     1.007825032230
         H            1.631994440036    -0.121786214299     2.058629876160     1.007825032230
         H           -0.354596559964    -1.583308214299    -1.384053123840     1.007825032230
         H           -4.255788559964     0.279627785701     1.042068876160     1.007825032230
         H           -1.976750559964     2.768271785701     0.226162876160     1.007825032230
         H           -3.088280559964     2.269369785701     1.524203876160     1.007825032230
         H           -1.335896559964     2.100396785701     1.724692876160     1.007825032230
         H           -2.449131559964    -2.917432214299    -1.198088123840     1.007825032230
         H           -4.401345559964    -1.974527214299     0.031257876160     1.007825032230

  Basis Set: AUG-CC-PVTZ
    Blend: AUG-CC-PVTZ
  Basis Set: (AUG-CC-PVTZ AUX)
    Blend: AUG-CC-PVTZ-JKFIT
	 Reference Energy          =    -631.7271885406346428 [Eh]
	 Singles Energy            =      -0.0000000000000000 [Eh]
	 Same-Spin Energy          =      -0.6889559650177138 [Eh]
	 Opposite-Spin Energy      =      -2.2124644910986859 [Eh]
	 Correlation Energy        =      -2.9014204561163996 [Eh]
	 Total Energy              =    -634.6286089967510406 [Eh]

	 ================> DF-SCS-MP2 Energies <==================
	-----------------------------------------------------------
	 SCS Same-Spin Scale       =       0.3333333333333333 [-]
	 SCS Opposite-Spin Scale   =       1.2000000000000000 [-]
	 SCS Same-Spin Energy      =      -0.2296519883392379 [Eh]
	 SCS Opposite-Spin Energy  =      -2.6549573893184228 [Eh]
	 SCS Correlation Energy    =      -2.8846093776576609 [Eh]
	 SCS Total Energy          =    -634.6117979182922682 [Eh]
	-----------------------------------------------------------

  Dipole Moment: [D]
     X:     1.4256      Y:    -2.5219      Z:     2.2962     Total:     3.6966

*** Psi4 exiting successfully. Buy a developer a beer!
