                               Psi4 1.4a3.dev225

  ==> Input File <==

--------------------------------------------------------------------------
#psi4
#
memory 32 gb

molecule  {
0 1
  O        0.0109280     1.9504830    -1.2088660
  N        1.2104930     0.4628600     0.0596820
  C        3.6816010    -0.9509880     0.4072830
  C        3.5342200     0.1692850    -0.6230390
  C        2.3335540    -1.6180450     0.6838790
  C        2.4642000     1.1676880    -0.1911000
  C        1.2914730    -0.5760260     1.0805660
  C        0.0527250     0.9288280    -0.5097470
  C       -1.1808260     0.1020470    -0.2945890
  C       -2.2823960     0.6556420     0.3835130
  C       -1.2622800    -1.1716740    -0.8705440
  C       -3.4454200    -0.1153760     0.4879690
  C       -2.2065840     2.0368470     0.9809810
  C       -2.4366510    -1.9182050    -0.7675160
  C       -3.5274191    -1.3419730    -0.0624507
  H        4.4130950    -1.6928310     0.0671840
  H        4.0710030    -0.5292960     1.3442740
  H        4.4878230     0.6919580    -0.7653020
  H        3.2457620    -0.2529490    -1.5933530
  H        1.9831950    -2.1398170    -0.2152240
  H        2.4267450    -2.3652010     1.4815110
  H        2.7768740     1.6847790     0.7291870
  H        2.2671880     1.9220510    -0.9540200
  H        0.3069530    -1.0243470     1.2170770
  H        1.5834140    -0.1085280     2.0346680
  H       -0.4031770    -1.5700500    -1.4080150
  H       -4.3043690     0.2928860     1.0181070
  H       -2.0253310     2.7815300     0.2022010
  H       -3.1368610     2.2826280     1.5002420
  H       -1.3844770     2.1136550     1.7007310
  H       -2.4977120    -2.9041740    -1.2220500
  H       -4.4499260    -1.9612690     0.0072960
units angstrom
no_reorient  #important for SAPT in psi4, default
symmetry c1  #important for SAPT in psi4, default
}

set PROPERTIES_ORIGIN ["COM"]
properties('MP2/aug-cc-pvtz', properties = ['dipole'])
--------------------------------------------------------------------------

    Molecular point group: c1
  Charge       = 0
  Multiplicity = 1
  Basis Set: AUG-CC-PVTZ
    Blend: AUG-CC-PVTZ
  Basis Set: (AUG-CC-PVTZ AUX)
    Blend: AUG-CC-PVTZ-JKFIT

    Orbital Energies [Eh]
    ---------------------

    Doubly Occupied:

       1A    -20.510536     2A    -15.583688     3A    -11.349151
       4A    -11.267063     5A    -11.254516     6A    -11.252478
       7A    -11.245875     8A    -11.243990     9A    -11.242071
      10A    -11.240905    11A    -11.231663    12A    -11.230563
      13A    -11.228254    14A    -11.225589    15A    -11.220561
      16A     -1.366744    17A     -1.249424    18A     -1.163925
      19A     -1.083689    20A     -1.048236    21A     -1.039998
      22A     -1.025583    23A     -0.945332    24A     -0.917642
      25A     -0.866644    26A     -0.841077    27A     -0.816809
      28A     -0.791563    29A     -0.742679    30A     -0.712786
      31A     -0.664601    32A     -0.652527    33A     -0.648193
      34A     -0.627504    35A     -0.621252    36A     -0.615724
      37A     -0.597047    38A     -0.588033    39A     -0.578195
      40A     -0.572301    41A     -0.558770    42A     -0.545851
      43A     -0.540713    44A     -0.524704    45A     -0.505867
      46A     -0.502991    47A     -0.491823    48A     -0.488735
      49A     -0.478781    50A     -0.469570    51A     -0.461521
      52A     -0.416689    53A     -0.366116    54A     -0.346465
      55A     -0.325883

  @DF-RHF Final Energy:  -631.72766302541322

   => Energetics <=

    Nuclear Repulsion Energy =           1000.5644387490937106
    One-Electron Energy =               -2844.3264212644462532
    Two-Electron Energy =                1212.0343194899392074
    Total Energy =                       -631.7276630254132215
  Basis Set: (AUG-CC-PVTZ AUX)
    Blend: AUG-CC-PVTZ-RI
    Molecular point group: c1

    Geometry (in Angstrom), charge = 0, multiplicity = 1:

       Center              X                  Y                   Z               Mass
    ------------   -----------------  -----------------  -----------------  -----------------
         O            0.056449255782     1.934261196894    -1.184976278257    15.994914619570
         N            1.256014255782     0.446638196894     0.083571721743    14.003074004430
         C            3.727122255782    -0.967209803106     0.431172721743    12.000000000000
         C            3.579741255782     0.153063196894    -0.599149278257    12.000000000000
         C            2.379075255782    -1.634266803106     0.707768721743    12.000000000000
         C            2.509721255782     1.151466196894    -0.167210278257    12.000000000000
         C            1.336994255782    -0.592247803106     1.104455721743    12.000000000000
         C            0.098246255782     0.912606196894    -0.485857278257    12.000000000000
         C           -1.135304744218     0.085825196894    -0.270699278257    12.000000000000
         C           -2.236874744218     0.639420196894     0.407402721743    12.000000000000
         C           -1.216758744218    -1.187895803106    -0.846654278257    12.000000000000
         C           -3.399898744218    -0.131597803106     0.511858721743    12.000000000000
         C           -2.161062744218     2.020625196894     1.004870721743    12.000000000000
         C           -2.391129744218    -1.934426803106    -0.743626278257    12.000000000000
         C           -3.481897844218    -1.358194803106    -0.038560978257    12.000000000000
         H            4.458616255782    -1.709052803106     0.091073721743     1.007825032230
         H            4.116524255782    -0.545517803106     1.368163721743     1.007825032230
         H            4.533344255782     0.675736196894    -0.741412278257     1.007825032230
         H            3.291283255782    -0.269170803106    -1.569463278257     1.007825032230
         H            2.028716255782    -2.156038803106    -0.191334278257     1.007825032230
         H            2.472266255782    -2.381422803106     1.505400721743     1.007825032230
         H            2.822395255782     1.668557196894     0.753076721743     1.007825032230
         H            2.312709255782     1.905829196894    -0.930130278257     1.007825032230
         H            0.352474255782    -1.040568803106     1.240966721743     1.007825032230
         H            1.628935255782    -0.124749803106     2.058557721743     1.007825032230
         H           -0.357655744218    -1.586271803106    -1.384125278257     1.007825032230
         H           -4.258847744218     0.276664196894     1.041996721743     1.007825032230
         H           -1.979809744218     2.765308196894     0.226090721743     1.007825032230
         H           -3.091339744218     2.266406196894     1.524131721743     1.007825032230
         H           -1.338955744218     2.097433196894     1.724620721743     1.007825032230
         H           -2.452190744218    -2.920395803106    -1.198160278257     1.007825032230
         H           -4.404404744218    -1.977490803106     0.031185721743     1.007825032230

  Basis Set: AUG-CC-PVTZ
    Blend: AUG-CC-PVTZ
  Basis Set: (AUG-CC-PVTZ AUX)
    Blend: AUG-CC-PVTZ-JKFIT
	 Reference Energy          =    -631.7276630254132215 [Eh]
	 Singles Energy            =      -0.0000000000000000 [Eh]
	 Same-Spin Energy          =      -0.6890051730624912 [Eh]
	 Opposite-Spin Energy      =      -2.2122534928936597 [Eh]
	 Correlation Energy        =      -2.9012586659561510 [Eh]
	 Total Energy              =    -634.6289216913693281 [Eh]

	 ================> DF-SCS-MP2 Energies <==================
	-----------------------------------------------------------
	 SCS Same-Spin Scale       =       0.3333333333333333 [-]
	 SCS Opposite-Spin Scale   =       1.2000000000000000 [-]
	 SCS Same-Spin Energy      =      -0.2296683910208304 [Eh]
	 SCS Opposite-Spin Energy  =      -2.6547041914723915 [Eh]
	 SCS Correlation Energy    =      -2.8843725824932220 [Eh]
	 SCS Total Energy          =    -634.6120356079064777 [Eh]
	-----------------------------------------------------------

  Dipole Moment: [D]
     X:     1.4114      Y:    -2.5214      Z:     2.2992     Total:     3.6927

*** Psi4 exiting successfully. Buy a developer a beer!
