                               Psi4 1.4a3.dev225

  ==> Input File <==

--------------------------------------------------------------------------
#psi4
#
memory 32 gb

molecule  {
0 1
  O        0.0109280     1.9504830    -1.2088660
  N        1.2104930     0.4628600     0.0596820
  C        3.6816010    -0.9509880     0.4072830
  C        3.5342200     0.1692850    -0.6230390
  C        2.3335540    -1.6180450     0.6838790
  C        2.4642000     1.1676880    -0.1911000
  C        1.3256141    -0.6101651     1.0675696
  C        0.0527250     0.9288280    -0.5097470
  C       -1.1808260     0.1020470    -0.2945890
  C       -2.2823960     0.6556420     0.3835130
  C       -1.2622800    -1.1716740    -0.8705440
  C       -3.4454200    -0.1153760     0.4879690
  C       -2.2065840     2.0368470     0.9809810
  C       -2.4366510    -1.9182050    -0.7675160
  C       -3.5304630    -1.3875060    -0.0828830
  H        4.4130950    -1.6928310     0.0671840
  H        4.0710030    -0.5292960     1.3442740
  H        4.4878230     0.6919580    -0.7653020
  H        3.2457620    -0.2529490    -1.5933530
  H        1.9831950    -2.1398170    -0.2152240
  H        2.4267450    -2.3652010     1.4815110
  H        2.7768740     1.6847790     0.7291870
  H        2.2671880     1.9220510    -0.9540200
  H        0.3069530    -1.0243470     1.2170770
  H        1.5834140    -0.1085280     2.0346680
  H       -0.4031770    -1.5700500    -1.4080150
  H       -4.3043690     0.2928860     1.0181070
  H       -2.0253310     2.7815300     0.2022010
  H       -3.1368610     2.2826280     1.5002420
  H       -1.3844770     2.1136550     1.7007310
  H       -2.4977120    -2.9041740    -1.2220500
  H       -4.4499260    -1.9612690     0.0072960
units angstrom
no_reorient  #important for SAPT in psi4, default
symmetry c1  #important for SAPT in psi4, default
}

set PROPERTIES_ORIGIN ["COM"]
properties('MP2/aug-cc-pvtz', properties = ['dipole'])
--------------------------------------------------------------------------

    Molecular point group: c1
  Charge       = 0
  Multiplicity = 1
  Basis Set: AUG-CC-PVTZ
    Blend: AUG-CC-PVTZ
  Basis Set: (AUG-CC-PVTZ AUX)
    Blend: AUG-CC-PVTZ-JKFIT

    Orbital Energies [Eh]
    ---------------------

    Doubly Occupied:

       1A    -20.510120     2A    -15.583430     3A    -11.349363
       4A    -11.269714     5A    -11.253687     6A    -11.251608
       7A    -11.246155     8A    -11.244763     9A    -11.242450
      10A    -11.238926    11A    -11.236749    12A    -11.229833
      13A    -11.228987    14A    -11.225949    15A    -11.220045
      16A     -1.366117    17A     -1.246936    18A     -1.161194
      19A     -1.087479    20A     -1.050750    21A     -1.039920
      22A     -1.024127    23A     -0.942999    24A     -0.918911
      25A     -0.865167    26A     -0.844455    27A     -0.815544
      28A     -0.791777    29A     -0.741300    30A     -0.711323
      31A     -0.666656    32A     -0.652045    33A     -0.648315
      34A     -0.627167    35A     -0.620309    36A     -0.615570
      37A     -0.596987    38A     -0.588103    39A     -0.575361
      40A     -0.571752    41A     -0.558233    42A     -0.551635
      43A     -0.541311    44A     -0.524891    45A     -0.509486
      46A     -0.500982    47A     -0.490996    48A     -0.489372
      49A     -0.479686    50A     -0.468859    51A     -0.458910
      52A     -0.416346    53A     -0.367398    54A     -0.339683
      55A     -0.329742

  @DF-RHF Final Energy:  -631.72745802596125

   => Energetics <=

    Nuclear Repulsion Energy =            999.9635984532112616
    One-Electron Energy =               -2843.1229634841211009
    Two-Electron Energy =                1211.4319070049486982
    Total Energy =                       -631.7274580259611412
  Basis Set: (AUG-CC-PVTZ AUX)
    Blend: AUG-CC-PVTZ-RI
    Molecular point group: c1

    Geometry (in Angstrom), charge = 0, multiplicity = 1:

       Center              X                  Y                   Z               Mass
    ------------   -----------------  -----------------  -----------------  -----------------
         O            0.054612183282     1.938967840061    -1.183001471989    15.994914619570
         N            1.254177183282     0.451344840061     0.085546528011    14.003074004430
         C            3.725285183282    -0.962503159939     0.433147528011    12.000000000000
         C            3.577904183282     0.157769840061    -0.597174471989    12.000000000000
         C            2.377238183282    -1.629560159939     0.709743528011    12.000000000000
         C            2.507884183282     1.156172840061    -0.165235471989    12.000000000000
         C            1.369298283282    -0.621680259939     1.093434128011    12.000000000000
         C            0.096409183282     0.917312840061    -0.483882471989    12.000000000000
         C           -1.137141816718     0.090531840061    -0.268724471989    12.000000000000
         C           -2.238711816718     0.644126840061     0.409377528011    12.000000000000
         C           -1.218595816718    -1.183189159939    -0.844679471989    12.000000000000
         C           -3.401735816718    -0.126891159939     0.513833528011    12.000000000000
         C           -2.162899816718     2.025331840061     1.006845528011    12.000000000000
         C           -2.392966816718    -1.929720159939    -0.741651471989    12.000000000000
         C           -3.486778816718    -1.399021159939    -0.057018471989    12.000000000000
         H            4.456779183282    -1.704346159939     0.093048528011     1.007825032230
         H            4.114687183282    -0.540811159939     1.370138528011     1.007825032230
         H            4.531507183282     0.680442840061    -0.739437471989     1.007825032230
         H            3.289446183282    -0.264464159939    -1.567488471989     1.007825032230
         H            2.026879183282    -2.151332159939    -0.189359471989     1.007825032230
         H            2.470429183282    -2.376716159939     1.507375528011     1.007825032230
         H            2.820558183282     1.673263840061     0.755051528011     1.007825032230
         H            2.310872183282     1.910535840061    -0.928155471989     1.007825032230
         H            0.350637183282    -1.035862159939     1.242941528011     1.007825032230
         H            1.627098183282    -0.120043159939     2.060532528011     1.007825032230
         H           -0.359492816718    -1.581565159939    -1.382150471989     1.007825032230
         H           -4.260684816718     0.281370840061     1.043971528011     1.007825032230
         H           -1.981646816718     2.770014840061     0.228065528011     1.007825032230
         H           -3.093176816718     2.271112840061     1.526106528011     1.007825032230
         H           -1.340792816718     2.102139840061     1.726595528011     1.007825032230
         H           -2.454027816718    -2.915689159939    -1.196185471989     1.007825032230
         H           -4.406241816718    -1.972784159939     0.033160528011     1.007825032230

  Basis Set: AUG-CC-PVTZ
    Blend: AUG-CC-PVTZ
  Basis Set: (AUG-CC-PVTZ AUX)
    Blend: AUG-CC-PVTZ-JKFIT
	 Reference Energy          =    -631.7274580259612549 [Eh]
	 Singles Energy            =      -0.0000000000000000 [Eh]
	 Same-Spin Energy          =      -0.6894352956725364 [Eh]
	 Opposite-Spin Energy      =      -2.2127891592284872 [Eh]
	 Correlation Energy        =      -2.9022244549010234 [Eh]
	 Total Energy              =    -634.6296824808622432 [Eh]

	 ================> DF-SCS-MP2 Energies <==================
	-----------------------------------------------------------
	 SCS Same-Spin Scale       =       0.3333333333333333 [-]
	 SCS Opposite-Spin Scale   =       1.2000000000000000 [-]
	 SCS Same-Spin Energy      =      -0.2298117652241788 [Eh]
	 SCS Opposite-Spin Energy  =      -2.6553469910741847 [Eh]
	 SCS Correlation Energy    =      -2.8851587562983636 [Eh]
	 SCS Total Energy          =    -634.6126167822595789 [Eh]
	-----------------------------------------------------------

  Dipole Moment: [D]
     X:     1.4562      Y:    -2.5915      Z:     2.3110     Total:     3.7652

*** Psi4 exiting successfully. Buy a developer a beer!
