                               Psi4 1.4a3.dev225

  ==> Input File <==

--------------------------------------------------------------------------
#psi4
#
memory 32 gb

molecule  {
0 1
  O        0.0109280     1.9504830    -1.2088660
  N        1.2335900     0.5007650     0.0417258
  C        3.6816010    -0.9509880     0.4072830
  C        3.5342200     0.1692850    -0.6230390
  C        2.3335540    -1.6180450     0.6838790
  C        2.4642000     1.1676880    -0.1911000
  C        1.2914730    -0.5760260     1.0805660
  C        0.0527250     0.9288280    -0.5097470
  C       -1.1808260     0.1020470    -0.2945890
  C       -2.2823960     0.6556420     0.3835130
  C       -1.2622800    -1.1716740    -0.8705440
  C       -3.4454200    -0.1153760     0.4879690
  C       -2.2065840     2.0368470     0.9809810
  C       -2.4366510    -1.9182050    -0.7675160
  C       -3.5304630    -1.3875060    -0.0828830
  H        4.4130950    -1.6928310     0.0671840
  H        4.0710030    -0.5292960     1.3442740
  H        4.4878230     0.6919580    -0.7653020
  H        3.2457620    -0.2529490    -1.5933530
  H        1.9831950    -2.1398170    -0.2152240
  H        2.4267450    -2.3652010     1.4815110
  H        2.7768740     1.6847790     0.7291870
  H        2.2671880     1.9220510    -0.9540200
  H        0.3069530    -1.0243470     1.2170770
  H        1.5834140    -0.1085280     2.0346680
  H       -0.4031770    -1.5700500    -1.4080150
  H       -4.3043690     0.2928860     1.0181070
  H       -2.0253310     2.7815300     0.2022010
  H       -3.1368610     2.2826280     1.5002420
  H       -1.3844770     2.1136550     1.7007310
  H       -2.4977120    -2.9041740    -1.2220500
  H       -4.4499260    -1.9612690     0.0072960
units angstrom
no_reorient  #important for SAPT in psi4, default
symmetry c1  #important for SAPT in psi4, default
}

set PROPERTIES_ORIGIN ["COM"]
properties('MP2/aug-cc-pvtz', properties = ['dipole'])
--------------------------------------------------------------------------

    Molecular point group: c1
  Charge       = 0
  Multiplicity = 1
  Basis Set: AUG-CC-PVTZ
    Blend: AUG-CC-PVTZ
  Basis Set: (AUG-CC-PVTZ AUX)
    Blend: AUG-CC-PVTZ-JKFIT

    Orbital Energies [Eh]
    ---------------------

    Doubly Occupied:

       1A    -20.508568     2A    -15.582776     3A    -11.348650
       4A    -11.269420     5A    -11.252883     6A    -11.250895
       7A    -11.247719     8A    -11.246491     9A    -11.243479
      10A    -11.239863    11A    -11.237706    12A    -11.231316
      13A    -11.228129    14A    -11.224614    15A    -11.220686
      16A     -1.367106    17A     -1.248138    18A     -1.162413
      19A     -1.082857    20A     -1.051781    21A     -1.039644
      22A     -1.021880    23A     -0.943359    24A     -0.918595
      25A     -0.868932    26A     -0.843288    27A     -0.815316
      28A     -0.791977    29A     -0.741719    30A     -0.713506
      31A     -0.667063    32A     -0.652788    33A     -0.646633
      34A     -0.630345    35A     -0.620189    36A     -0.615613
      37A     -0.596880    38A     -0.588809    39A     -0.576387
      40A     -0.572506    41A     -0.558613    42A     -0.547149
      43A     -0.541021    44A     -0.525427    45A     -0.508044
      46A     -0.501704    47A     -0.492425    48A     -0.489719
      49A     -0.478310    50A     -0.470683    51A     -0.458620
      52A     -0.417473    53A     -0.363981    54A     -0.340728
      55A     -0.330782

  @DF-RHF Final Energy:  -631.72850837628891

   => Energetics <=

    Nuclear Repulsion Energy =            999.7799970571724089
    One-Electron Energy =               -2842.7458086473266121
    Two-Electron Energy =                1211.2373032138655162
    Total Energy =                       -631.7285083762888007
  Basis Set: (AUG-CC-PVTZ AUX)
    Blend: AUG-CC-PVTZ-RI
    Molecular point group: c1

    Geometry (in Angstrom), charge = 0, multiplicity = 1:

       Center              X                  Y                   Z               Mass
    ------------   -----------------  -----------------  -----------------  -----------------
         O            0.055036855999     1.934338041289    -1.182531404935    15.994914619570
         N            1.277698855999     0.484620041289     0.068060395065    14.003074004430
         C            3.725709855999    -0.967132958711     0.433617595065    12.000000000000
         C            3.578328855999     0.153140041289    -0.596704404935    12.000000000000
         C            2.377662855999    -1.634189958711     0.710213595065    12.000000000000
         C            2.508308855999     1.151543041289    -0.164765404935    12.000000000000
         C            1.335581855999    -0.592170958711     1.106900595065    12.000000000000
         C            0.096833855999     0.912683041289    -0.483412404935    12.000000000000
         C           -1.136717144001     0.085902041289    -0.268254404935    12.000000000000
         C           -2.238287144001     0.639497041289     0.409847595065    12.000000000000
         C           -1.218171144001    -1.187818958711    -0.844209404935    12.000000000000
         C           -3.401311144001    -0.131520958711     0.514303595065    12.000000000000
         C           -2.162475144001     2.020702041289     1.007315595065    12.000000000000
         C           -2.392542144001    -1.934349958711    -0.741181404935    12.000000000000
         C           -3.486354144001    -1.403650958711    -0.056548404935    12.000000000000
         H            4.457203855999    -1.708975958711     0.093518595065     1.007825032230
         H            4.115111855999    -0.545440958711     1.370608595065     1.007825032230
         H            4.531931855999     0.675813041289    -0.738967404935     1.007825032230
         H            3.289870855999    -0.269093958711    -1.567018404935     1.007825032230
         H            2.027303855999    -2.155961958711    -0.188889404935     1.007825032230
         H            2.470853855999    -2.381345958711     1.507845595065     1.007825032230
         H            2.820982855999     1.668634041289     0.755521595065     1.007825032230
         H            2.311296855999     1.905906041289    -0.927685404935     1.007825032230
         H            0.351061855999    -1.040491958711     1.243411595065     1.007825032230
         H            1.627522855999    -0.124672958711     2.061002595065     1.007825032230
         H           -0.359068144001    -1.586194958711    -1.381680404935     1.007825032230
         H           -4.260260144001     0.276741041289     1.044441595065     1.007825032230
         H           -1.981222144001     2.765385041289     0.228535595065     1.007825032230
         H           -3.092752144001     2.266483041289     1.526576595065     1.007825032230
         H           -1.340368144001     2.097510041289     1.727065595065     1.007825032230
         H           -2.453603144001    -2.920318958711    -1.195715404935     1.007825032230
         H           -4.405817144001    -1.977413958711     0.033630595065     1.007825032230

  Basis Set: AUG-CC-PVTZ
    Blend: AUG-CC-PVTZ
  Basis Set: (AUG-CC-PVTZ AUX)
    Blend: AUG-CC-PVTZ-JKFIT
	 Reference Energy          =    -631.7285083762889144 [Eh]
	 Singles Energy            =      -0.0000000000000000 [Eh]
	 Same-Spin Energy          =      -0.6889864087691033 [Eh]
	 Opposite-Spin Energy      =      -2.2122098738178009 [Eh]
	 Correlation Energy        =      -2.9011962825869042 [Eh]
	 Total Energy              =    -634.6297046588757667 [Eh]

	 ================> DF-SCS-MP2 Energies <==================
	-----------------------------------------------------------
	 SCS Same-Spin Scale       =       0.3333333333333333 [-]
	 SCS Opposite-Spin Scale   =       1.2000000000000000 [-]
	 SCS Same-Spin Energy      =      -0.2296621362563678 [Eh]
	 SCS Opposite-Spin Energy  =      -2.6546518485813611 [Eh]
	 SCS Correlation Energy    =      -2.8843139848377288 [Eh]
	 SCS Total Energy          =    -634.6128223611266321 [Eh]
	-----------------------------------------------------------

  Dipole Moment: [D]
     X:     1.3129      Y:    -2.6118      Z:     2.3458     Total:     3.7481

*** Psi4 exiting successfully. Buy a developer a beer!
