                               Psi4 1.4a3.dev225

  ==> Input File <==

--------------------------------------------------------------------------
#psi4
#
memory 32 gb

molecule  {
0 1
  O        0.0109280     1.9504830    -1.2088660
  N        1.2104930     0.4628600     0.0596820
  C        3.6816010    -0.9509880     0.4072830
  C        3.5342200     0.1692850    -0.6230390
  C        2.3335540    -1.6180450     0.6838790
  C        2.4642000     1.1676880    -0.1911000
  C        1.1549085    -0.4394697     1.1325517
  C        0.0527250     0.9288280    -0.5097470
  C       -1.1808260     0.1020470    -0.2945890
  C       -2.2823960     0.6556420     0.3835130
  C       -1.2622800    -1.1716740    -0.8705440
  C       -3.4454200    -0.1153760     0.4879690
  C       -2.2065840     2.0368470     0.9809810
  C       -2.4366510    -1.9182050    -0.7675160
  C       -3.5304630    -1.3875060    -0.0828830
  H        4.4130950    -1.6928310     0.0671840
  H        4.0710030    -0.5292960     1.3442740
  H        4.4878230     0.6919580    -0.7653020
  H        3.2457620    -0.2529490    -1.5933530
  H        1.9831950    -2.1398170    -0.2152240
  H        2.4267450    -2.3652010     1.4815110
  H        2.7768740     1.6847790     0.7291870
  H        2.2671880     1.9220510    -0.9540200
  H        0.3069530    -1.0243470     1.2170770
  H        1.5834140    -0.1085280     2.0346680
  H       -0.4031770    -1.5700500    -1.4080150
  H       -4.3043690     0.2928860     1.0181070
  H       -2.0253310     2.7815300     0.2022010
  H       -3.1368610     2.2826280     1.5002420
  H       -1.3844770     2.1136550     1.7007310
  H       -2.4977120    -2.9041740    -1.2220500
  H       -4.4499260    -1.9612690     0.0072960
units angstrom
no_reorient  #important for SAPT in psi4, default
symmetry c1  #important for SAPT in psi4, default
}

set PROPERTIES_ORIGIN ["COM"]
properties('MP2/aug-cc-pvtz', properties = ['dipole'])
--------------------------------------------------------------------------

    Molecular point group: c1
  Charge       = 0
  Multiplicity = 1
  Basis Set: AUG-CC-PVTZ
    Blend: AUG-CC-PVTZ
  Basis Set: (AUG-CC-PVTZ AUX)
    Blend: AUG-CC-PVTZ-JKFIT

    Orbital Energies [Eh]
    ---------------------

    Doubly Occupied:

       1A    -20.513654     2A    -15.586603     3A    -11.349612
       4A    -11.263526     5A    -11.258526     6A    -11.252739
       7A    -11.247136     8A    -11.245955     9A    -11.243374
      10A    -11.239935    11A    -11.237830    12A    -11.231173
      13A    -11.226250    14A    -11.224973    15A    -11.221494
      16A     -1.370807    17A     -1.260551    18A     -1.162378
      19A     -1.077525    20A     -1.051433    21A     -1.032581
      22A     -1.015412    23A     -0.943852    24A     -0.919078
      25A     -0.873993    26A     -0.843029    27A     -0.814817
      28A     -0.788098    29A     -0.748080    30A     -0.716139
      31A     -0.668934    32A     -0.659908    33A     -0.652584
      34A     -0.633716    35A     -0.622843    36A     -0.612937
      37A     -0.596742    38A     -0.588275    39A     -0.576818
      40A     -0.573132    41A     -0.566178    42A     -0.544353
      43A     -0.542393    44A     -0.521190    45A     -0.507030
      46A     -0.499644    47A     -0.492801    48A     -0.488054
      49A     -0.474045    50A     -0.467817    51A     -0.456811
      52A     -0.419053    53A     -0.351871    54A     -0.340380
      55A     -0.330814

  @DF-RHF Final Energy:  -631.70186083417298

   => Energetics <=

    Nuclear Repulsion Energy =           1000.0432165141227188
    One-Electron Energy =               -2843.1924081760212175
    Two-Electron Energy =                1211.4473308277254091
    Total Energy =                       -631.7018608341729760
  Basis Set: (AUG-CC-PVTZ AUX)
    Blend: AUG-CC-PVTZ-RI
    Molecular point group: c1

    Geometry (in Angstrom), charge = 0, multiplicity = 1:

       Center              X                  Y                   Z               Mass
    ------------   -----------------  -----------------  -----------------  -----------------
         O            0.064696646299     1.928883979611    -1.186840300851    15.994914619570
         N            1.264261646299     0.441260979611     0.081707699149    14.003074004430
         C            3.735369646299    -0.972587020389     0.429308699149    12.000000000000
         C            3.587988646299     0.147685979611    -0.601013300851    12.000000000000
         C            2.387322646299    -1.639644020389     0.705904699149    12.000000000000
         C            2.517968646299     1.146088979611    -0.169074300851    12.000000000000
         C            1.208677146299    -0.461068720389     1.154577399149    12.000000000000
         C            0.106493646299     0.907228979611    -0.487721300851    12.000000000000
         C           -1.127057353701     0.080447979611    -0.272563300851    12.000000000000
         C           -2.228627353701     0.634042979611     0.405538699149    12.000000000000
         C           -1.208511353701    -1.193273020389    -0.848518300851    12.000000000000
         C           -3.391651353701    -0.136975020389     0.509994699149    12.000000000000
         C           -2.152815353701     2.015247979611     1.003006699149    12.000000000000
         C           -2.382882353701    -1.939804020389    -0.745490300851    12.000000000000
         C           -3.476694353701    -1.409105020389    -0.060857300851    12.000000000000
         H            4.466863646299    -1.714430020389     0.089209699149     1.007825032230
         H            4.124771646299    -0.550895020389     1.366299699149     1.007825032230
         H            4.541591646299     0.670358979611    -0.743276300851     1.007825032230
         H            3.299530646299    -0.274548020389    -1.571327300851     1.007825032230
         H            2.036963646299    -2.161416020389    -0.193198300851     1.007825032230
         H            2.480513646299    -2.386800020389     1.503536699149     1.007825032230
         H            2.830642646299     1.663179979611     0.751212699149     1.007825032230
         H            2.320956646299     1.900451979611    -0.931994300851     1.007825032230
         H            0.360721646299    -1.045946020389     1.239102699149     1.007825032230
         H            1.637182646299    -0.130127020389     2.056693699149     1.007825032230
         H           -0.349408353701    -1.591649020389    -1.385989300851     1.007825032230
         H           -4.250600353701     0.271286979611     1.040132699149     1.007825032230
         H           -1.971562353701     2.759930979611     0.224226699149     1.007825032230
         H           -3.083092353701     2.261028979611     1.522267699149     1.007825032230
         H           -1.330708353701     2.092055979611     1.722756699149     1.007825032230
         H           -2.443943353701    -2.925773020389    -1.200024300851     1.007825032230
         H           -4.396157353701    -1.982868020389     0.029321699149     1.007825032230

  Basis Set: AUG-CC-PVTZ
    Blend: AUG-CC-PVTZ
  Basis Set: (AUG-CC-PVTZ AUX)
    Blend: AUG-CC-PVTZ-JKFIT
	 Reference Energy          =    -631.7018608341729760 [Eh]
	 Singles Energy            =      -0.0000000000000000 [Eh]
	 Same-Spin Energy          =      -0.6895505335612316 [Eh]
	 Opposite-Spin Energy      =      -2.2140635199367606 [Eh]
	 Correlation Energy        =      -2.9036140534979924 [Eh]
	 Total Energy              =    -634.6054748876709937 [Eh]

	 ================> DF-SCS-MP2 Energies <==================
	-----------------------------------------------------------
	 SCS Same-Spin Scale       =       0.3333333333333333 [-]
	 SCS Opposite-Spin Scale   =       1.2000000000000000 [-]
	 SCS Same-Spin Energy      =      -0.2298501778537439 [Eh]
	 SCS Opposite-Spin Energy  =      -2.6568762239241126 [Eh]
	 SCS Correlation Energy    =      -2.8867264017778567 [Eh]
	 SCS Total Energy          =    -634.5885872359508539 [Eh]
	-----------------------------------------------------------

  Dipole Moment: [D]
     X:     1.2530      Y:    -2.2543      Z:     2.2417     Total:     3.4172

*** Psi4 exiting successfully. Buy a developer a beer!
