                               Psi4 1.4a3.dev225

  ==> Input File <==

--------------------------------------------------------------------------
#psi4
#
memory 32 gb

molecule  {
0 1
  O        0.0109280     1.9504830    -1.2088660
  N        1.2104930     0.4628600     0.0596820
  C        3.6816010    -0.9509880     0.4072830
  C        3.5342200     0.1692850    -0.6230390
  C        2.3335540    -1.6180450     0.6838790
  C        2.4642000     1.1676880    -0.1911000
  C        1.2914730    -0.5760260     1.0805660
  C        0.0527250     0.9288280    -0.5097470
  C       -1.1808260     0.1020470    -0.2945890
  C       -2.2823960     0.6556420     0.3835130
  C       -1.2622800    -1.1716740    -0.8705440
  C       -3.4454200    -0.1153760     0.4879690
  C       -2.2065840     2.0368470     0.9809810
  C       -2.4366510    -1.9182050    -0.7675160
  C       -3.5304630    -1.3875060    -0.0828830
  H        4.4130950    -1.6928310     0.0671840
  H        4.0710030    -0.5292960     1.3442740
  H        4.4878230     0.6919580    -0.7653020
  H        3.2457620    -0.2529490    -1.5933530
  H        1.9831950    -2.1398170    -0.2152240
  H        2.4267450    -2.3652010     1.4815110
  H        2.7768740     1.6847790     0.7291870
  H        2.2671880     1.9220510    -0.9540200
  H        0.3069530    -1.0243470     1.2170770
  H        1.5834140    -0.1085280     2.0346680
  H       -0.4031770    -1.5700500    -1.4080150
  H       -4.2885913     0.2853868     1.0083691
  H       -2.0253310     2.7815300     0.2022010
  H       -3.1368610     2.2826280     1.5002420
  H       -1.3844770     2.1136550     1.7007310
  H       -2.4977120    -2.9041740    -1.2220500
  H       -4.4499260    -1.9612690     0.0072960
units angstrom
no_reorient  #important for SAPT in psi4, default
symmetry c1  #important for SAPT in psi4, default
}

set PROPERTIES_ORIGIN ["COM"]
properties('MP2/aug-cc-pvtz', properties = ['dipole'])
--------------------------------------------------------------------------

    Molecular point group: c1
  Charge       = 0
  Multiplicity = 1
  Basis Set: AUG-CC-PVTZ
    Blend: AUG-CC-PVTZ
  Basis Set: (AUG-CC-PVTZ AUX)
    Blend: AUG-CC-PVTZ-JKFIT

    Orbital Energies [Eh]
    ---------------------

    Doubly Occupied:

       1A    -20.510736     2A    -15.583856     3A    -11.349387
       4A    -11.267038     5A    -11.254601     6A    -11.251653
       7A    -11.246245     8A    -11.244882     9A    -11.242447
      10A    -11.238994    11A    -11.234632    12A    -11.230606
      13A    -11.228297    14A    -11.225652    15A    -11.220365
      16A     -1.366948    17A     -1.249548    18A     -1.161432
      19A     -1.083588    20A     -1.050736    21A     -1.037503
      22A     -1.023410    23A     -0.943354    24A     -0.918792
      25A     -0.867425    26A     -0.844470    27A     -0.816002
      28A     -0.790938    29A     -0.743054    30A     -0.713075
      31A     -0.666689    32A     -0.652833    33A     -0.648333
      34A     -0.628057    35A     -0.621417    36A     -0.615470
      37A     -0.596986    38A     -0.588065    39A     -0.575931
      40A     -0.571801    41A     -0.560300    42A     -0.547627
      43A     -0.541997    44A     -0.524774    45A     -0.508059
      46A     -0.501977    47A     -0.491779    48A     -0.489518
      49A     -0.478530    50A     -0.469597    51A     -0.461524
      52A     -0.416883    53A     -0.366190    54A     -0.339899
      55A     -0.329879

  @DF-RHF Final Energy:  -631.73083709121340

   => Energetics <=

    Nuclear Repulsion Energy =           1000.0831930242394492
    One-Electron Energy =               -2843.3605004891169301
    Two-Electron Energy =                1211.5464703736643060
    Total Energy =                       -631.7308370912132887
  Basis Set: (AUG-CC-PVTZ AUX)
    Blend: AUG-CC-PVTZ-RI
    Molecular point group: c1

    Geometry (in Angstrom), charge = 0, multiplicity = 1:

       Center              X                  Y                   Z               Mass
    ------------   -----------------  -----------------  -----------------  -----------------
         O            0.056550794383     1.936988273720    -1.183720922444    15.994914619570
         N            1.256115794383     0.449365273720     0.084827077556    14.003074004430
         C            3.727223794383    -0.964482726280     0.432428077556    12.000000000000
         C            3.579842794383     0.155790273720    -0.597893922444    12.000000000000
         C            2.379176794383    -1.631539726280     0.709024077556    12.000000000000
         C            2.509822794383     1.154193273720    -0.165954922444    12.000000000000
         C            1.337095794383    -0.589520726280     1.105711077556    12.000000000000
         C            0.098347794383     0.915333273720    -0.484601922444    12.000000000000
         C           -1.135203205617     0.088552273720    -0.269443922444    12.000000000000
         C           -2.236773205617     0.642147273720     0.408658077556    12.000000000000
         C           -1.216657205617    -1.185168726280    -0.845398922444    12.000000000000
         C           -3.399797205617    -0.128870726280     0.513114077556    12.000000000000
         C           -2.160961205617     2.023352273720     1.006126077556    12.000000000000
         C           -2.391028205617    -1.931699726280    -0.742370922444    12.000000000000
         C           -3.484840205617    -1.401000726280    -0.057737922444    12.000000000000
         H            4.458717794383    -1.706325726280     0.092329077556     1.007825032230
         H            4.116625794383    -0.542790726280     1.369419077556     1.007825032230
         H            4.533445794383     0.678463273720    -0.740156922444     1.007825032230
         H            3.291384794383    -0.266443726280    -1.568207922444     1.007825032230
         H            2.028817794383    -2.153311726280    -0.190078922444     1.007825032230
         H            2.472367794383    -2.378695726280     1.506656077556     1.007825032230
         H            2.822496794383     1.671284273720     0.754332077556     1.007825032230
         H            2.312810794383     1.908556273720    -0.928874922444     1.007825032230
         H            0.352575794383    -1.037841726280     1.242222077556     1.007825032230
         H            1.629036794383    -0.122022726280     2.059813077556     1.007825032230
         H           -0.357554205617    -1.583544726280    -1.382869922444     1.007825032230
         H           -4.242968505617     0.271892073720     1.033514177556     1.007825032230
         H           -1.979708205617     2.768035273720     0.227346077556     1.007825032230
         H           -3.091238205617     2.269133273720     1.525387077556     1.007825032230
         H           -1.338854205617     2.100160273720     1.725876077556     1.007825032230
         H           -2.452089205617    -2.917668726280    -1.196904922444     1.007825032230
         H           -4.404303205617    -1.974763726280     0.032441077556     1.007825032230

  Basis Set: AUG-CC-PVTZ
    Blend: AUG-CC-PVTZ
  Basis Set: (AUG-CC-PVTZ AUX)
    Blend: AUG-CC-PVTZ-JKFIT
	 Reference Energy          =    -631.7308370912134023 [Eh]
	 Singles Energy            =      -0.0000000000000000 [Eh]
	 Same-Spin Energy          =      -0.6889713880560970 [Eh]
	 Opposite-Spin Energy      =      -2.2121164533590658 [Eh]
	 Correlation Energy        =      -2.9010878414151628 [Eh]
	 Total Energy              =    -634.6319249326285217 [Eh]

	 ================> DF-SCS-MP2 Energies <==================
	-----------------------------------------------------------
	 SCS Same-Spin Scale       =       0.3333333333333333 [-]
	 SCS Opposite-Spin Scale   =       1.2000000000000000 [-]
	 SCS Same-Spin Energy      =      -0.2296571293520323 [Eh]
	 SCS Opposite-Spin Energy  =      -2.6545397440308789 [Eh]
	 SCS Correlation Energy    =      -2.8841968733829111 [Eh]
	 SCS Total Energy          =    -634.6150339645963641 [Eh]
	-----------------------------------------------------------

  Dipole Moment: [D]
     X:     1.3969      Y:    -2.5168      Z:     2.3080     Total:     3.6895

*** Psi4 exiting successfully. Buy a developer a beer!
