                               Psi4 1.4a3.dev225

  ==> Input File <==

--------------------------------------------------------------------------
#psi4
#
memory 32 gb

molecule  {
0 1
  O        0.0109280     1.9504830    -1.2088660
  N        1.2104930     0.4628600     0.0596820
  C        3.6816010    -0.9509880     0.4072830
  C        3.5342200     0.1692850    -0.6230390
  C        2.3335540    -1.6180450     0.6838790
  C        2.4642000     1.1676880    -0.1911000
  C        1.2914730    -0.5760260     1.0805660
  C        0.0527250     0.9288280    -0.5097470
  C       -1.1808260     0.1020470    -0.2945890
  C       -2.2823960     0.6556420     0.3835130
  C       -1.2611166    -1.1534813    -0.8623176
  C       -3.4454200    -0.1153760     0.4879690
  C       -2.2065840     2.0368470     0.9809810
  C       -2.4366510    -1.9182050    -0.7675160
  C       -3.5304630    -1.3875060    -0.0828830
  H        4.4130950    -1.6928310     0.0671840
  H        4.0710030    -0.5292960     1.3442740
  H        4.4878230     0.6919580    -0.7653020
  H        3.2457620    -0.2529490    -1.5933530
  H        1.9831950    -2.1398170    -0.2152240
  H        2.4267450    -2.3652010     1.4815110
  H        2.7768740     1.6847790     0.7291870
  H        2.2671880     1.9220510    -0.9540200
  H        0.3069530    -1.0243470     1.2170770
  H        1.5834140    -0.1085280     2.0346680
  H       -0.4031770    -1.5700500    -1.4080150
  H       -4.3043690     0.2928860     1.0181070
  H       -2.0253310     2.7815300     0.2022010
  H       -3.1368610     2.2826280     1.5002420
  H       -1.3844770     2.1136550     1.7007310
  H       -2.4977120    -2.9041740    -1.2220500
  H       -4.4499260    -1.9612690     0.0072960
units angstrom
no_reorient  #important for SAPT in psi4, default
symmetry c1  #important for SAPT in psi4, default
}

set PROPERTIES_ORIGIN ["COM"]
properties('MP2/aug-cc-pvtz', properties = ['dipole'])
--------------------------------------------------------------------------

    Molecular point group: c1
  Charge       = 0
  Multiplicity = 1
  Basis Set: AUG-CC-PVTZ
    Blend: AUG-CC-PVTZ
  Basis Set: (AUG-CC-PVTZ AUX)
    Blend: AUG-CC-PVTZ-JKFIT

    Orbital Energies [Eh]
    ---------------------

    Doubly Occupied:

       1A    -20.510872     2A    -15.583947     3A    -11.349509
       4A    -11.267113     5A    -11.254658     6A    -11.251948
       7A    -11.245894     8A    -11.243392     9A    -11.242573
      10A    -11.239862    11A    -11.236557    12A    -11.230613
      13A    -11.228313    14A    -11.225671    15A    -11.220372
      16A     -1.367121    17A     -1.249658    18A     -1.162632
      19A     -1.083644    20A     -1.049845    21A     -1.038132
      22A     -1.024294    23A     -0.942430    24A     -0.919268
      25A     -0.867309    26A     -0.843188    27A     -0.815518
      28A     -0.791579    29A     -0.743122    30A     -0.712798
      31A     -0.665780    32A     -0.653026    33A     -0.648437
      34A     -0.627640    35A     -0.621100    36A     -0.614940
      37A     -0.596830    38A     -0.588092    39A     -0.574594
      40A     -0.571913    41A     -0.560353    42A     -0.547419
      43A     -0.541371    44A     -0.524801    45A     -0.507307
      46A     -0.502311    47A     -0.491483    48A     -0.489906
      49A     -0.478715    50A     -0.469656    51A     -0.461559
      52A     -0.416891    53A     -0.366260    54A     -0.341980
      55A     -0.328905

  @DF-RHF Final Energy:  -631.73041852031815

   => Energetics <=

    Nuclear Repulsion Energy =           1000.3144491314851621
    One-Electron Energy =               -2843.8235295968515857
    Two-Electron Energy =                1211.7786619450482704
    Total Energy =                       -631.7304185203181532
  Basis Set: (AUG-CC-PVTZ AUX)
    Blend: AUG-CC-PVTZ-RI
    Molecular point group: c1

    Geometry (in Angstrom), charge = 0, multiplicity = 1:

       Center              X                  Y                   Z               Mass
    ------------   -----------------  -----------------  -----------------  -----------------
         O            0.056560346646     1.935876329873    -1.184255212591    15.994914619570
         N            1.256125346646     0.448253329873     0.084292787409    14.003074004430
         C            3.727233346646    -0.965594670127     0.431893787409    12.000000000000
         C            3.579852346646     0.154678329873    -0.598428212591    12.000000000000
         C            2.379186346646    -1.632651670127     0.708489787409    12.000000000000
         C            2.509832346646     1.153081329873    -0.166489212591    12.000000000000
         C            1.337105346646    -0.590632670127     1.105176787409    12.000000000000
         C            0.098357346646     0.914221329873    -0.485136212591    12.000000000000
         C           -1.135193653354     0.087440329873    -0.269978212591    12.000000000000
         C           -2.236763653354     0.641035329873     0.408123787409    12.000000000000
         C           -1.215484253354    -1.168087970127    -0.837706812591    12.000000000000
         C           -3.399787653354    -0.129982670127     0.512579787409    12.000000000000
         C           -2.160951653354     2.022240329873     1.005591787409    12.000000000000
         C           -2.391018653354    -1.932811670127    -0.742905212591    12.000000000000
         C           -3.484830653354    -1.402112670127    -0.058272212591    12.000000000000
         H            4.458727346646    -1.707437670127     0.091794787409     1.007825032230
         H            4.116635346646    -0.543902670127     1.368884787409     1.007825032230
         H            4.533455346646     0.677351329873    -0.740691212591     1.007825032230
         H            3.291394346646    -0.267555670127    -1.568742212591     1.007825032230
         H            2.028827346646    -2.154423670127    -0.190613212591     1.007825032230
         H            2.472377346646    -2.379807670127     1.506121787409     1.007825032230
         H            2.822506346646     1.670172329873     0.753797787409     1.007825032230
         H            2.312820346646     1.907444329873    -0.929409212591     1.007825032230
         H            0.352585346646    -1.038953670127     1.241687787409     1.007825032230
         H            1.629046346646    -0.123134670127     2.059278787409     1.007825032230
         H           -0.357544653354    -1.584656670127    -1.383404212591     1.007825032230
         H           -4.258736653354     0.278279329873     1.042717787409     1.007825032230
         H           -1.979698653354     2.766923329873     0.226811787409     1.007825032230
         H           -3.091228653354     2.268021329873     1.524852787409     1.007825032230
         H           -1.338844653354     2.099048329873     1.725341787409     1.007825032230
         H           -2.452079653354    -2.918780670127    -1.197439212591     1.007825032230
         H           -4.404293653354    -1.975875670127     0.031906787409     1.007825032230

  Basis Set: AUG-CC-PVTZ
    Blend: AUG-CC-PVTZ
  Basis Set: (AUG-CC-PVTZ AUX)
    Blend: AUG-CC-PVTZ-JKFIT
	 Reference Energy          =    -631.7304185203181532 [Eh]
	 Singles Energy            =      -0.0000000000000000 [Eh]
	 Same-Spin Energy          =      -0.6889735477059132 [Eh]
	 Opposite-Spin Energy      =      -2.2122004040441050 [Eh]
	 Correlation Energy        =      -2.9011739517500184 [Eh]
	 Total Energy              =    -634.6315924720681778 [Eh]

	 ================> DF-SCS-MP2 Energies <==================
	-----------------------------------------------------------
	 SCS Same-Spin Scale       =       0.3333333333333333 [-]
	 SCS Opposite-Spin Scale   =       1.2000000000000000 [-]
	 SCS Same-Spin Energy      =      -0.2296578492353044 [Eh]
	 SCS Opposite-Spin Energy  =      -2.6546404848529259 [Eh]
	 SCS Correlation Energy    =      -2.8842983340882302 [Eh]
	 SCS Total Energy          =    -634.6147168544064243 [Eh]
	-----------------------------------------------------------

  Dipole Moment: [D]
     X:     1.4030      Y:    -2.5224      Z:     2.3035     Total:     3.6928

*** Psi4 exiting successfully. Buy a developer a beer!
