                               Psi4 1.4a3.dev225

  ==> Input File <==

--------------------------------------------------------------------------
#psi4
#
memory 32 gb

molecule  {
0 1
  O        0.0109280     1.9504830    -1.2088660
  N        1.2104930     0.4628600     0.0596820
  C        3.6816010    -0.9509880     0.4072830
  C        3.5342200     0.1692850    -0.6230390
  C        2.3335540    -1.6180450     0.6838790
  C        2.4642000     1.1676880    -0.1911000
  C        1.2914730    -0.5760260     1.0805660
  C        0.0527250     0.9288280    -0.5097470
  C       -1.1808260     0.1020470    -0.2945890
  C       -2.2823960     0.6556420     0.3835130
  C       -1.2622800    -1.1716740    -0.8705440
  C       -3.4454200    -0.1153760     0.4879690
  C       -2.2065840     2.0368470     0.9809810
  C       -2.4366510    -1.9182050    -0.7675160
  C       -3.5304630    -1.3875060    -0.0828830
  H        4.4130950    -1.6928310     0.0671840
  H        4.0710030    -0.5292960     1.3442740
  H        4.4878230     0.6919580    -0.7653020
  H        3.2457620    -0.2529490    -1.5933530
  H        1.9831950    -2.1398170    -0.2152240
  H        2.4267450    -2.3652010     1.4815110
  H        2.7768740     1.6847790     0.7291870
  H        2.2671880     1.9220510    -0.9540200
  H        0.3069530    -1.0243470     1.2170770
  H        1.6099093    -0.0660999     2.1212582
  H       -0.4031770    -1.5700500    -1.4080150
  H       -4.3043690     0.2928860     1.0181070
  H       -2.0253310     2.7815300     0.2022010
  H       -3.1368610     2.2826280     1.5002420
  H       -1.3844770     2.1136550     1.7007310
  H       -2.4977120    -2.9041740    -1.2220500
  H       -4.4499260    -1.9612690     0.0072960
units angstrom
no_reorient  #important for SAPT in psi4, default
symmetry c1  #important for SAPT in psi4, default
}

set PROPERTIES_ORIGIN ["COM"]
properties('MP2/aug-cc-pvtz', properties = ['dipole'])
--------------------------------------------------------------------------

    Molecular point group: c1
  Charge       = 0
  Multiplicity = 1
  Basis Set: AUG-CC-PVTZ
    Blend: AUG-CC-PVTZ
  Basis Set: (AUG-CC-PVTZ AUX)
    Blend: AUG-CC-PVTZ-JKFIT

    Orbital Energies [Eh]
    ---------------------

    Doubly Occupied:

       1A    -20.511876     2A    -15.585514     3A    -11.350418
       4A    -11.278891     5A    -11.254776     6A    -11.252260
       7A    -11.246856     8A    -11.245519     9A    -11.243043
      10A    -11.239527    11A    -11.237316    12A    -11.231858
      13A    -11.228382    14A    -11.225857    15A    -11.220494
      16A     -1.367928    17A     -1.249981    18A     -1.161850
      19A     -1.083819    20A     -1.051137    21A     -1.036906
      22A     -1.022208    23A     -0.943031    24A     -0.917387
      25A     -0.865637    26A     -0.844514    27A     -0.815576
      28A     -0.790891    29A     -0.740368    30A     -0.712029
      31A     -0.667049    32A     -0.652305    33A     -0.645825
      34A     -0.628117    35A     -0.618498    36A     -0.615055
      37A     -0.596096    38A     -0.585618    39A     -0.576010
      40A     -0.571829    41A     -0.561030    42A     -0.548019
      43A     -0.541633    44A     -0.523469    45A     -0.507962
      46A     -0.498050    47A     -0.491152    48A     -0.489286
      49A     -0.478895    50A     -0.469249    51A     -0.461886
      52A     -0.417599    53A     -0.366018    54A     -0.340450
      55A     -0.330379

  @DF-RHF Final Energy:  -631.72422134923977

   => Energetics <=

    Nuclear Repulsion Energy =            999.4289888366635068
    One-Electron Energy =               -2842.0317616364081914
    Two-Electron Energy =                1210.8785514505050287
    Total Energy =                       -631.7242213492397696
  Basis Set: (AUG-CC-PVTZ AUX)
    Blend: AUG-CC-PVTZ-RI
    Molecular point group: c1

    Geometry (in Angstrom), charge = 0, multiplicity = 1:

       Center              X                  Y                   Z               Mass
    ------------   -----------------  -----------------  -----------------  -----------------
         O            0.056497619511     1.936740561755    -1.184198849810    15.994914619570
         N            1.256062619511     0.449117561755     0.084349150190    14.003074004430
         C            3.727170619511    -0.964730438245     0.431950150190    12.000000000000
         C            3.579789619511     0.155542561755    -0.598371849810    12.000000000000
         C            2.379123619511    -1.631787438245     0.708546150190    12.000000000000
         C            2.509769619511     1.153945561755    -0.166432849810    12.000000000000
         C            1.337042619511    -0.589768438245     1.105233150190    12.000000000000
         C            0.098294619511     0.915085561755    -0.485079849810    12.000000000000
         C           -1.135256380489     0.088304561755    -0.269921849810    12.000000000000
         C           -2.236826380489     0.641899561755     0.408180150190    12.000000000000
         C           -1.216710380489    -1.185416438245    -0.845876849810    12.000000000000
         C           -3.399850380489    -0.129118438245     0.512636150190    12.000000000000
         C           -2.161014380489     2.023104561755     1.005648150190    12.000000000000
         C           -2.391081380489    -1.931947438245    -0.742848849810    12.000000000000
         C           -3.484893380489    -1.401248438245    -0.058215849810    12.000000000000
         H            4.458664619511    -1.706573438245     0.091851150190     1.007825032230
         H            4.116572619511    -0.543038438245     1.368941150190     1.007825032230
         H            4.533392619511     0.678215561755    -0.740634849810     1.007825032230
         H            3.291331619511    -0.266691438245    -1.568685849810     1.007825032230
         H            2.028764619511    -2.153559438245    -0.190556849810     1.007825032230
         H            2.472314619511    -2.378943438245     1.506178150190     1.007825032230
         H            2.822443619511     1.671036561755     0.753854150190     1.007825032230
         H            2.312757619511     1.908308561755    -0.929352849810     1.007825032230
         H            0.352522619511    -1.038089438245     1.241744150190     1.007825032230
         H            1.655478919511    -0.079842338245     2.145925350190     1.007825032230
         H           -0.357607380489    -1.583792438245    -1.383347849810     1.007825032230
         H           -4.258799380489     0.279143561755     1.042774150190     1.007825032230
         H           -1.979761380489     2.767787561755     0.226868150190     1.007825032230
         H           -3.091291380489     2.268885561755     1.524909150190     1.007825032230
         H           -1.338907380489     2.099912561755     1.725398150190     1.007825032230
         H           -2.452142380489    -2.917916438245    -1.197382849810     1.007825032230
         H           -4.404356380489    -1.975011438245     0.031963150190     1.007825032230

  Basis Set: AUG-CC-PVTZ
    Blend: AUG-CC-PVTZ
  Basis Set: (AUG-CC-PVTZ AUX)
    Blend: AUG-CC-PVTZ-JKFIT
	 Reference Energy          =    -631.7242213492397696 [Eh]
	 Singles Energy            =      -0.0000000000000000 [Eh]
	 Same-Spin Energy          =      -0.6891840738149114 [Eh]
	 Opposite-Spin Energy      =      -2.2131011629193305 [Eh]
	 Correlation Energy        =      -2.9022852367342420 [Eh]
	 Total Energy              =    -634.6265065859739707 [Eh]

	 ================> DF-SCS-MP2 Energies <==================
	-----------------------------------------------------------
	 SCS Same-Spin Scale       =       0.3333333333333333 [-]
	 SCS Opposite-Spin Scale   =       1.2000000000000000 [-]
	 SCS Same-Spin Energy      =      -0.2297280246049705 [Eh]
	 SCS Opposite-Spin Energy  =      -2.6557213955031966 [Eh]
	 SCS Correlation Energy    =      -2.8854494201081673 [Eh]
	 SCS Total Energy          =    -634.6096707693479857 [Eh]
	-----------------------------------------------------------

  Dipole Moment: [D]
     X:     1.3592      Y:    -2.5240      Z:     2.2046     Total:     3.6164

*** Psi4 exiting successfully. Buy a developer a beer!
