                               Psi4 1.4a3.dev225

  ==> Input File <==

--------------------------------------------------------------------------
#psi4
#
memory 32 gb

molecule  {
0 1
  O        0.0109280     1.9504830    -1.2088660
  N        1.2223596     0.4483558     0.0769468
  C        3.6816010    -0.9509880     0.4072830
  C        3.5342200     0.1692850    -0.6230390
  C        2.3335540    -1.6180450     0.6838790
  C        2.4642000     1.1676880    -0.1911000
  C        1.2914730    -0.5760260     1.0805660
  C        0.0527250     0.9288280    -0.5097470
  C       -1.1808260     0.1020470    -0.2945890
  C       -2.2823960     0.6556420     0.3835130
  C       -1.2622800    -1.1716740    -0.8705440
  C       -3.4454200    -0.1153760     0.4879690
  C       -2.2065840     2.0368470     0.9809810
  C       -2.4366510    -1.9182050    -0.7675160
  C       -3.5304630    -1.3875060    -0.0828830
  H        4.4130950    -1.6928310     0.0671840
  H        4.0710030    -0.5292960     1.3442740
  H        4.4878230     0.6919580    -0.7653020
  H        3.2457620    -0.2529490    -1.5933530
  H        1.9831950    -2.1398170    -0.2152240
  H        2.4267450    -2.3652010     1.4815110
  H        2.7768740     1.6847790     0.7291870
  H        2.2671880     1.9220510    -0.9540200
  H        0.3069530    -1.0243470     1.2170770
  H        1.5834140    -0.1085280     2.0346680
  H       -0.4031770    -1.5700500    -1.4080150
  H       -4.3043690     0.2928860     1.0181070
  H       -2.0253310     2.7815300     0.2022010
  H       -3.1368610     2.2826280     1.5002420
  H       -1.3844770     2.1136550     1.7007310
  H       -2.4977120    -2.9041740    -1.2220500
  H       -4.4499260    -1.9612690     0.0072960
units angstrom
no_reorient  #important for SAPT in psi4, default
symmetry c1  #important for SAPT in psi4, default
}

set PROPERTIES_ORIGIN ["COM"]
properties('MP2/aug-cc-pvtz', properties = ['dipole'])
--------------------------------------------------------------------------

    Molecular point group: c1
  Charge       = 0
  Multiplicity = 1
  Basis Set: AUG-CC-PVTZ
    Blend: AUG-CC-PVTZ
  Basis Set: (AUG-CC-PVTZ AUX)
    Blend: AUG-CC-PVTZ-JKFIT

    Orbital Energies [Eh]
    ---------------------

    Doubly Occupied:

       1A    -20.515544     2A    -15.582639     3A    -11.353275
       4A    -11.264248     5A    -11.253994     6A    -11.252428
       7A    -11.246873     8A    -11.245608     9A    -11.243098
      10A    -11.239519    11A    -11.237401    12A    -11.229015
      13A    -11.227407    14A    -11.224675    15A    -11.220908
      16A     -1.367877    17A     -1.251512    18A     -1.161957
      19A     -1.081204    20A     -1.051230    21A     -1.037118
      22A     -1.024228    23A     -0.942962    24A     -0.915577
      25A     -0.867304    26A     -0.845078    27A     -0.815723
      28A     -0.789887    29A     -0.743386    30A     -0.712238
      31A     -0.667751    32A     -0.653194    33A     -0.648563
      34A     -0.626150    35A     -0.621106    36A     -0.615644
      37A     -0.596347    38A     -0.586756    39A     -0.576194
      40A     -0.571955    41A     -0.563807    42A     -0.547050
      43A     -0.542351    44A     -0.523676    45A     -0.508674
      46A     -0.501580    47A     -0.491802    48A     -0.489234
      49A     -0.478655    50A     -0.468172    51A     -0.462282
      52A     -0.418337    53A     -0.364101    54A     -0.340497
      55A     -0.330527

  @DF-RHF Final Energy:  -631.72887358676189

   => Energetics <=

    Nuclear Repulsion Energy =            999.9090960371560186
    One-Electron Energy =               -2842.9993031413296194
    Two-Electron Energy =                1211.3613335174118220
    Total Energy =                       -631.7288735867618925
  Basis Set: (AUG-CC-PVTZ AUX)
    Blend: AUG-CC-PVTZ-RI
    Molecular point group: c1

    Geometry (in Angstrom), charge = 0, multiplicity = 1:

       Center              X                  Y                   Z               Mass
    ------------   -----------------  -----------------  -----------------  -----------------
         O            0.055811036756     1.937950930778    -1.184959405758    15.994914619570
         N            1.267242636756     0.435823730778     0.100853394242    14.003074004430
         C            3.726484036756    -0.963520069222     0.431189594242    12.000000000000
         C            3.579103036756     0.156752930778    -0.599132405758    12.000000000000
         C            2.378437036756    -1.630577069222     0.707785594242    12.000000000000
         C            2.509083036756     1.155155930778    -0.167193405758    12.000000000000
         C            1.336356036756    -0.588558069222     1.104472594242    12.000000000000
         C            0.097608036756     0.916295930778    -0.485840405758    12.000000000000
         C           -1.135942963244     0.089514930778    -0.270682405758    12.000000000000
         C           -2.237512963244     0.643109930778     0.407419594242    12.000000000000
         C           -1.217396963244    -1.184206069222    -0.846637405758    12.000000000000
         C           -3.400536963244    -0.127908069222     0.511875594242    12.000000000000
         C           -2.161700963244     2.024314930778     1.004887594242    12.000000000000
         C           -2.391767963244    -1.930737069222    -0.743609405758    12.000000000000
         C           -3.485579963244    -1.400038069222    -0.058976405758    12.000000000000
         H            4.457978036756    -1.705363069222     0.091090594242     1.007825032230
         H            4.115886036756    -0.541828069222     1.368180594242     1.007825032230
         H            4.532706036756     0.679425930778    -0.741395405758     1.007825032230
         H            3.290645036756    -0.265481069222    -1.569446405758     1.007825032230
         H            2.028078036756    -2.152349069222    -0.191317405758     1.007825032230
         H            2.471628036756    -2.377733069222     1.505417594242     1.007825032230
         H            2.821757036756     1.672246930778     0.753093594242     1.007825032230
         H            2.312071036756     1.909518930778    -0.930113405758     1.007825032230
         H            0.351836036756    -1.036879069222     1.240983594242     1.007825032230
         H            1.628297036756    -0.121060069222     2.058574594242     1.007825032230
         H           -0.358293963244    -1.582582069222    -1.384108405758     1.007825032230
         H           -4.259485963244     0.280353930778     1.042013594242     1.007825032230
         H           -1.980447963244     2.768997930778     0.226107594242     1.007825032230
         H           -3.091977963244     2.270095930778     1.524148594242     1.007825032230
         H           -1.339593963244     2.101122930778     1.724637594242     1.007825032230
         H           -2.452828963244    -2.916706069222    -1.198143405758     1.007825032230
         H           -4.405042963244    -1.973801069222     0.031202594242     1.007825032230

  Basis Set: AUG-CC-PVTZ
    Blend: AUG-CC-PVTZ
  Basis Set: (AUG-CC-PVTZ AUX)
    Blend: AUG-CC-PVTZ-JKFIT
	 Reference Energy          =    -631.7288735867618925 [Eh]
	 Singles Energy            =      -0.0000000000000000 [Eh]
	 Same-Spin Energy          =      -0.6893525288478577 [Eh]
	 Opposite-Spin Energy      =      -2.2128078353671139 [Eh]
	 Correlation Energy        =      -2.9021603642149714 [Eh]
	 Total Energy              =    -634.6310339509768710 [Eh]

	 ================> DF-SCS-MP2 Energies <==================
	-----------------------------------------------------------
	 SCS Same-Spin Scale       =       0.3333333333333333 [-]
	 SCS Opposite-Spin Scale   =       1.2000000000000000 [-]
	 SCS Same-Spin Energy      =      -0.2297841762826192 [Eh]
	 SCS Opposite-Spin Energy  =      -2.6553694024405368 [Eh]
	 SCS Correlation Energy    =      -2.8851535787231559 [Eh]
	 SCS Total Energy          =    -634.6140271654850267 [Eh]
	-----------------------------------------------------------

  Dipole Moment: [D]
     X:     1.2888      Y:    -2.4391      Z:     2.2232     Total:     3.5429

*** Psi4 exiting successfully. Buy a developer a beer!
