                               Psi4 1.4a3.dev225

  ==> Input File <==

--------------------------------------------------------------------------
#psi4
#
memory 32 gb

molecule  {
0 1
  O        0.0109280     1.9504830    -1.2088660
  N        1.2104930     0.4628600     0.0596820
  C        3.6816010    -0.9509880     0.4072830
  C        3.5342200     0.1692850    -0.6230390
  C        2.3335540    -1.6180450     0.6838790
  C        2.4642000     1.1676880    -0.1911000
  C        1.2914730    -0.5760260     1.0805660
  C        0.0527250     0.9288280    -0.5097470
  C       -1.1808260     0.1020470    -0.2945890
  C       -2.2823960     0.6556420     0.3835130
  C       -1.2622800    -1.1716740    -0.8705440
  C       -3.4454200    -0.1153760     0.4879690
  C       -2.2166467     1.8535173     0.9016780
  C       -2.4366510    -1.9182050    -0.7675160
  C       -3.5304630    -1.3875060    -0.0828830
  H        4.4130950    -1.6928310     0.0671840
  H        4.0710030    -0.5292960     1.3442740
  H        4.4878230     0.6919580    -0.7653020
  H        3.2457620    -0.2529490    -1.5933530
  H        1.9831950    -2.1398170    -0.2152240
  H        2.4267450    -2.3652010     1.4815110
  H        2.7768740     1.6847790     0.7291870
  H        2.2671880     1.9220510    -0.9540200
  H        0.3069530    -1.0243470     1.2170770
  H        1.5834140    -0.1085280     2.0346680
  H       -0.4031770    -1.5700500    -1.4080150
  H       -4.3043690     0.2928860     1.0181070
  H       -2.0253310     2.7815300     0.2022010
  H       -3.1368610     2.2826280     1.5002420
  H       -1.3844770     2.1136550     1.7007310
  H       -2.4977120    -2.9041740    -1.2220500
  H       -4.4499260    -1.9612690     0.0072960
units angstrom
no_reorient  #important for SAPT in psi4, default
symmetry c1  #important for SAPT in psi4, default
}

set PROPERTIES_ORIGIN ["COM"]
properties('MP2/aug-cc-pvtz', properties = ['dipole'])
--------------------------------------------------------------------------

    Molecular point group: c1
  Charge       = 0
  Multiplicity = 1
  Basis Set: AUG-CC-PVTZ
    Blend: AUG-CC-PVTZ
  Basis Set: (AUG-CC-PVTZ AUX)
    Blend: AUG-CC-PVTZ-JKFIT

    Orbital Energies [Eh]
    ---------------------

    Doubly Occupied:

       1A    -20.510661     2A    -15.584007     3A    -11.349842
       4A    -11.267110     5A    -11.254643     6A    -11.247081
       7A    -11.245675     8A    -11.243031     9A    -11.240469
      10A    -11.239637    11A    -11.237175    12A    -11.230683
      13A    -11.229750    14A    -11.228353    15A    -11.225711
      16A     -1.367104    17A     -1.249621    18A     -1.173615
      19A     -1.083716    20A     -1.077228    21A     -1.038703
      22A     -1.023973    23A     -0.944058    24A     -0.916411
      25A     -0.867574    26A     -0.846811    27A     -0.812423
      28A     -0.789270    29A     -0.742942    30A     -0.713029
      31A     -0.677445    32A     -0.657844    33A     -0.650983
      34A     -0.631210    35A     -0.624031    36A     -0.616957
      37A     -0.601075    38A     -0.592947    39A     -0.588079
      40A     -0.565007    41A     -0.561055    42A     -0.547032
      43A     -0.531412    44A     -0.525026    45A     -0.506453
      46A     -0.500022    47A     -0.482177    48A     -0.477837
      49A     -0.473712    50A     -0.469449    51A     -0.460943
      52A     -0.415725    53A     -0.365952    54A     -0.340715
      55A     -0.321203

  @DF-RHF Final Energy:  -631.67822385165834

   => Energetics <=

    Nuclear Repulsion Energy =           1004.0473740454981453
    One-Electron Energy =               -2851.1220059823372139
    Two-Electron Energy =                1215.3964080851806102
    Total Energy =                       -631.6782238516584584
  Basis Set: (AUG-CC-PVTZ AUX)
    Blend: AUG-CC-PVTZ-RI
    Molecular point group: c1

    Geometry (in Angstrom), charge = 0, multiplicity = 1:

       Center              X                  Y                   Z               Mass
    ------------   -----------------  -----------------  -----------------  -----------------
         O            0.057223530457     1.947781300710    -1.179084398059    15.994914619570
         N            1.256788530457     0.460158300710     0.089463601941    14.003074004430
         C            3.727896530457    -0.953689699290     0.437064601941    12.000000000000
         C            3.580515530457     0.166583300710    -0.593257398059    12.000000000000
         C            2.379849530457    -1.620746699290     0.713660601941    12.000000000000
         C            2.510495530457     1.164986300710    -0.161318398059    12.000000000000
         C            1.337768530457    -0.578727699290     1.110347601941    12.000000000000
         C            0.099020530457     0.926126300710    -0.479965398059    12.000000000000
         C           -1.134530469543     0.099345300710    -0.264807398059    12.000000000000
         C           -2.236100469543     0.652940300710     0.413294601941    12.000000000000
         C           -1.215984469543    -1.174375699290    -0.840762398059    12.000000000000
         C           -3.399124469543    -0.118077699290     0.517750601941    12.000000000000
         C           -2.170351169543     1.850815600710     0.931459601941    12.000000000000
         C           -2.390355469543    -1.920906699290    -0.737734398059    12.000000000000
         C           -3.484167469543    -1.390207699290    -0.053101398059    12.000000000000
         H            4.459390530457    -1.695532699290     0.096965601941     1.007825032230
         H            4.117298530457    -0.531997699290     1.374055601941     1.007825032230
         H            4.534118530457     0.689256300710    -0.735520398059     1.007825032230
         H            3.292057530457    -0.255650699290    -1.563571398059     1.007825032230
         H            2.029490530457    -2.142518699290    -0.185442398059     1.007825032230
         H            2.473040530457    -2.367902699290     1.511292601941     1.007825032230
         H            2.823169530457     1.682077300710     0.758968601941     1.007825032230
         H            2.313483530457     1.919349300710    -0.924238398059     1.007825032230
         H            0.353248530457    -1.027048699290     1.246858601941     1.007825032230
         H            1.629709530457    -0.111229699290     2.064449601941     1.007825032230
         H           -0.356881469543    -1.572751699290    -1.378233398059     1.007825032230
         H           -4.258073469543     0.290184300710     1.047888601941     1.007825032230
         H           -1.979035469543     2.778828300710     0.231982601941     1.007825032230
         H           -3.090565469543     2.279926300710     1.530023601941     1.007825032230
         H           -1.338181469543     2.110953300710     1.730512601941     1.007825032230
         H           -2.451416469543    -2.906875699290    -1.192268398059     1.007825032230
         H           -4.403630469543    -1.963970699290     0.037077601941     1.007825032230

  Basis Set: AUG-CC-PVTZ
    Blend: AUG-CC-PVTZ
  Basis Set: (AUG-CC-PVTZ AUX)
    Blend: AUG-CC-PVTZ-JKFIT
	 Reference Energy          =    -631.6782238516583448 [Eh]
	 Singles Energy            =      -0.0000000000000000 [Eh]
	 Same-Spin Energy          =      -0.6928636990789423 [Eh]
	 Opposite-Spin Energy      =      -2.2171558514553329 [Eh]
	 Correlation Energy        =      -2.9100195505342752 [Eh]
	 Total Energy              =    -634.5882434021925746 [Eh]

	 ================> DF-SCS-MP2 Energies <==================
	-----------------------------------------------------------
	 SCS Same-Spin Scale       =       0.3333333333333333 [-]
	 SCS Opposite-Spin Scale   =       1.2000000000000000 [-]
	 SCS Same-Spin Energy      =      -0.2309545663596474 [Eh]
	 SCS Opposite-Spin Energy  =      -2.6605870217463994 [Eh]
	 SCS Correlation Energy    =      -2.8915415881060467 [Eh]
	 SCS Total Energy          =    -634.5697654397644101 [Eh]
	-----------------------------------------------------------

  Dipole Moment: [D]
     X:     1.4394      Y:    -2.4666      Z:     2.2873     Total:     3.6589

*** Psi4 exiting successfully. Buy a developer a beer!
