                               Psi4 1.4a3.dev225

  ==> Input File <==

--------------------------------------------------------------------------
#psi4
#
memory 32 gb

molecule  {
0 1
  O        0.0109280     1.9504830    -1.2088660
  N        1.2104930     0.4628600     0.0596820
  C        3.6816010    -0.9509880     0.4072830
  C        3.5342200     0.1692850    -0.6230390
  C        2.3335540    -1.6180450     0.6838790
  C        2.4642000     1.1676880    -0.1911000
  C        1.2914730    -0.5760260     1.0805660
  C        0.0527250     0.9288280    -0.5097470
  C       -1.1808260     0.1020470    -0.2945890
  C       -2.2823960     0.6556420     0.3835130
  C       -1.2622800    -1.1716740    -0.8705440
  C       -3.4454200    -0.1153760     0.4879690
  C       -2.2065840     2.0368470     0.9809810
  C       -2.4366510    -1.9182050    -0.7675160
  C       -3.5304630    -1.3875060    -0.0828830
  H        4.4130950    -1.6928310     0.0671840
  H        4.0710030    -0.5292960     1.3442740
  H        4.5747738     0.7396160    -0.7782737
  H        3.2457620    -0.2529490    -1.5933530
  H        1.9831950    -2.1398170    -0.2152240
  H        2.4267450    -2.3652010     1.4815110
  H        2.7768740     1.6847790     0.7291870
  H        2.2671880     1.9220510    -0.9540200
  H        0.3069530    -1.0243470     1.2170770
  H        1.5834140    -0.1085280     2.0346680
  H       -0.4031770    -1.5700500    -1.4080150
  H       -4.3043690     0.2928860     1.0181070
  H       -2.0253310     2.7815300     0.2022010
  H       -3.1368610     2.2826280     1.5002420
  H       -1.3844770     2.1136550     1.7007310
  H       -2.4977120    -2.9041740    -1.2220500
  H       -4.4499260    -1.9612690     0.0072960
units angstrom
no_reorient  #important for SAPT in psi4, default
symmetry c1  #important for SAPT in psi4, default
}

set PROPERTIES_ORIGIN ["COM"]
properties('MP2/aug-cc-pvtz', properties = ['dipole'])
--------------------------------------------------------------------------

    Molecular point group: c1
  Charge       = 0
  Multiplicity = 1
  Basis Set: AUG-CC-PVTZ
    Blend: AUG-CC-PVTZ
  Basis Set: (AUG-CC-PVTZ AUX)
    Blend: AUG-CC-PVTZ-JKFIT

    Orbital Energies [Eh]
    ---------------------

    Doubly Occupied:

       1A    -20.511389     2A    -15.584747     3A    -11.350091
       4A    -11.267714     5A    -11.255583     6A    -11.252203
       7A    -11.246735     8A    -11.245415     9A    -11.242977
      10A    -11.239472    11A    -11.237703    12A    -11.237294
      13A    -11.231562    14A    -11.229289    15A    -11.220630
      16A     -1.367597    17A     -1.250367    18A     -1.161788
      19A     -1.083094    20A     -1.051155    21A     -1.037312
      22A     -1.022176    23A     -0.943523    24A     -0.919397
      25A     -0.864149    26A     -0.844454    27A     -0.815197
      28A     -0.789130    29A     -0.743291    30A     -0.712225
      31A     -0.667208    32A     -0.653247    33A     -0.648575
      34A     -0.625927    35A     -0.619592    36A     -0.614990
      37A     -0.597011    38A     -0.584530    39A     -0.575907
      40A     -0.572188    41A     -0.560290    42A     -0.544383
      43A     -0.541563    44A     -0.525311    45A     -0.508287
      46A     -0.502374    47A     -0.491225    48A     -0.489651
      49A     -0.479272    50A     -0.468401    51A     -0.458218
      52A     -0.417206    53A     -0.366923    54A     -0.340358
      55A     -0.330347

  @DF-RHF Final Energy:  -631.72413128201197

   => Energetics <=

    Nuclear Repulsion Energy =            999.4438401873572957
    One-Electron Energy =               -2842.0546495373428115
    Two-Electron Energy =                1210.8866780679736621
    Total Energy =                       -631.7241312820119674
  Basis Set: (AUG-CC-PVTZ AUX)
    Blend: AUG-CC-PVTZ-RI
    Molecular point group: c1

    Geometry (in Angstrom), charge = 0, multiplicity = 1:

       Center              X                  Y                   Z               Mass
    ------------   -----------------  -----------------  -----------------  -----------------
         O            0.056197672374     1.936714613851    -1.183704878097    15.994914619570
         N            1.255762672374     0.449091613851     0.084843121903    14.003074004430
         C            3.726870672374    -0.964756386149     0.432444121903    12.000000000000
         C            3.579489672374     0.155516613851    -0.597877878097    12.000000000000
         C            2.378823672374    -1.631813386149     0.709040121903    12.000000000000
         C            2.509469672374     1.153919613851    -0.165938878097    12.000000000000
         C            1.336742672374    -0.589794386149     1.105727121903    12.000000000000
         C            0.097994672374     0.915059613851    -0.484585878097    12.000000000000
         C           -1.135556327626     0.088278613851    -0.269427878097    12.000000000000
         C           -2.237126327626     0.641873613851     0.408674121903    12.000000000000
         C           -1.217010327626    -1.185442386149    -0.845382878097    12.000000000000
         C           -3.400150327626    -0.129144386149     0.513130121903    12.000000000000
         C           -2.161314327626     2.023078613851     1.006142121903    12.000000000000
         C           -2.391381327626    -1.931973386149    -0.742354878097    12.000000000000
         C           -3.485193327626    -1.401274386149    -0.057721878097    12.000000000000
         H            4.458364672374    -1.706599386149     0.092345121903     1.007825032230
         H            4.116272672374    -0.543064386149     1.369435121903     1.007825032230
         H            4.620043472374     0.725847613851    -0.753112578097     1.007825032230
         H            3.291031672374    -0.266717386149    -1.568191878097     1.007825032230
         H            2.028464672374    -2.153585386149    -0.190062878097     1.007825032230
         H            2.472014672374    -2.378969386149     1.506672121903     1.007825032230
         H            2.822143672374     1.671010613851     0.754348121903     1.007825032230
         H            2.312457672374     1.908282613851    -0.928858878097     1.007825032230
         H            0.352222672374    -1.038115386149     1.242238121903     1.007825032230
         H            1.628683672374    -0.122296386149     2.059829121903     1.007825032230
         H           -0.357907327626    -1.583818386149    -1.382853878097     1.007825032230
         H           -4.259099327626     0.279117613851     1.043268121903     1.007825032230
         H           -1.980061327626     2.767761613851     0.227362121903     1.007825032230
         H           -3.091591327626     2.268859613851     1.525403121903     1.007825032230
         H           -1.339207327626     2.099886613851     1.725892121903     1.007825032230
         H           -2.452442327626    -2.917942386149    -1.196888878097     1.007825032230
         H           -4.404656327626    -1.975037386149     0.032457121903     1.007825032230

  Basis Set: AUG-CC-PVTZ
    Blend: AUG-CC-PVTZ
  Basis Set: (AUG-CC-PVTZ AUX)
    Blend: AUG-CC-PVTZ-JKFIT
	 Reference Energy          =    -631.7241312820119674 [Eh]
	 Singles Energy            =      -0.0000000000000000 [Eh]
	 Same-Spin Energy          =      -0.6890456485611546 [Eh]
	 Opposite-Spin Energy      =      -2.2130394067986314 [Eh]
	 Correlation Energy        =      -2.9020850553597861 [Eh]
	 Total Energy              =    -634.6262163373717158 [Eh]

	 ================> DF-SCS-MP2 Energies <==================
	-----------------------------------------------------------
	 SCS Same-Spin Scale       =       0.3333333333333333 [-]
	 SCS Opposite-Spin Scale   =       1.2000000000000000 [-]
	 SCS Same-Spin Energy      =      -0.2296818828537182 [Eh]
	 SCS Opposite-Spin Energy  =      -2.6556472881583577 [Eh]
	 SCS Correlation Energy    =      -2.8853291710120761 [Eh]
	 SCS Total Energy          =    -634.6094604530240986 [Eh]
	-----------------------------------------------------------

  Dipole Moment: [D]
     X:     1.3136      Y:    -2.5563      Z:     2.3303     Total:     3.7001

*** Psi4 exiting successfully. Buy a developer a beer!
