                               Psi4 1.4a3.dev225

  ==> Input File <==

--------------------------------------------------------------------------
#psi4
#
memory 32 gb

molecule  {
0 1
  O        0.0109280     1.9504830    -1.2088660
  N        1.2104930     0.4628600     0.0596820
  C        3.6816010    -0.9509880     0.4072830
  C        3.5342200     0.1692850    -0.6230390
  C        2.3335540    -1.6180450     0.6838790
  C        2.4642000     1.1676880    -0.1911000
  C        1.2914730    -0.5760260     1.0805660
  C        0.0527250     0.9288280    -0.5097470
  C       -1.1808260     0.1020470    -0.2945890
  C       -2.2579873     0.6585902     0.3741791
  C       -1.2622800    -1.1716740    -0.8705440
  C       -3.4454200    -0.1153760     0.4879690
  C       -2.2065840     2.0368470     0.9809810
  C       -2.4366510    -1.9182050    -0.7675160
  C       -3.5304630    -1.3875060    -0.0828830
  H        4.4130950    -1.6928310     0.0671840
  H        4.0710030    -0.5292960     1.3442740
  H        4.4878230     0.6919580    -0.7653020
  H        3.2457620    -0.2529490    -1.5933530
  H        1.9831950    -2.1398170    -0.2152240
  H        2.4267450    -2.3652010     1.4815110
  H        2.7768740     1.6847790     0.7291870
  H        2.2671880     1.9220510    -0.9540200
  H        0.3069530    -1.0243470     1.2170770
  H        1.5834140    -0.1085280     2.0346680
  H       -0.4031770    -1.5700500    -1.4080150
  H       -4.3043690     0.2928860     1.0181070
  H       -2.0253310     2.7815300     0.2022010
  H       -3.1368610     2.2826280     1.5002420
  H       -1.3844770     2.1136550     1.7007310
  H       -2.4977120    -2.9041740    -1.2220500
  H       -4.4499260    -1.9612690     0.0072960
units angstrom
no_reorient  #important for SAPT in psi4, default
symmetry c1  #important for SAPT in psi4, default
}

set PROPERTIES_ORIGIN ["COM"]
properties('MP2/aug-cc-pvtz', properties = ['dipole'])
--------------------------------------------------------------------------

    Molecular point group: c1
  Charge       = 0
  Multiplicity = 1
  Basis Set: AUG-CC-PVTZ
    Blend: AUG-CC-PVTZ
  Basis Set: (AUG-CC-PVTZ AUX)
    Blend: AUG-CC-PVTZ-JKFIT

    Orbital Energies [Eh]
    ---------------------

    Doubly Occupied:

       1A    -20.510722     2A    -15.583766     3A    -11.349017
       4A    -11.267162     5A    -11.254555     6A    -11.251861
       7A    -11.246150     8A    -11.242946     9A    -11.242465
      10A    -11.239363    11A    -11.239089    12A    -11.230633
      13A    -11.228307    14A    -11.225642    15A    -11.220430
      16A     -1.366981    17A     -1.249530    18A     -1.161793
      19A     -1.083553    20A     -1.051730    21A     -1.036427
      22A     -1.022891    23A     -0.942902    24A     -0.918886
      25A     -0.867074    26A     -0.843589    27A     -0.817661
      28A     -0.790076    29A     -0.742399    30A     -0.712330
      31A     -0.666695    32A     -0.653087    33A     -0.648163
      34A     -0.627841    35A     -0.620640    36A     -0.615355
      37A     -0.596816    38A     -0.588172    39A     -0.574427
      40A     -0.571811    41A     -0.560639    42A     -0.547743
      43A     -0.541700    44A     -0.525140    45A     -0.506150
      46A     -0.500722    47A     -0.494125    48A     -0.489816
      49A     -0.478616    50A     -0.469605    51A     -0.461510
      52A     -0.416277    53A     -0.366184    54A     -0.339742
      55A     -0.330217

  @DF-RHF Final Energy:  -631.72997254666211

   => Energetics <=

    Nuclear Repulsion Energy =           1000.2561733677256370
    One-Electron Energy =               -2843.7100423629981378
    Two-Electron Energy =                1211.7238964486102759
    Total Energy =                       -631.7299725466621112
  Basis Set: (AUG-CC-PVTZ AUX)
    Blend: AUG-CC-PVTZ-RI
    Molecular point group: c1

    Geometry (in Angstrom), charge = 0, multiplicity = 1:

       Center              X                  Y                   Z               Mass
    ------------   -----------------  -----------------  -----------------  -----------------
         O            0.055187126505     1.936776901362    -1.183217834814    15.994914619570
         N            1.254752126505     0.449153901362     0.085330165186    14.003074004430
         C            3.725860126505    -0.964694098638     0.432931165186    12.000000000000
         C            3.578479126505     0.155578901362    -0.597390834814    12.000000000000
         C            2.377813126505    -1.631751098638     0.709527165186    12.000000000000
         C            2.508459126505     1.153981901362    -0.165451834814    12.000000000000
         C            1.335732126505    -0.589732098638     1.106214165186    12.000000000000
         C            0.096984126505     0.915121901362    -0.484098834814    12.000000000000
         C           -1.136566873495     0.088340901362    -0.268940834814    12.000000000000
         C           -2.213728173495     0.644884101362     0.399827265186    12.000000000000
         C           -1.218020873495    -1.185380098638    -0.844895834814    12.000000000000
         C           -3.401160873495    -0.129082098638     0.513617165186    12.000000000000
         C           -2.162324873495     2.023140901362     1.006629165186    12.000000000000
         C           -2.392391873495    -1.931911098638    -0.741867834814    12.000000000000
         C           -3.486203873495    -1.401212098638    -0.057234834814    12.000000000000
         H            4.457354126505    -1.706537098638     0.092832165186     1.007825032230
         H            4.115262126505    -0.543002098638     1.369922165186     1.007825032230
         H            4.532082126505     0.678251901362    -0.739653834814     1.007825032230
         H            3.290021126505    -0.266655098638    -1.567704834814     1.007825032230
         H            2.027454126505    -2.153523098638    -0.189575834814     1.007825032230
         H            2.471004126505    -2.378907098638     1.507159165186     1.007825032230
         H            2.821133126505     1.671072901362     0.754835165186     1.007825032230
         H            2.311447126505     1.908344901362    -0.928371834814     1.007825032230
         H            0.351212126505    -1.038053098638     1.242725165186     1.007825032230
         H            1.627673126505    -0.122234098638     2.060316165186     1.007825032230
         H           -0.358917873495    -1.583756098638    -1.382366834814     1.007825032230
         H           -4.260109873495     0.279179901362     1.043755165186     1.007825032230
         H           -1.981071873495     2.767823901362     0.227849165186     1.007825032230
         H           -3.092601873495     2.268921901362     1.525890165186     1.007825032230
         H           -1.340217873495     2.099948901362     1.726379165186     1.007825032230
         H           -2.453452873495    -2.917880098638    -1.196401834814     1.007825032230
         H           -4.405666873495    -1.974975098638     0.032944165186     1.007825032230

  Basis Set: AUG-CC-PVTZ
    Blend: AUG-CC-PVTZ
  Basis Set: (AUG-CC-PVTZ AUX)
    Blend: AUG-CC-PVTZ-JKFIT
	 Reference Energy          =    -631.7299725466621112 [Eh]
	 Singles Energy            =      -0.0000000000000000 [Eh]
	 Same-Spin Energy          =      -0.6889795788239442 [Eh]
	 Opposite-Spin Energy      =      -2.2122544231007737 [Eh]
	 Correlation Energy        =      -2.9012340019247178 [Eh]
	 Total Energy              =    -634.6312065485868743 [Eh]

	 ================> DF-SCS-MP2 Energies <==================
	-----------------------------------------------------------
	 SCS Same-Spin Scale       =       0.3333333333333333 [-]
	 SCS Opposite-Spin Scale   =       1.2000000000000000 [-]
	 SCS Same-Spin Energy      =      -0.2296598596079814 [Eh]
	 SCS Opposite-Spin Energy  =      -2.6547053077209282 [Eh]
	 SCS Correlation Energy    =      -2.8843651673289097 [Eh]
	 SCS Total Energy          =    -634.6143377139910626 [Eh]
	-----------------------------------------------------------

  Dipole Moment: [D]
     X:     1.3933      Y:    -2.5180      Z:     2.3084     Total:     3.6892

*** Psi4 exiting successfully. Buy a developer a beer!
