                               Psi4 1.4a3.dev225

  ==> Input File <==

--------------------------------------------------------------------------
#psi4
#
memory 32 gb

molecule  {
0 1
  O        0.0109280     1.9504830    -1.2088660
  N        1.2104930     0.4628600     0.0596820
  C        3.6816010    -0.9509880     0.4072830
  C        3.5342200     0.1692850    -0.6230390
  C        2.2958971    -1.5220160     0.7113435
  C        2.4642000     1.1676880    -0.1911000
  C        1.2914730    -0.5760260     1.0805660
  C        0.0527250     0.9288280    -0.5097470
  C       -1.1808260     0.1020470    -0.2945890
  C       -2.2823960     0.6556420     0.3835130
  C       -1.2622800    -1.1716740    -0.8705440
  C       -3.4454200    -0.1153760     0.4879690
  C       -2.2065840     2.0368470     0.9809810
  C       -2.4366510    -1.9182050    -0.7675160
  C       -3.5304630    -1.3875060    -0.0828830
  H        4.4130950    -1.6928310     0.0671840
  H        4.0710030    -0.5292960     1.3442740
  H        4.4878230     0.6919580    -0.7653020
  H        3.2457620    -0.2529490    -1.5933530
  H        1.9831950    -2.1398170    -0.2152240
  H        2.4267450    -2.3652010     1.4815110
  H        2.7768740     1.6847790     0.7291870
  H        2.2671880     1.9220510    -0.9540200
  H        0.3069530    -1.0243470     1.2170770
  H        1.5834140    -0.1085280     2.0346680
  H       -0.4031770    -1.5700500    -1.4080150
  H       -4.3043690     0.2928860     1.0181070
  H       -2.0253310     2.7815300     0.2022010
  H       -3.1368610     2.2826280     1.5002420
  H       -1.3844770     2.1136550     1.7007310
  H       -2.4977120    -2.9041740    -1.2220500
  H       -4.4499260    -1.9612690     0.0072960
units angstrom
no_reorient  #important for SAPT in psi4, default
symmetry c1  #important for SAPT in psi4, default
}

set PROPERTIES_ORIGIN ["COM"]
properties('MP2/aug-cc-pvtz', properties = ['dipole'])
--------------------------------------------------------------------------

    Molecular point group: c1
  Charge       = 0
  Multiplicity = 1
  Basis Set: AUG-CC-PVTZ
    Blend: AUG-CC-PVTZ
  Basis Set: (AUG-CC-PVTZ AUX)
    Blend: AUG-CC-PVTZ-JKFIT

    Orbital Energies [Eh]
    ---------------------

    Doubly Occupied:

       1A    -20.511116     2A    -15.583727     3A    -11.349808
       4A    -11.264238     5A    -11.255143     6A    -11.252119
       7A    -11.246438     8A    -11.245164     9A    -11.242844
      10A    -11.239221    11A    -11.237139    12A    -11.235637
      13A    -11.229717    14A    -11.225063    15A    -11.220578
      16A     -1.367482    17A     -1.253706    18A     -1.161709
      19A     -1.088189    20A     -1.051349    21A     -1.043996
      22A     -1.026804    23A     -0.944364    24A     -0.921843
      25A     -0.864048    26A     -0.842427    27A     -0.814892
      28A     -0.789648    29A     -0.744125    30A     -0.714529
      31A     -0.668896    32A     -0.654451    33A     -0.650425
      34A     -0.628521    35A     -0.620716    36A     -0.615735
      37A     -0.596227    38A     -0.586953    39A     -0.575786
      40A     -0.571020    41A     -0.562505    42A     -0.559024
      43A     -0.542579    44A     -0.525975    45A     -0.510031
      46A     -0.496405    47A     -0.491239    48A     -0.489623
      49A     -0.482481    50A     -0.459071    51A     -0.451118
      52A     -0.417375    53A     -0.369513    54A     -0.340277
      55A     -0.330218

  @DF-RHF Final Energy:  -631.71721191478991

   => Energetics <=

    Nuclear Repulsion Energy =           1001.8834884658048168
    One-Electron Energy =               -2846.8749450008499480
    Two-Electron Energy =                1213.2742446202551037
    Total Energy =                       -631.7172119147899139
  Basis Set: (AUG-CC-PVTZ AUX)
    Blend: AUG-CC-PVTZ-RI
    Molecular point group: c1

    Geometry (in Angstrom), charge = 0, multiplicity = 1:

       Center              X                  Y                   Z               Mass
    ------------   -----------------  -----------------  -----------------  -----------------
         O            0.058853662622     1.931278136909    -1.185391706696    15.994914619570
         N            1.258418662622     0.443655136909     0.083156293304    14.003074004430
         C            3.729526662622    -0.970192863091     0.430757293304    12.000000000000
         C            3.582145662622     0.150080136909    -0.599564706696    12.000000000000
         C            2.343822762622    -1.541220863091     0.734817793304    12.000000000000
         C            2.512125662622     1.148483136909    -0.167625706696    12.000000000000
         C            1.339398662622    -0.595230863091     1.104040293304    12.000000000000
         C            0.100650662622     0.909623136909    -0.486272706696    12.000000000000
         C           -1.132900337378     0.082842136909    -0.271114706696    12.000000000000
         C           -2.234470337378     0.636437136909     0.406987293304    12.000000000000
         C           -1.214354337378    -1.190878863091    -0.847069706696    12.000000000000
         C           -3.397494337378    -0.134580863091     0.511443293304    12.000000000000
         C           -2.158658337378     2.017642136909     1.004455293304    12.000000000000
         C           -2.388725337378    -1.937409863091    -0.744041706696    12.000000000000
         C           -3.482537337378    -1.406710863091    -0.059408706696    12.000000000000
         H            4.461020662622    -1.712035863091     0.090658293304     1.007825032230
         H            4.118928662622    -0.548500863091     1.367748293304     1.007825032230
         H            4.535748662622     0.672753136909    -0.741827706696     1.007825032230
         H            3.293687662622    -0.272153863091    -1.569878706696     1.007825032230
         H            2.031120662622    -2.159021863091    -0.191749706696     1.007825032230
         H            2.474670662622    -2.384405863091     1.504985293304     1.007825032230
         H            2.824799662622     1.665574136909     0.752661293304     1.007825032230
         H            2.315113662622     1.902846136909    -0.930545706696     1.007825032230
         H            0.354878662622    -1.043551863091     1.240551293304     1.007825032230
         H            1.631339662622    -0.127732863091     2.058142293304     1.007825032230
         H           -0.355251337378    -1.589254863091    -1.384540706696     1.007825032230
         H           -4.256443337378     0.273681136909     1.041581293304     1.007825032230
         H           -1.977405337378     2.762325136909     0.225675293304     1.007825032230
         H           -3.088935337378     2.263423136909     1.523716293304     1.007825032230
         H           -1.336551337378     2.094450136909     1.724205293304     1.007825032230
         H           -2.449786337378    -2.923378863091    -1.198575706696     1.007825032230
         H           -4.402000337378    -1.980473863091     0.030770293304     1.007825032230

  Basis Set: AUG-CC-PVTZ
    Blend: AUG-CC-PVTZ
  Basis Set: (AUG-CC-PVTZ AUX)
    Blend: AUG-CC-PVTZ-JKFIT
	 Reference Energy          =    -631.7172119147899139 [Eh]
	 Singles Energy            =      -0.0000000000000000 [Eh]
	 Same-Spin Energy          =      -0.6900703261838810 [Eh]
	 Opposite-Spin Energy      =      -2.2135447923655440 [Eh]
	 Correlation Energy        =      -2.9036151185494248 [Eh]
	 Total Energy              =    -634.6208270333393102 [Eh]

	 ================> DF-SCS-MP2 Energies <==================
	-----------------------------------------------------------
	 SCS Same-Spin Scale       =       0.3333333333333333 [-]
	 SCS Opposite-Spin Scale   =       1.2000000000000000 [-]
	 SCS Same-Spin Energy      =      -0.2300234420612937 [Eh]
	 SCS Opposite-Spin Energy  =      -2.6562537508386526 [Eh]
	 SCS Correlation Energy    =      -2.8862771928999460 [Eh]
	 SCS Total Energy          =    -634.6034891076898248 [Eh]
	-----------------------------------------------------------

  Dipole Moment: [D]
     X:     1.4047      Y:    -2.4947      Z:     2.3061     Total:     3.6763

*** Psi4 exiting successfully. Buy a developer a beer!
