                               Psi4 1.4a3.dev225

  ==> Input File <==

--------------------------------------------------------------------------
#psi4
#
memory 32 gb

molecule  {
0 1
  O        0.0109280     1.9504830    -1.2088660
  N        1.2104930     0.4628600     0.0596820
  C        3.6816010    -0.9509880     0.4072830
  C        3.5342200     0.1692850    -0.6230390
  C        2.3335540    -1.6180450     0.6838790
  C        2.4642000     1.1676880    -0.1911000
  C        1.2914730    -0.5760260     1.0805660
  C        0.0527250     0.9288280    -0.5097470
  C       -1.1808260     0.1020470    -0.2945890
  C       -2.2667380     0.6477730     0.3738743
  C       -1.2622800    -1.1716740    -0.8705440
  C       -3.4454200    -0.1153760     0.4879690
  C       -2.2065840     2.0368470     0.9809810
  C       -2.4366510    -1.9182050    -0.7675160
  C       -3.5304630    -1.3875060    -0.0828830
  H        4.4130950    -1.6928310     0.0671840
  H        4.0710030    -0.5292960     1.3442740
  H        4.4878230     0.6919580    -0.7653020
  H        3.2457620    -0.2529490    -1.5933530
  H        1.9831950    -2.1398170    -0.2152240
  H        2.4267450    -2.3652010     1.4815110
  H        2.7768740     1.6847790     0.7291870
  H        2.2671880     1.9220510    -0.9540200
  H        0.3069530    -1.0243470     1.2170770
  H        1.5834140    -0.1085280     2.0346680
  H       -0.4031770    -1.5700500    -1.4080150
  H       -4.3043690     0.2928860     1.0181070
  H       -2.0253310     2.7815300     0.2022010
  H       -3.1368610     2.2826280     1.5002420
  H       -1.3844770     2.1136550     1.7007310
  H       -2.4977120    -2.9041740    -1.2220500
  H       -4.4499260    -1.9612690     0.0072960
units angstrom
no_reorient  #important for SAPT in psi4, default
symmetry c1  #important for SAPT in psi4, default
}

set PROPERTIES_ORIGIN ["COM"]
properties('MP2/aug-cc-pvtz', properties = ['dipole'])
--------------------------------------------------------------------------

    Molecular point group: c1
  Charge       = 0
  Multiplicity = 1
  Basis Set: AUG-CC-PVTZ
    Blend: AUG-CC-PVTZ
  Basis Set: (AUG-CC-PVTZ AUX)
    Blend: AUG-CC-PVTZ-JKFIT

    Orbital Energies [Eh]
    ---------------------

    Doubly Occupied:

       1A    -20.510842     2A    -15.583927     3A    -11.349421
       4A    -11.267204     5A    -11.254650     6A    -11.251035
       7A    -11.246171     8A    -11.243240     9A    -11.242535
      10A    -11.239116    11A    -11.238002    12A    -11.230681
      13A    -11.228353    14A    -11.225699    15A    -11.220528
      16A     -1.367076    17A     -1.249644    18A     -1.162510
      19A     -1.083647    20A     -1.050443    21A     -1.036822
      22A     -1.023311    23A     -0.942184    24A     -0.918936
      25A     -0.867328    26A     -0.844115    27A     -0.817361
      28A     -0.790517    29A     -0.742758    30A     -0.712617
      31A     -0.666611    32A     -0.653215    33A     -0.648183
      34A     -0.627866    35A     -0.620554    36A     -0.615498
      37A     -0.596945    38A     -0.588177    39A     -0.574178
      40A     -0.570999    41A     -0.560459    42A     -0.547514
      43A     -0.541485    44A     -0.524815    45A     -0.507242
      46A     -0.500997    47A     -0.492957    48A     -0.489683
      49A     -0.478579    50A     -0.469653    51A     -0.461586
      52A     -0.416734    53A     -0.366264    54A     -0.339764
      55A     -0.331318

  @DF-RHF Final Energy:  -631.73057409625744

   => Energetics <=

    Nuclear Repulsion Energy =           1000.2472563901461626
    One-Electron Energy =               -2843.6917577314652590
    Two-Electron Energy =                1211.7139272450617682
    Total Energy =                       -631.7305740962574419
  Basis Set: (AUG-CC-PVTZ AUX)
    Blend: AUG-CC-PVTZ-RI
    Molecular point group: c1

    Geometry (in Angstrom), charge = 0, multiplicity = 1:

       Center              X                  Y                   Z               Mass
    ------------   -----------------  -----------------  -----------------  -----------------
         O            0.055704075630     1.937415929334    -1.183199828701    15.994914619570
         N            1.255269075630     0.449792929334     0.085348171299    14.003074004430
         C            3.726377075630    -0.964055070666     0.432949171299    12.000000000000
         C            3.578996075630     0.156217929334    -0.597372828701    12.000000000000
         C            2.378330075630    -1.631112070666     0.709545171299    12.000000000000
         C            2.508976075630     1.154620929334    -0.165433828701    12.000000000000
         C            1.336249075630    -0.589093070666     1.106232171299    12.000000000000
         C            0.097501075630     0.915760929334    -0.484080828701    12.000000000000
         C           -1.136049924370     0.088979929334    -0.268922828701    12.000000000000
         C           -2.221961924370     0.634705929334     0.399540471299    12.000000000000
         C           -1.217503924370    -1.184741070666    -0.844877828701    12.000000000000
         C           -3.400643924370    -0.128443070666     0.513635171299    12.000000000000
         C           -2.161807924370     2.023779929334     1.006647171299    12.000000000000
         C           -2.391874924370    -1.931272070666    -0.741849828701    12.000000000000
         C           -3.485686924370    -1.400573070666    -0.057216828701    12.000000000000
         H            4.457871075630    -1.705898070666     0.092850171299     1.007825032230
         H            4.115779075630    -0.542363070666     1.369940171299     1.007825032230
         H            4.532599075630     0.678890929334    -0.739635828701     1.007825032230
         H            3.290538075630    -0.266016070666    -1.567686828701     1.007825032230
         H            2.027971075630    -2.152884070666    -0.189557828701     1.007825032230
         H            2.471521075630    -2.378268070666     1.507177171299     1.007825032230
         H            2.821650075630     1.671711929334     0.754853171299     1.007825032230
         H            2.311964075630     1.908983929334    -0.928353828701     1.007825032230
         H            0.351729075630    -1.037414070666     1.242743171299     1.007825032230
         H            1.628190075630    -0.121595070666     2.060334171299     1.007825032230
         H           -0.358400924370    -1.583117070666    -1.382348828701     1.007825032230
         H           -4.259592924370     0.279818929334     1.043773171299     1.007825032230
         H           -1.980554924370     2.768462929334     0.227867171299     1.007825032230
         H           -3.092084924370     2.269560929334     1.525908171299     1.007825032230
         H           -1.339700924370     2.100587929334     1.726397171299     1.007825032230
         H           -2.452935924370    -2.917241070666    -1.196383828701     1.007825032230
         H           -4.405149924370    -1.974336070666     0.032962171299     1.007825032230

  Basis Set: AUG-CC-PVTZ
    Blend: AUG-CC-PVTZ
  Basis Set: (AUG-CC-PVTZ AUX)
    Blend: AUG-CC-PVTZ-JKFIT
	 Reference Energy          =    -631.7305740962574419 [Eh]
	 Singles Energy            =      -0.0000000000000000 [Eh]
	 Same-Spin Energy          =      -0.6888937247342587 [Eh]
	 Opposite-Spin Energy      =      -2.2121191520809740 [Eh]
	 Correlation Energy        =      -2.9010128768152326 [Eh]
	 Total Energy              =    -634.6315869730726718 [Eh]

	 ================> DF-SCS-MP2 Energies <==================
	-----------------------------------------------------------
	 SCS Same-Spin Scale       =       0.3333333333333333 [-]
	 SCS Opposite-Spin Scale   =       1.2000000000000000 [-]
	 SCS Same-Spin Energy      =      -0.2296312415780862 [Eh]
	 SCS Opposite-Spin Energy  =      -2.6545429824971687 [Eh]
	 SCS Correlation Energy    =      -2.8841742240752550 [Eh]
	 SCS Total Energy          =    -634.6147483203327511 [Eh]
	-----------------------------------------------------------

  Dipole Moment: [D]
     X:     1.3996      Y:    -2.5326      Z:     2.3009     Total:     3.6968

*** Psi4 exiting successfully. Buy a developer a beer!
