                               Psi4 1.4a3.dev225

  ==> Input File <==

--------------------------------------------------------------------------
#psi4
#
memory 32 gb

molecule  {
0 1
  O        0.0109280     1.9504830    -1.2088660
  N        1.2872906     0.3792077     0.1619419
  C        3.6816010    -0.9509880     0.4072830
  C        3.5342200     0.1692850    -0.6230390
  C        2.3335540    -1.6180450     0.6838790
  C        2.4642000     1.1676880    -0.1911000
  C        1.2914730    -0.5760260     1.0805660
  C        0.0527250     0.9288280    -0.5097470
  C       -1.1808260     0.1020470    -0.2945890
  C       -2.2823960     0.6556420     0.3835130
  C       -1.2622800    -1.1716740    -0.8705440
  C       -3.4454200    -0.1153760     0.4879690
  C       -2.2065840     2.0368470     0.9809810
  C       -2.4366510    -1.9182050    -0.7675160
  C       -3.5304630    -1.3875060    -0.0828830
  H        4.4130950    -1.6928310     0.0671840
  H        4.0710030    -0.5292960     1.3442740
  H        4.4878230     0.6919580    -0.7653020
  H        3.2457620    -0.2529490    -1.5933530
  H        1.9831950    -2.1398170    -0.2152240
  H        2.4267450    -2.3652010     1.4815110
  H        2.7768740     1.6847790     0.7291870
  H        2.2671880     1.9220510    -0.9540200
  H        0.3069530    -1.0243470     1.2170770
  H        1.5834140    -0.1085280     2.0346680
  H       -0.4031770    -1.5700500    -1.4080150
  H       -4.3043690     0.2928860     1.0181070
  H       -2.0253310     2.7815300     0.2022010
  H       -3.1368610     2.2826280     1.5002420
  H       -1.3844770     2.1136550     1.7007310
  H       -2.4977120    -2.9041740    -1.2220500
  H       -4.4499260    -1.9612690     0.0072960
units angstrom
no_reorient  #important for SAPT in psi4, default
symmetry c1  #important for SAPT in psi4, default
}

set PROPERTIES_ORIGIN ["COM"]
properties('MP2/aug-cc-pvtz', properties = ['dipole'])
--------------------------------------------------------------------------

    Molecular point group: c1
  Charge       = 0
  Multiplicity = 1
  Basis Set: AUG-CC-PVTZ
    Blend: AUG-CC-PVTZ
  Basis Set: (AUG-CC-PVTZ AUX)
    Blend: AUG-CC-PVTZ-JKFIT

    Orbital Energies [Eh]
    ---------------------

    Doubly Occupied:

       1A    -20.537753     2A    -15.574437     3A    -11.369930
       4A    -11.255453     5A    -11.252606     6A    -11.250196
       7A    -11.249954     8A    -11.248658     9A    -11.245427
      10A    -11.241513    11A    -11.239597    12A    -11.223741
      13A    -11.223254    14A    -11.220632    15A    -11.220253
      16A     -1.375283    17A     -1.265949    18A     -1.164733
      19A     -1.071381    20A     -1.053474    21A     -1.036005
      22A     -1.030253    23A     -0.943821    24A     -0.898741
      25A     -0.867849    26A     -0.848123    27A     -0.817930
      28A     -0.784364    29A     -0.746747    30A     -0.712271
      31A     -0.673638    32A     -0.654874    33A     -0.650265
      34A     -0.626250    35A     -0.622309    36A     -0.614245
      37A     -0.597958    38A     -0.587965    39A     -0.579576
      40A     -0.576872    41A     -0.567774    42A     -0.547406
      43A     -0.542969    44A     -0.521640    45A     -0.512281
      46A     -0.499404    47A     -0.492630    48A     -0.489185
      49A     -0.479095    50A     -0.463903    51A     -0.462067
      52A     -0.418523    53A     -0.349023    54A     -0.343012
      55A     -0.333042

  @DF-RHF Final Energy:  -631.69397639331055

   => Energetics <=

    Nuclear Repulsion Energy =            999.7419833088274572
    One-Electron Energy =               -2842.5194545008839668
    Two-Electron Energy =                1211.0834947987459600
    Total Energy =                       -631.6939763933105496
  Basis Set: (AUG-CC-PVTZ AUX)
    Blend: AUG-CC-PVTZ-RI
    Molecular point group: c1

    Geometry (in Angstrom), charge = 0, multiplicity = 1:

       Center              X                  Y                   Z               Mass
    ------------   -----------------  -----------------  -----------------  -----------------
         O            0.051334942340     1.942717735914    -1.190818642370    15.994914619570
         N            1.327697542340     0.371442435914     0.179989257630    14.003074004430
         C            3.722007942340    -0.958753264086     0.425330357630    12.000000000000
         C            3.574626942340     0.161519735914    -0.604991642370    12.000000000000
         C            2.373960942340    -1.625810264086     0.701926357630    12.000000000000
         C            2.504606942340     1.159922735914    -0.173052642370    12.000000000000
         C            1.331879942340    -0.583791264086     1.098613357630    12.000000000000
         C            0.093131942340     0.921062735914    -0.491699642370    12.000000000000
         C           -1.140419057660     0.094281735914    -0.276541642370    12.000000000000
         C           -2.241989057660     0.647876735914     0.401560357630    12.000000000000
         C           -1.221873057660    -1.179439264086    -0.852496642370    12.000000000000
         C           -3.405013057660    -0.123141264086     0.506016357630    12.000000000000
         C           -2.166177057660     2.029081735914     0.999028357630    12.000000000000
         C           -2.396244057660    -1.925970264086    -0.749468642370    12.000000000000
         C           -3.490056057660    -1.395271264086    -0.064835642370    12.000000000000
         H            4.453501942340    -1.700596264086     0.085231357630     1.007825032230
         H            4.111409942340    -0.537061264086     1.362321357630     1.007825032230
         H            4.528229942340     0.684192735914    -0.747254642370     1.007825032230
         H            3.286168942340    -0.260714264086    -1.575305642370     1.007825032230
         H            2.023601942340    -2.147582264086    -0.197176642370     1.007825032230
         H            2.467151942340    -2.372966264086     1.499558357630     1.007825032230
         H            2.817280942340     1.677013735914     0.747234357630     1.007825032230
         H            2.307594942340     1.914285735914    -0.935972642370     1.007825032230
         H            0.347359942340    -1.032112264086     1.235124357630     1.007825032230
         H            1.623820942340    -0.116293264086     2.052715357630     1.007825032230
         H           -0.362770057660    -1.577815264086    -1.389967642370     1.007825032230
         H           -4.263962057660     0.285120735914     1.036154357630     1.007825032230
         H           -1.984924057660     2.773764735914     0.220248357630     1.007825032230
         H           -3.096454057660     2.274862735914     1.518289357630     1.007825032230
         H           -1.344070057660     2.105889735914     1.718778357630     1.007825032230
         H           -2.457305057660    -2.911939264086    -1.204002642370     1.007825032230
         H           -4.409519057660    -1.969034264086     0.025343357630     1.007825032230

  Basis Set: AUG-CC-PVTZ
    Blend: AUG-CC-PVTZ
  Basis Set: (AUG-CC-PVTZ AUX)
    Blend: AUG-CC-PVTZ-JKFIT
	 Reference Energy          =    -631.6939763933105496 [Eh]
	 Singles Energy            =      -0.0000000000000000 [Eh]
	 Same-Spin Energy          =      -0.6918956416167779 [Eh]
	 Opposite-Spin Energy      =      -2.2170502827095468 [Eh]
	 Correlation Energy        =      -2.9089459243263249 [Eh]
	 Total Energy              =    -634.6029223176368532 [Eh]

	 ================> DF-SCS-MP2 Energies <==================
	-----------------------------------------------------------
	 SCS Same-Spin Scale       =       0.3333333333333333 [-]
	 SCS Opposite-Spin Scale   =       1.2000000000000000 [-]
	 SCS Same-Spin Energy      =      -0.2306318805389259 [Eh]
	 SCS Opposite-Spin Energy  =      -2.6604603392514563 [Eh]
	 SCS Correlation Energy    =      -2.8910922197903823 [Eh]
	 SCS Total Energy          =    -634.5850686131009297 [Eh]
	-----------------------------------------------------------

  Dipole Moment: [D]
     X:     0.6887      Y:    -2.0355      Z:     1.7939     Total:     2.7992

*** Psi4 exiting successfully. Buy a developer a beer!
