                               Psi4 1.4a3.dev225

  ==> Input File <==

--------------------------------------------------------------------------
#psi4
#
memory 32 gb

molecule  {
0 1
  O        0.0109280     1.9504830    -1.2088660
  N        1.2104930     0.4628600     0.0596820
  C        3.6816010    -0.9509880     0.4072830
  C        3.5342200     0.1692850    -0.6230390
  C        2.3335540    -1.6180450     0.6838790
  C        2.4642000     1.1676880    -0.1911000
  C        1.3597552    -0.6443042     1.0545731
  C        0.0527250     0.9288280    -0.5097470
  C       -1.1808260     0.1020470    -0.2945890
  C       -2.2823960     0.6556420     0.3835130
  C       -1.2622800    -1.1716740    -0.8705440
  C       -3.4454200    -0.1153760     0.4879690
  C       -2.2065840     2.0368470     0.9809810
  C       -2.4366510    -1.9182050    -0.7675160
  C       -3.5304630    -1.3875060    -0.0828830
  H        4.4130950    -1.6928310     0.0671840
  H        4.0710030    -0.5292960     1.3442740
  H        4.4878230     0.6919580    -0.7653020
  H        3.2457620    -0.2529490    -1.5933530
  H        1.9831950    -2.1398170    -0.2152240
  H        2.4267450    -2.3652010     1.4815110
  H        2.7768740     1.6847790     0.7291870
  H        2.2671880     1.9220510    -0.9540200
  H        0.3069530    -1.0243470     1.2170770
  H        1.5834140    -0.1085280     2.0346680
  H       -0.4031770    -1.5700500    -1.4080150
  H       -4.3043690     0.2928860     1.0181070
  H       -2.0253310     2.7815300     0.2022010
  H       -3.1368610     2.2826280     1.5002420
  H       -1.3844770     2.1136550     1.7007310
  H       -2.4977120    -2.9041740    -1.2220500
  H       -4.4499260    -1.9612690     0.0072960
units angstrom
no_reorient  #important for SAPT in psi4, default
symmetry c1  #important for SAPT in psi4, default
}

set PROPERTIES_ORIGIN ["COM"]
properties('MP2/aug-cc-pvtz', properties = ['dipole'])
--------------------------------------------------------------------------

    Molecular point group: c1
  Charge       = 0
  Multiplicity = 1
  Basis Set: AUG-CC-PVTZ
    Blend: AUG-CC-PVTZ
  Basis Set: (AUG-CC-PVTZ AUX)
    Blend: AUG-CC-PVTZ-JKFIT

    Orbital Energies [Eh]
    ---------------------

    Doubly Occupied:

       1A    -20.509442     2A    -15.582939     3A    -11.349195
       4A    -11.272891     5A    -11.252748     6A    -11.251349
       7A    -11.245958     8A    -11.244491     9A    -11.242237
      10A    -11.238698    11A    -11.236505    12A    -11.230065
      13A    -11.228463    14A    -11.226263    15A    -11.219740
      16A     -1.365233    17A     -1.244415    18A     -1.160953
      19A     -1.092996    20A     -1.050822    21A     -1.042679
      22A     -1.024651    23A     -0.942830    24A     -0.919105
      25A     -0.862643    26A     -0.844694    27A     -0.815819
      28A     -0.792527    29A     -0.739998    30A     -0.710318
      31A     -0.666819    32A     -0.651373    33A     -0.649367
      34A     -0.626574    35A     -0.620759    36A     -0.615799
      37A     -0.597959    38A     -0.588283    39A     -0.575056
      40A     -0.571908    41A     -0.556830    42A     -0.555649
      43A     -0.541028    44A     -0.524426    45A     -0.510536
      46A     -0.499684    47A     -0.490622    48A     -0.488936
      49A     -0.480400    50A     -0.467570    51A     -0.454935
      52A     -0.415690    53A     -0.367895    54A     -0.339309
      55A     -0.329458

  @DF-RHF Final Energy:  -631.71848360168758

   => Energetics <=

    Nuclear Repulsion Energy =            999.9713403086816470
    One-Electron Energy =               -2843.1245794832730098
    Two-Electron Energy =                1211.4347555729036685
    Total Energy =                       -631.7184836016876943
  Basis Set: (AUG-CC-PVTZ AUX)
    Blend: AUG-CC-PVTZ-RI
    Molecular point group: c1

    Geometry (in Angstrom), charge = 0, multiplicity = 1:

       Center              X                  Y                   Z               Mass
    ------------   -----------------  -----------------  -----------------  -----------------
         O            0.052595291860     1.940984613333    -1.182233701491    15.994914619570
         N            1.252160291860     0.453361613333     0.086314298509    14.003074004430
         C            3.723268291860    -0.960486386667     0.433915298509    12.000000000000
         C            3.575887291860     0.159786613333    -0.596406701491    12.000000000000
         C            2.375221291860    -1.627543386667     0.710511298509    12.000000000000
         C            2.505867291860     1.158189613333    -0.164467701491    12.000000000000
         C            1.401422491860    -0.653802586667     1.081205398509    12.000000000000
         C            0.094392291860     0.919329613333    -0.483114701491    12.000000000000
         C           -1.139158708140     0.092548613333    -0.267956701491    12.000000000000
         C           -2.240728708140     0.646143613333     0.410145298509    12.000000000000
         C           -1.220612708140    -1.181172386667    -0.843911701491    12.000000000000
         C           -3.403752708140    -0.124874386667     0.514601298509    12.000000000000
         C           -2.164916708140     2.027348613333     1.007613298509    12.000000000000
         C           -2.394983708140    -1.927703386667    -0.740883701491    12.000000000000
         C           -3.488795708140    -1.397004386667    -0.056250701491    12.000000000000
         H            4.454762291860    -1.702329386667     0.093816298509     1.007825032230
         H            4.112670291860    -0.538794386667     1.370906298509     1.007825032230
         H            4.529490291860     0.682459613333    -0.738669701491     1.007825032230
         H            3.287429291860    -0.262447386667    -1.566720701491     1.007825032230
         H            2.024862291860    -2.149315386667    -0.188591701491     1.007825032230
         H            2.468412291860    -2.374699386667     1.508143298509     1.007825032230
         H            2.818541291860     1.675280613333     0.755819298509     1.007825032230
         H            2.308855291860     1.912552613333    -0.927387701491     1.007825032230
         H            0.348620291860    -1.033845386667     1.243709298509     1.007825032230
         H            1.625081291860    -0.118026386667     2.061300298509     1.007825032230
         H           -0.361509708140    -1.579548386667    -1.381382701491     1.007825032230
         H           -4.262701708140     0.283387613333     1.044739298509     1.007825032230
         H           -1.983663708140     2.772031613333     0.228833298509     1.007825032230
         H           -3.095193708140     2.273129613333     1.526874298509     1.007825032230
         H           -1.342809708140     2.104156613333     1.727363298509     1.007825032230
         H           -2.456044708140    -2.913672386667    -1.195417701491     1.007825032230
         H           -4.408258708140    -1.970767386667     0.033928298509     1.007825032230

  Basis Set: AUG-CC-PVTZ
    Blend: AUG-CC-PVTZ
  Basis Set: (AUG-CC-PVTZ AUX)
    Blend: AUG-CC-PVTZ-JKFIT
	 Reference Energy          =    -631.7184836016875806 [Eh]
	 Singles Energy            =      -0.0000000000000000 [Eh]
	 Same-Spin Energy          =      -0.6901005120369750 [Eh]
	 Opposite-Spin Energy      =      -2.2137277563325597 [Eh]
	 Correlation Energy        =      -2.9038282683695344 [Eh]
	 Total Energy              =    -634.6223118700571604 [Eh]

	 ================> DF-SCS-MP2 Energies <==================
	-----------------------------------------------------------
	 SCS Same-Spin Scale       =       0.3333333333333333 [-]
	 SCS Opposite-Spin Scale   =       1.2000000000000000 [-]
	 SCS Same-Spin Energy      =      -0.2300335040123250 [Eh]
	 SCS Opposite-Spin Energy  =      -2.6564733075990716 [Eh]
	 SCS Correlation Energy    =      -2.8865068116113966 [Eh]
	 SCS Total Energy          =    -634.6049904132989923 [Eh]
	-----------------------------------------------------------

  Dipole Moment: [D]
     X:     1.5146      Y:    -2.6664      Z:     2.3145     Total:     3.8420

*** Psi4 exiting successfully. Buy a developer a beer!
