                               Psi4 1.4a3.dev225

  ==> Input File <==

--------------------------------------------------------------------------
#psi4
#
memory 32 gb

molecule  {
0 1
  O        0.0109280     1.9504830    -1.2088660
  N        1.2104930     0.4628600     0.0596820
  C        3.6816010    -0.9509880     0.4072830
  C        3.5342200     0.1692850    -0.6230390
  C        2.3335540    -1.6180450     0.6838790
  C        2.4642000     1.1676880    -0.1911000
  C        1.2914730    -0.5760260     1.0805660
  C        0.0527250     0.9288280    -0.5097470
  C       -1.1808260     0.1020470    -0.2945890
  C       -2.2823960     0.6556420     0.3835130
  C       -1.2622800    -1.1716740    -0.8705440
  C       -3.4454200    -0.1153760     0.4879690
  C       -2.2065840     2.0368470     0.9809810
  C       -2.4366510    -1.9182050    -0.7675160
  C       -3.5304630    -1.3875060    -0.0828830
  H        4.4130950    -1.6928310     0.0671840
  H        4.0710030    -0.5292960     1.3442740
  H        4.4878230     0.6919580    -0.7653020
  H        3.2457620    -0.2529490    -1.5933530
  H        1.9831950    -2.1398170    -0.2152240
  H        2.4267450    -2.3652010     1.4815110
  H        2.7768740     1.6847790     0.7291870
  H        2.2671880     1.9220510    -0.9540200
  H        0.3069530    -1.0243470     1.2170770
  H        1.5834140    -0.1085280     2.0346680
  H       -0.4031770    -1.5700500    -1.4080150
  H       -4.3043690     0.2928860     1.0181070
  H       -1.9619629     2.8014116     0.2396948
  H       -3.1368610     2.2826280     1.5002420
  H       -1.3844770     2.1136550     1.7007310
  H       -2.4977120    -2.9041740    -1.2220500
  H       -4.4499260    -1.9612690     0.0072960
units angstrom
no_reorient  #important for SAPT in psi4, default
symmetry c1  #important for SAPT in psi4, default
}

set PROPERTIES_ORIGIN ["COM"]
properties('MP2/aug-cc-pvtz', properties = ['dipole'])
--------------------------------------------------------------------------

    Molecular point group: c1
  Charge       = 0
  Multiplicity = 1
  Basis Set: AUG-CC-PVTZ
    Blend: AUG-CC-PVTZ
  Basis Set: (AUG-CC-PVTZ AUX)
    Blend: AUG-CC-PVTZ-JKFIT

    Orbital Energies [Eh]
    ---------------------

    Doubly Occupied:

       1A    -20.510976     2A    -15.584067     3A    -11.349654
       4A    -11.267133     5A    -11.254761     6A    -11.252317
       7A    -11.246443     8A    -11.245144     9A    -11.242785
      10A    -11.239253    11A    -11.237238    12A    -11.230695
      13A    -11.228388    14A    -11.225769    15A    -11.220185
      16A     -1.367227    17A     -1.249740    18A     -1.161512
      19A     -1.083699    20A     -1.050693    21A     -1.037384
      22A     -1.023291    23A     -0.943286    24A     -0.919005
      25A     -0.867569    26A     -0.844285    27A     -0.815519
      28A     -0.791298    29A     -0.742879    30A     -0.712603
      31A     -0.667180    32A     -0.653133    33A     -0.648774
      34A     -0.628005    35A     -0.620550    36A     -0.615622
      37A     -0.596354    38A     -0.587903    39A     -0.576744
      40A     -0.566418    41A     -0.560328    42A     -0.547315
      43A     -0.544077    44A     -0.525094    45A     -0.509105
      46A     -0.502154    47A     -0.491049    48A     -0.489354
      49A     -0.478693    50A     -0.469706    51A     -0.461635
      52A     -0.417206    53A     -0.366365    54A     -0.340108
      55A     -0.329774

  @DF-RHF Final Energy:  -631.73009390828258

   => Energetics <=

    Nuclear Repulsion Energy =            999.9845834457294131
    One-Electron Energy =               -2843.1544685831295283
    Two-Electron Energy =                1211.4397912291174180
    Total Energy =                       -631.7300939082826972
  Basis Set: (AUG-CC-PVTZ AUX)
    Blend: AUG-CC-PVTZ-RI
    Molecular point group: c1

    Geometry (in Angstrom), charge = 0, multiplicity = 1:

       Center              X                  Y                   Z               Mass
    ------------   -----------------  -----------------  -----------------  -----------------
         O            0.056314676838     1.936852425161    -1.183955260316    15.994914619570
         N            1.255879676838     0.449229425161     0.084592739684    14.003074004430
         C            3.726987676838    -0.964618574839     0.432193739684    12.000000000000
         C            3.579606676838     0.155654425161    -0.598128260316    12.000000000000
         C            2.378940676838    -1.631675574839     0.708789739684    12.000000000000
         C            2.509586676838     1.154057425161    -0.166189260316    12.000000000000
         C            1.336859676838    -0.589656574839     1.105476739684    12.000000000000
         C            0.098111676838     0.915197425161    -0.484836260316    12.000000000000
         C           -1.135439323162     0.088416425161    -0.269678260316    12.000000000000
         C           -2.237009323162     0.642011425161     0.408423739684    12.000000000000
         C           -1.216893323162    -1.185304574839    -0.845633260316    12.000000000000
         C           -3.400033323162    -0.129006574839     0.512879739684    12.000000000000
         C           -2.161197323162     2.023216425161     1.005891739684    12.000000000000
         C           -2.391264323162    -1.931835574839    -0.742605260316    12.000000000000
         C           -3.485076323162    -1.401136574839    -0.057972260316    12.000000000000
         H            4.458481676838    -1.706461574839     0.092094739684     1.007825032230
         H            4.116389676838    -0.542926574839     1.369184739684     1.007825032230
         H            4.533209676838     0.678327425161    -0.740391260316     1.007825032230
         H            3.291148676838    -0.266579574839    -1.568442260316     1.007825032230
         H            2.028581676838    -2.153447574839    -0.190313260316     1.007825032230
         H            2.472131676838    -2.378831574839     1.506421739684     1.007825032230
         H            2.822260676838     1.671148425161     0.754097739684     1.007825032230
         H            2.312574676838     1.908420425161    -0.929109260316     1.007825032230
         H            0.352339676838    -1.037977574839     1.241987739684     1.007825032230
         H            1.628800676838    -0.122158574839     2.059578739684     1.007825032230
         H           -0.357790323162    -1.583680574839    -1.383104260316     1.007825032230
         H           -4.258982323162     0.279255425161     1.043017739684     1.007825032230
         H           -1.916576223162     2.787781025161     0.264605539684     1.007825032230
         H           -3.091474323162     2.268997425161     1.525152739684     1.007825032230
         H           -1.339090323162     2.100024425161     1.725641739684     1.007825032230
         H           -2.452325323162    -2.917804574839    -1.197139260316     1.007825032230
         H           -4.404539323162    -1.974899574839     0.032206739684     1.007825032230

  Basis Set: AUG-CC-PVTZ
    Blend: AUG-CC-PVTZ
  Basis Set: (AUG-CC-PVTZ AUX)
    Blend: AUG-CC-PVTZ-JKFIT
	 Reference Energy          =    -631.7300939082825835 [Eh]
	 Singles Energy            =      -0.0000000000000000 [Eh]
	 Same-Spin Energy          =      -0.6890700165154875 [Eh]
	 Opposite-Spin Energy      =      -2.2122740239247767 [Eh]
	 Correlation Energy        =      -2.9013440404402644 [Eh]
	 Total Energy              =    -634.6314379487228052 [Eh]

	 ================> DF-SCS-MP2 Energies <==================
	-----------------------------------------------------------
	 SCS Same-Spin Scale       =       0.3333333333333333 [-]
	 SCS Opposite-Spin Scale   =       1.2000000000000000 [-]
	 SCS Same-Spin Energy      =      -0.2296900055051625 [Eh]
	 SCS Opposite-Spin Energy  =      -2.6547288287097319 [Eh]
	 SCS Correlation Energy    =      -2.8844188342148942 [Eh]
	 SCS Total Energy          =    -634.6145127424974817 [Eh]
	-----------------------------------------------------------

  Dipole Moment: [D]
     X:     1.4346      Y:    -2.5215      Z:     2.3094     Total:     3.7080

*** Psi4 exiting successfully. Buy a developer a beer!
