                               Psi4 1.4a3.dev225

  ==> Input File <==

--------------------------------------------------------------------------
#psi4
#
memory 32 gb

molecule  {
0 1
  O        0.0109280     1.9504830    -1.2088660
  N        1.2104930     0.4628600     0.0596820
  C        3.6816010    -0.9509880     0.4072830
  C        3.4390186     0.1332802    -0.7461241
  C        2.3335540    -1.6180450     0.6838790
  C        2.4642000     1.1676880    -0.1911000
  C        1.2914730    -0.5760260     1.0805660
  C        0.0527250     0.9288280    -0.5097470
  C       -1.1808260     0.1020470    -0.2945890
  C       -2.2823960     0.6556420     0.3835130
  C       -1.2622800    -1.1716740    -0.8705440
  C       -3.4454200    -0.1153760     0.4879690
  C       -2.2065840     2.0368470     0.9809810
  C       -2.4366510    -1.9182050    -0.7675160
  C       -3.5304630    -1.3875060    -0.0828830
  H        4.4130950    -1.6928310     0.0671840
  H        4.0710030    -0.5292960     1.3442740
  H        4.4878230     0.6919580    -0.7653020
  H        3.2457620    -0.2529490    -1.5933530
  H        1.9831950    -2.1398170    -0.2152240
  H        2.4267450    -2.3652010     1.4815110
  H        2.7768740     1.6847790     0.7291870
  H        2.2671880     1.9220510    -0.9540200
  H        0.3069530    -1.0243470     1.2170770
  H        1.5834140    -0.1085280     2.0346680
  H       -0.4031770    -1.5700500    -1.4080150
  H       -4.3043690     0.2928860     1.0181070
  H       -2.0253310     2.7815300     0.2022010
  H       -3.1368610     2.2826280     1.5002420
  H       -1.3844770     2.1136550     1.7007310
  H       -2.4977120    -2.9041740    -1.2220500
  H       -4.4499260    -1.9612690     0.0072960
units angstrom
no_reorient  #important for SAPT in psi4, default
symmetry c1  #important for SAPT in psi4, default
}

set PROPERTIES_ORIGIN ["COM"]
properties('MP2/aug-cc-pvtz', properties = ['dipole'])
--------------------------------------------------------------------------

    Molecular point group: c1
  Charge       = 0
  Multiplicity = 1
  Basis Set: AUG-CC-PVTZ
    Blend: AUG-CC-PVTZ
  Basis Set: (AUG-CC-PVTZ AUX)
    Blend: AUG-CC-PVTZ-JKFIT

    Orbital Energies [Eh]
    ---------------------

    Doubly Occupied:

       1A    -20.510362     2A    -15.582433     3A    -11.348793
       4A    -11.266641     5A    -11.256039     6A    -11.251734
       7A    -11.246282     8A    -11.244903     9A    -11.242548
      10A    -11.239140    11A    -11.236957    12A    -11.231740
      13A    -11.228788    14A    -11.225739    15A    -11.220337
      16A     -1.366691    17A     -1.249766    18A     -1.161360
      19A     -1.077838    20A     -1.050694    21A     -1.037953
      22A     -1.022362    23A     -0.942430    24A     -0.916865
      25A     -0.870058    26A     -0.842251    27A     -0.816510
      28A     -0.798626    29A     -0.746286    30A     -0.711683
      31A     -0.666299    32A     -0.656141    33A     -0.648322
      34A     -0.630592    35A     -0.618380    36A     -0.617020
      37A     -0.597756    38A     -0.581291    39A     -0.575208
      40A     -0.571676    41A     -0.556552    42A     -0.542688
      43A     -0.537034    44A     -0.534231    45A     -0.519631
      46A     -0.506296    47A     -0.493229    48A     -0.489970
      49A     -0.484847    50A     -0.465377    51A     -0.437351
      52A     -0.414651    53A     -0.365789    54A     -0.339910
      55A     -0.329877

  @DF-RHF Final Energy:  -631.69853555293196

   => Energetics <=

    Nuclear Repulsion Energy =           1000.3319743273218592
    One-Electron Energy =               -2843.8131641591012340
    Two-Electron Energy =                1211.7826542788475308
    Total Energy =                       -631.6985355529318440
  Basis Set: (AUG-CC-PVTZ AUX)
    Blend: AUG-CC-PVTZ-RI
    Molecular point group: c1

    Geometry (in Angstrom), charge = 0, multiplicity = 1:

       Center              X                  Y                   Z               Mass
    ------------   -----------------  -----------------  -----------------  -----------------
         O            0.062253113971     1.939078056614    -1.176497962885    15.994914619570
         N            1.261818113971     0.451455056614     0.092050037115    14.003074004430
         C            3.732926113971    -0.962392943386     0.439651037115    12.000000000000
         C            3.490343713971     0.121875256614    -0.713756062885    12.000000000000
         C            2.384879113971    -1.629449943386     0.716247037115    12.000000000000
         C            2.515525113971     1.156283056614    -0.158731962885    12.000000000000
         C            1.342798113971    -0.587430943386     1.112934037115    12.000000000000
         C            0.104050113971     0.917423056614    -0.477378962885    12.000000000000
         C           -1.129500886029     0.090642056614    -0.262220962885    12.000000000000
         C           -2.231070886029     0.644237056614     0.415881037115    12.000000000000
         C           -1.210954886029    -1.183078943386    -0.838175962885    12.000000000000
         C           -3.394094886029    -0.126780943386     0.520337037115    12.000000000000
         C           -2.155258886029     2.025442056614     1.013349037115    12.000000000000
         C           -2.385325886029    -1.929609943386    -0.735147962885    12.000000000000
         C           -3.479137886029    -1.398910943386    -0.050514962885    12.000000000000
         H            4.464420113971    -1.704235943386     0.099552037115     1.007825032230
         H            4.122328113971    -0.540700943386     1.376642037115     1.007825032230
         H            4.539148113971     0.680553056614    -0.732933962885     1.007825032230
         H            3.297087113971    -0.264353943386    -1.560984962885     1.007825032230
         H            2.034520113971    -2.151221943386    -0.182855962885     1.007825032230
         H            2.478070113971    -2.376605943386     1.513879037115     1.007825032230
         H            2.828199113971     1.673374056614     0.761555037115     1.007825032230
         H            2.318513113971     1.910646056614    -0.921651962885     1.007825032230
         H            0.358278113971    -1.035751943386     1.249445037115     1.007825032230
         H            1.634739113971    -0.119932943386     2.067036037115     1.007825032230
         H           -0.351851886029    -1.581454943386    -1.375646962885     1.007825032230
         H           -4.253043886029     0.281481056614     1.050475037115     1.007825032230
         H           -1.974005886029     2.770125056614     0.234569037115     1.007825032230
         H           -3.085535886029     2.271223056614     1.532610037115     1.007825032230
         H           -1.333151886029     2.102250056614     1.733099037115     1.007825032230
         H           -2.446386886029    -2.915578943386    -1.189681962885     1.007825032230
         H           -4.398600886029    -1.972673943386     0.039664037115     1.007825032230

  Basis Set: AUG-CC-PVTZ
    Blend: AUG-CC-PVTZ
  Basis Set: (AUG-CC-PVTZ AUX)
    Blend: AUG-CC-PVTZ-JKFIT
	 Reference Energy          =    -631.6985355529319577 [Eh]
	 Singles Energy            =      -0.0000000000000000 [Eh]
	 Same-Spin Energy          =      -0.6893003758041379 [Eh]
	 Opposite-Spin Energy      =      -2.2137602955185409 [Eh]
	 Correlation Energy        =      -2.9030606713226788 [Eh]
	 Total Energy              =    -634.6015962242546493 [Eh]

	 ================> DF-SCS-MP2 Energies <==================
	-----------------------------------------------------------
	 SCS Same-Spin Scale       =       0.3333333333333333 [-]
	 SCS Opposite-Spin Scale   =       1.2000000000000000 [-]
	 SCS Same-Spin Energy      =      -0.2297667919347126 [Eh]
	 SCS Opposite-Spin Energy  =      -2.6565123546222491 [Eh]
	 SCS Correlation Energy    =      -2.8862791465569617 [Eh]
	 SCS Total Energy          =    -634.5848146994889021 [Eh]
	-----------------------------------------------------------

  Dipole Moment: [D]
     X:     1.3662      Y:    -2.5202      Z:     2.3046     Total:     3.6782

*** Psi4 exiting successfully. Buy a developer a beer!
