                               Psi4 1.4a3.dev225

  ==> Input File <==

--------------------------------------------------------------------------
#psi4
#
memory 32 gb

molecule  {
0 1
  O        0.0109280     1.9504830    -1.2088660
  N        1.2104930     0.4628600     0.0596820
  C        3.6816010    -0.9509880     0.4072830
  C        3.5342200     0.1692850    -0.6230390
  C        2.3335540    -1.6180450     0.6838790
  C        2.4642000     1.1676880    -0.1911000
  C        1.2859218    -0.5048100     1.0105841
  C        0.0527250     0.9288280    -0.5097470
  C       -1.1808260     0.1020470    -0.2945890
  C       -2.2823960     0.6556420     0.3835130
  C       -1.2622800    -1.1716740    -0.8705440
  C       -3.4454200    -0.1153760     0.4879690
  C       -2.2065840     2.0368470     0.9809810
  C       -2.4366510    -1.9182050    -0.7675160
  C       -3.5304630    -1.3875060    -0.0828830
  H        4.4130950    -1.6928310     0.0671840
  H        4.0710030    -0.5292960     1.3442740
  H        4.4878230     0.6919580    -0.7653020
  H        3.2457620    -0.2529490    -1.5933530
  H        1.9831950    -2.1398170    -0.2152240
  H        2.4267450    -2.3652010     1.4815110
  H        2.7768740     1.6847790     0.7291870
  H        2.2671880     1.9220510    -0.9540200
  H        0.3069530    -1.0243470     1.2170770
  H        1.5834140    -0.1085280     2.0346680
  H       -0.4031770    -1.5700500    -1.4080150
  H       -4.3043690     0.2928860     1.0181070
  H       -2.0253310     2.7815300     0.2022010
  H       -3.1368610     2.2826280     1.5002420
  H       -1.3844770     2.1136550     1.7007310
  H       -2.4977120    -2.9041740    -1.2220500
  H       -4.4499260    -1.9612690     0.0072960
units angstrom
no_reorient  #important for SAPT in psi4, default
symmetry c1  #important for SAPT in psi4, default
}

set PROPERTIES_ORIGIN ["COM"]
properties('MP2/aug-cc-pvtz', properties = ['dipole'])
--------------------------------------------------------------------------

    Molecular point group: c1
  Charge       = 0
  Multiplicity = 1
  Basis Set: AUG-CC-PVTZ
    Blend: AUG-CC-PVTZ
  Basis Set: (AUG-CC-PVTZ AUX)
    Blend: AUG-CC-PVTZ-JKFIT

    Orbital Energies [Eh]
    ---------------------

    Doubly Occupied:

       1A    -20.515689     2A    -15.586720     3A    -11.353860
       4A    -11.265981     5A    -11.257360     6A    -11.252695
       7A    -11.247378     8A    -11.246197     9A    -11.243238
      10A    -11.239664    11A    -11.237532    12A    -11.229062
      13A    -11.226776    14A    -11.226013    15A    -11.221176
      16A     -1.373755    17A     -1.272860    18A     -1.162397
      19A     -1.083384    20A     -1.051461    21A     -1.035439
      22A     -1.023188    23A     -0.944632    24A     -0.919282
      25A     -0.870624    26A     -0.847085    27A     -0.817528
      28A     -0.792979    29A     -0.745334    30A     -0.716322
      31A     -0.667592    32A     -0.656249    33A     -0.653462
      34A     -0.626684    35A     -0.622458    36A     -0.616747
      37A     -0.596526    38A     -0.588691    39A     -0.576808
      40A     -0.573815    41A     -0.564935    42A     -0.544351
      43A     -0.541437    44A     -0.524116    45A     -0.508281
      46A     -0.496985    47A     -0.491689    48A     -0.489308
      49A     -0.477200    50A     -0.468753    51A     -0.459985
      52A     -0.419781    53A     -0.363017    54A     -0.340060
      55A     -0.330659

  @DF-RHF Final Energy:  -631.71985858281664

   => Energetics <=

    Nuclear Repulsion Energy =           1001.8390113086767315
    One-Electron Energy =               -2846.7073380977594752
    Two-Electron Energy =                1213.1484682062662159
    Total Energy =                       -631.7198585828166415
  Basis Set: (AUG-CC-PVTZ AUX)
    Blend: AUG-CC-PVTZ-RI
    Molecular point group: c1

    Geometry (in Angstrom), charge = 0, multiplicity = 1:

       Center              X                  Y                   Z               Mass
    ------------   -----------------  -----------------  -----------------  -----------------
         O            0.056957012810     1.932743969201    -1.179635043663    15.994914619570
         N            1.256522012810     0.445120969201     0.088912956337    14.003074004430
         C            3.727630012810    -0.968727030799     0.436513956337    12.000000000000
         C            3.580249012810     0.151545969201    -0.593808043663    12.000000000000
         C            2.379583012810    -1.635784030799     0.713109956337    12.000000000000
         C            2.510229012810     1.149948969201    -0.161869043663    12.000000000000
         C            1.331950812810    -0.522549030799     1.039815056337    12.000000000000
         C            0.098754012810     0.911088969201    -0.480516043663    12.000000000000
         C           -1.134796987190     0.084307969201    -0.265358043663    12.000000000000
         C           -2.236366987190     0.637902969201     0.412743956337    12.000000000000
         C           -1.216250987190    -1.189413030799    -0.841313043663    12.000000000000
         C           -3.399390987190    -0.133115030799     0.517199956337    12.000000000000
         C           -2.160554987190     2.019107969201     1.010211956337    12.000000000000
         C           -2.390621987190    -1.935944030799    -0.738285043663    12.000000000000
         C           -3.484433987190    -1.405245030799    -0.053652043663    12.000000000000
         H            4.459124012810    -1.710570030799     0.096414956337     1.007825032230
         H            4.117032012810    -0.547035030799     1.373504956337     1.007825032230
         H            4.533852012810     0.674218969201    -0.736071043663     1.007825032230
         H            3.291791012810    -0.270688030799    -1.564122043663     1.007825032230
         H            2.029224012810    -2.157556030799    -0.185993043663     1.007825032230
         H            2.472774012810    -2.382940030799     1.510741956337     1.007825032230
         H            2.822903012810     1.667039969201     0.758417956337     1.007825032230
         H            2.313217012810     1.904311969201    -0.924789043663     1.007825032230
         H            0.352982012810    -1.042086030799     1.246307956337     1.007825032230
         H            1.629443012810    -0.126267030799     2.063898956337     1.007825032230
         H           -0.357147987190    -1.587789030799    -1.378784043663     1.007825032230
         H           -4.258339987190     0.275146969201     1.047337956337     1.007825032230
         H           -1.979301987190     2.763790969201     0.231431956337     1.007825032230
         H           -3.090831987190     2.264888969201     1.529472956337     1.007825032230
         H           -1.338447987190     2.095915969201     1.729961956337     1.007825032230
         H           -2.451682987190    -2.921913030799    -1.192819043663     1.007825032230
         H           -4.403896987190    -1.979008030799     0.036526956337     1.007825032230

  Basis Set: AUG-CC-PVTZ
    Blend: AUG-CC-PVTZ
  Basis Set: (AUG-CC-PVTZ AUX)
    Blend: AUG-CC-PVTZ-JKFIT
	 Reference Energy          =    -631.7198585828166415 [Eh]
	 Singles Energy            =      -0.0000000000000000 [Eh]
	 Same-Spin Energy          =      -0.6900244559473536 [Eh]
	 Opposite-Spin Energy      =      -2.2131390920323293 [Eh]
	 Correlation Energy        =      -2.9031635479796831 [Eh]
	 Total Energy              =    -634.6230221307963575 [Eh]

	 ================> DF-SCS-MP2 Energies <==================
	-----------------------------------------------------------
	 SCS Same-Spin Scale       =       0.3333333333333333 [-]
	 SCS Opposite-Spin Scale   =       1.2000000000000000 [-]
	 SCS Same-Spin Energy      =      -0.2300081519824512 [Eh]
	 SCS Opposite-Spin Energy  =      -2.6557669104387949 [Eh]
	 SCS Correlation Energy    =      -2.8857750624212462 [Eh]
	 SCS Total Energy          =    -634.6056336452378446 [Eh]
	-----------------------------------------------------------

  Dipole Moment: [D]
     X:     1.2674      Y:    -2.3426      Z:     2.0867     Total:     3.3836

*** Psi4 exiting successfully. Buy a developer a beer!
