                               Psi4 1.4a3.dev225

  ==> Input File <==

--------------------------------------------------------------------------
#psi4
#
memory 32 gb

molecule  {
0 1
  O        0.0109280     1.9504830    -1.2088660
  N        1.2104930     0.4628600     0.0596820
  C        3.6816010    -0.9509880     0.4072830
  C        3.5342200     0.1692850    -0.6230390
  C        2.5098521    -1.5308070     0.6477057
  C        2.4642000     1.1676880    -0.1911000
  C        1.2914730    -0.5760260     1.0805660
  C        0.0527250     0.9288280    -0.5097470
  C       -1.1808260     0.1020470    -0.2945890
  C       -2.2823960     0.6556420     0.3835130
  C       -1.2622800    -1.1716740    -0.8705440
  C       -3.4454200    -0.1153760     0.4879690
  C       -2.2065840     2.0368470     0.9809810
  C       -2.4366510    -1.9182050    -0.7675160
  C       -3.5304630    -1.3875060    -0.0828830
  H        4.4130950    -1.6928310     0.0671840
  H        4.0710030    -0.5292960     1.3442740
  H        4.4878230     0.6919580    -0.7653020
  H        3.2457620    -0.2529490    -1.5933530
  H        1.9831950    -2.1398170    -0.2152240
  H        2.4267450    -2.3652010     1.4815110
  H        2.7768740     1.6847790     0.7291870
  H        2.2671880     1.9220510    -0.9540200
  H        0.3069530    -1.0243470     1.2170770
  H        1.5834140    -0.1085280     2.0346680
  H       -0.4031770    -1.5700500    -1.4080150
  H       -4.3043690     0.2928860     1.0181070
  H       -2.0253310     2.7815300     0.2022010
  H       -3.1368610     2.2826280     1.5002420
  H       -1.3844770     2.1136550     1.7007310
  H       -2.4977120    -2.9041740    -1.2220500
  H       -4.4499260    -1.9612690     0.0072960
units angstrom
no_reorient  #important for SAPT in psi4, default
symmetry c1  #important for SAPT in psi4, default
}

set PROPERTIES_ORIGIN ["COM"]
properties('MP2/aug-cc-pvtz', properties = ['dipole'])
--------------------------------------------------------------------------

    Molecular point group: c1
  Charge       = 0
  Multiplicity = 1
  Basis Set: AUG-CC-PVTZ
    Blend: AUG-CC-PVTZ
  Basis Set: (AUG-CC-PVTZ AUX)
    Blend: AUG-CC-PVTZ-JKFIT

    Orbital Energies [Eh]
    ---------------------

    Doubly Occupied:

       1A    -20.510195     2A    -15.583053     3A    -11.348603
       4A    -11.271781     5A    -11.256129     6A    -11.252090
       7A    -11.246389     8A    -11.245022     9A    -11.242837
      10A    -11.241176    11A    -11.239195    12A    -11.237091
      13A    -11.228179    14A    -11.220434    15A    -11.219743
      16A     -1.366534    17A     -1.250119    18A     -1.161763
      19A     -1.115798    20A     -1.051315    21A     -1.036947
      22A     -1.018347    23A     -0.944992    24A     -0.925174
      25A     -0.874392    26A     -0.840177    27A     -0.812030
      28A     -0.784959    29A     -0.743754    30A     -0.713339
      31A     -0.668735    32A     -0.652402    33A     -0.648271
      34A     -0.633778    35A     -0.620102    36A     -0.616430
      37A     -0.609080    38A     -0.596014    39A     -0.576803
      40A     -0.572287    41A     -0.565574    42A     -0.543367
      43A     -0.541284    44A     -0.525257    45A     -0.510485
      46A     -0.498454    47A     -0.496901    48A     -0.491349
      49A     -0.486168    50A     -0.455653    51A     -0.439745
      52A     -0.416674    53A     -0.358815    54A     -0.340356
      55A     -0.330229

  @DF-RHF Final Energy:  -631.68104232712176

   => Energetics <=

    Nuclear Repulsion Energy =           1000.9392160551925599
    One-Electron Energy =               -2844.8889711393148900
    Two-Electron Energy =                1212.2687127570006851
    Total Energy =                       -631.6810423271217587
  Basis Set: (AUG-CC-PVTZ AUX)
    Blend: AUG-CC-PVTZ-RI
    Molecular point group: c1

    Geometry (in Angstrom), charge = 0, multiplicity = 1:

       Center              X                  Y                   Z               Mass
    ------------   -----------------  -----------------  -----------------  -----------------
         O            0.046214233777     1.931797466764    -1.181632292590    15.994914619570
         N            1.245779233777     0.444174466764     0.086915707410    14.003074004430
         C            3.716887233777    -0.969673533236     0.434516707410    12.000000000000
         C            3.569506233777     0.150599466764    -0.595805292590    12.000000000000
         C            2.545138333777    -1.549492533236     0.674939407410    12.000000000000
         C            2.499486233777     1.149002466764    -0.163866292590    12.000000000000
         C            1.326759233777    -0.594711533236     1.107799707410    12.000000000000
         C            0.088011233777     0.910142466764    -0.482513292590    12.000000000000
         C           -1.145539766223     0.083361466764    -0.267355292590    12.000000000000
         C           -2.247109766223     0.636956466764     0.410746707410    12.000000000000
         C           -1.226993766223    -1.190359533236    -0.843310292590    12.000000000000
         C           -3.410133766223    -0.134061533236     0.515202707410    12.000000000000
         C           -2.171297766223     2.018161466764     1.008214707410    12.000000000000
         C           -2.401364766223    -1.936890533236    -0.740282292590    12.000000000000
         C           -3.495176766223    -1.406191533236    -0.055649292590    12.000000000000
         H            4.448381233777    -1.711516533236     0.094417707410     1.007825032230
         H            4.106289233777    -0.547981533236     1.371507707410     1.007825032230
         H            4.523109233777     0.673272466764    -0.738068292590     1.007825032230
         H            3.281048233777    -0.271634533236    -1.566119292590     1.007825032230
         H            2.018481233777    -2.158502533236    -0.187990292590     1.007825032230
         H            2.462031233777    -2.383886533236     1.508744707410     1.007825032230
         H            2.812160233777     1.666093466764     0.756420707410     1.007825032230
         H            2.302474233777     1.903365466764    -0.926786292590     1.007825032230
         H            0.342239233777    -1.043032533236     1.244310707410     1.007825032230
         H            1.618700233777    -0.127213533236     2.061901707410     1.007825032230
         H           -0.367890766223    -1.588735533236    -1.380781292590     1.007825032230
         H           -4.269082766223     0.274200466764     1.045340707410     1.007825032230
         H           -1.990044766223     2.762844466764     0.229434707410     1.007825032230
         H           -3.101574766223     2.263942466764     1.527475707410     1.007825032230
         H           -1.349190766223     2.094969466764     1.727964707410     1.007825032230
         H           -2.462425766223    -2.922859533236    -1.194816292590     1.007825032230
         H           -4.414639766223    -1.979954533236     0.034529707410     1.007825032230

  Basis Set: AUG-CC-PVTZ
    Blend: AUG-CC-PVTZ
  Basis Set: (AUG-CC-PVTZ AUX)
    Blend: AUG-CC-PVTZ-JKFIT
	 Reference Energy          =    -631.6810423271217587 [Eh]
	 Singles Energy            =      -0.0000000000000000 [Eh]
	 Same-Spin Energy          =      -0.6917707667683610 [Eh]
	 Opposite-Spin Energy      =      -2.2162111192854415 [Eh]
	 Correlation Energy        =      -2.9079818860538023 [Eh]
	 Total Energy              =    -634.5890242131755485 [Eh]

	 ================> DF-SCS-MP2 Energies <==================
	-----------------------------------------------------------
	 SCS Same-Spin Scale       =       0.3333333333333333 [-]
	 SCS Opposite-Spin Scale   =       1.2000000000000000 [-]
	 SCS Same-Spin Energy      =      -0.2305902555894537 [Eh]
	 SCS Opposite-Spin Energy  =      -2.6594533431425296 [Eh]
	 SCS Correlation Energy    =      -2.8900435987319830 [Eh]
	 SCS Total Energy          =    -634.5710859258537084 [Eh]
	-----------------------------------------------------------

  Dipole Moment: [D]
     X:     1.4874      Y:    -2.4218      Z:     2.2735     Total:     3.6396

*** Psi4 exiting successfully. Buy a developer a beer!
