                               Psi4 1.4a3.dev225

  ==> Input File <==

--------------------------------------------------------------------------
#psi4
#
memory 32 gb

molecule  {
0 1
  O        0.0109280     1.9504830    -1.2088660
  N        1.1990083     0.4775789     0.0423408
  C        3.6816010    -0.9509880     0.4072830
  C        3.5342200     0.1692850    -0.6230390
  C        2.3335540    -1.6180450     0.6838790
  C        2.4642000     1.1676880    -0.1911000
  C        1.2914730    -0.5760260     1.0805660
  C        0.0527250     0.9288280    -0.5097470
  C       -1.1808260     0.1020470    -0.2945890
  C       -2.2823960     0.6556420     0.3835130
  C       -1.2622800    -1.1716740    -0.8705440
  C       -3.4454200    -0.1153760     0.4879690
  C       -2.2065840     2.0368470     0.9809810
  C       -2.4366510    -1.9182050    -0.7675160
  C       -3.5304630    -1.3875060    -0.0828830
  H        4.4130950    -1.6928310     0.0671840
  H        4.0710030    -0.5292960     1.3442740
  H        4.4878230     0.6919580    -0.7653020
  H        3.2457620    -0.2529490    -1.5933530
  H        1.9831950    -2.1398170    -0.2152240
  H        2.4267450    -2.3652010     1.4815110
  H        2.7768740     1.6847790     0.7291870
  H        2.2671880     1.9220510    -0.9540200
  H        0.3069530    -1.0243470     1.2170770
  H        1.5834140    -0.1085280     2.0346680
  H       -0.4031770    -1.5700500    -1.4080150
  H       -4.3043690     0.2928860     1.0181070
  H       -2.0253310     2.7815300     0.2022010
  H       -3.1368610     2.2826280     1.5002420
  H       -1.3844770     2.1136550     1.7007310
  H       -2.4977120    -2.9041740    -1.2220500
  H       -4.4499260    -1.9612690     0.0072960
units angstrom
no_reorient  #important for SAPT in psi4, default
symmetry c1  #important for SAPT in psi4, default
}

set PROPERTIES_ORIGIN ["COM"]
properties('MP2/aug-cc-pvtz', properties = ['dipole'])
--------------------------------------------------------------------------

    Molecular point group: c1
  Charge       = 0
  Multiplicity = 1
  Basis Set: AUG-CC-PVTZ
    Blend: AUG-CC-PVTZ
  Basis Set: (AUG-CC-PVTZ AUX)
    Blend: AUG-CC-PVTZ-JKFIT

    Orbital Energies [Eh]
    ---------------------

    Doubly Occupied:

       1A    -20.505968     2A    -15.585031     3A    -11.345540
       4A    -11.269861     5A    -11.255387     6A    -11.251278
       7A    -11.245835     8A    -11.244444     9A    -11.242202
      10A    -11.238767    11A    -11.236560    12A    -11.232244
      13A    -11.229237    14A    -11.226717    15A    -11.219769
      16A     -1.366446    17A     -1.247906    18A     -1.160917
      19A     -1.086080    20A     -1.050381    21A     -1.037492
      22A     -1.022225    23A     -0.943621    24A     -0.921792
      25A     -0.867641    26A     -0.843126    27A     -0.814883
      28A     -0.792095    29A     -0.741985    30A     -0.712542
      31A     -0.665902    32A     -0.652619    33A     -0.648167
      34A     -0.629652    35A     -0.619857    36A     -0.614863
      37A     -0.596535    38A     -0.589433    39A     -0.575146
      40A     -0.571624    41A     -0.556755    42A     -0.547957
      43A     -0.540648    44A     -0.526171    45A     -0.507676
      46A     -0.502251    47A     -0.491225    48A     -0.489439
      49A     -0.478472    50A     -0.471077    51A     -0.460590
      52A     -0.415247    53A     -0.368020    54A     -0.339498
      55A     -0.329470

  @DF-RHF Final Energy:  -631.73075681106343

   => Energetics <=

    Nuclear Repulsion Energy =           1000.0430203096677815
    One-Electron Energy =               -2843.2950277112322510
    Two-Electron Energy =                1211.5212505905010403
    Total Energy =                       -631.7307568110634293
  Basis Set: (AUG-CC-PVTZ AUX)
    Blend: AUG-CC-PVTZ-RI
    Molecular point group: c1

    Geometry (in Angstrom), charge = 0, multiplicity = 1:

       Center              X                  Y                   Z               Mass
    ------------   -----------------  -----------------  -----------------  -----------------
         O            0.057420785929     1.935936402206    -1.182573800679    15.994914619570
         N            1.245501085929     0.463032302206     0.068632999321    14.003074004430
         C            3.728093785929    -0.965534597794     0.433575199321    12.000000000000
         C            3.580712785929     0.154738402206    -0.596746800679    12.000000000000
         C            2.380046785929    -1.632591597794     0.710171199321    12.000000000000
         C            2.510692785929     1.153141402206    -0.164807800679    12.000000000000
         C            1.337965785929    -0.590572597794     1.106858199321    12.000000000000
         C            0.099217785929     0.914281402206    -0.483454800679    12.000000000000
         C           -1.134333214071     0.087500402206    -0.268296800679    12.000000000000
         C           -2.235903214071     0.641095402206     0.409805199321    12.000000000000
         C           -1.215787214071    -1.186220597794    -0.844251800679    12.000000000000
         C           -3.398927214071    -0.129922597794     0.514261199321    12.000000000000
         C           -2.160091214071     2.022300402206     1.007273199321    12.000000000000
         C           -2.390158214071    -1.932751597794    -0.741223800679    12.000000000000
         C           -3.483970214071    -1.402052597794    -0.056590800679    12.000000000000
         H            4.459587785929    -1.707377597794     0.093476199321     1.007825032230
         H            4.117495785929    -0.543842597794     1.370566199321     1.007825032230
         H            4.534315785929     0.677411402206    -0.739009800679     1.007825032230
         H            3.292254785929    -0.267495597794    -1.567060800679     1.007825032230
         H            2.029687785929    -2.154363597794    -0.188931800679     1.007825032230
         H            2.473237785929    -2.379747597794     1.507803199321     1.007825032230
         H            2.823366785929     1.670232402206     0.755479199321     1.007825032230
         H            2.313680785929     1.907504402206    -0.927727800679     1.007825032230
         H            0.353445785929    -1.038893597794     1.243369199321     1.007825032230
         H            1.629906785929    -0.123074597794     2.060960199321     1.007825032230
         H           -0.356684214071    -1.584596597794    -1.381722800679     1.007825032230
         H           -4.257876214071     0.278339402206     1.044399199321     1.007825032230
         H           -1.978838214071     2.766983402206     0.228493199321     1.007825032230
         H           -3.090368214071     2.268081402206     1.526534199321     1.007825032230
         H           -1.337984214071     2.099108402206     1.727023199321     1.007825032230
         H           -2.451219214071    -2.918720597794    -1.195757800679     1.007825032230
         H           -4.403433214071    -1.975815597794     0.033588199321     1.007825032230

  Basis Set: AUG-CC-PVTZ
    Blend: AUG-CC-PVTZ
  Basis Set: (AUG-CC-PVTZ AUX)
    Blend: AUG-CC-PVTZ-JKFIT
	 Reference Energy          =    -631.7307568110634293 [Eh]
	 Singles Energy            =      -0.0000000000000000 [Eh]
	 Same-Spin Energy          =      -0.6887409646393807 [Eh]
	 Opposite-Spin Energy      =      -2.2118306064146926 [Eh]
	 Correlation Energy        =      -2.9005715710540736 [Eh]
	 Total Energy              =    -634.6313283821175446 [Eh]

	 ================> DF-SCS-MP2 Energies <==================
	-----------------------------------------------------------
	 SCS Same-Spin Scale       =       0.3333333333333333 [-]
	 SCS Opposite-Spin Scale   =       1.2000000000000000 [-]
	 SCS Same-Spin Energy      =      -0.2295803215464602 [Eh]
	 SCS Opposite-Spin Energy  =      -2.6541967276976313 [Eh]
	 SCS Correlation Energy    =      -2.8837770492440913 [Eh]
	 SCS Total Energy          =    -634.6145338603075743 [Eh]
	-----------------------------------------------------------

  Dipole Moment: [D]
     X:     1.5187      Y:    -2.5999      Z:     2.3830     Total:     3.8399

*** Psi4 exiting successfully. Buy a developer a beer!
