                               Psi4 1.4a3.dev225

  ==> Input File <==

--------------------------------------------------------------------------
#psi4
#
memory 32 gb

molecule  {
0 1
  O        0.0109280     1.9504830    -1.2088660
  N        1.2104930     0.4628600     0.0596820
  C        3.6816010    -0.9509880     0.4072830
  C        3.5285755     0.1444249    -0.5762756
  C        2.3335540    -1.6180450     0.6838790
  C        2.4642000     1.1676880    -0.1911000
  C        1.2914730    -0.5760260     1.0805660
  C        0.0527250     0.9288280    -0.5097470
  C       -1.1808260     0.1020470    -0.2945890
  C       -2.2823960     0.6556420     0.3835130
  C       -1.2622800    -1.1716740    -0.8705440
  C       -3.4454200    -0.1153760     0.4879690
  C       -2.2065840     2.0368470     0.9809810
  C       -2.4366510    -1.9182050    -0.7675160
  C       -3.5304630    -1.3875060    -0.0828830
  H        4.4130950    -1.6928310     0.0671840
  H        4.0710030    -0.5292960     1.3442740
  H        4.4878230     0.6919580    -0.7653020
  H        3.2457620    -0.2529490    -1.5933530
  H        1.9831950    -2.1398170    -0.2152240
  H        2.4267450    -2.3652010     1.4815110
  H        2.7768740     1.6847790     0.7291870
  H        2.2671880     1.9220510    -0.9540200
  H        0.3069530    -1.0243470     1.2170770
  H        1.5834140    -0.1085280     2.0346680
  H       -0.4031770    -1.5700500    -1.4080150
  H       -4.3043690     0.2928860     1.0181070
  H       -2.0253310     2.7815300     0.2022010
  H       -3.1368610     2.2826280     1.5002420
  H       -1.3844770     2.1136550     1.7007310
  H       -2.4977120    -2.9041740    -1.2220500
  H       -4.4499260    -1.9612690     0.0072960
units angstrom
no_reorient  #important for SAPT in psi4, default
symmetry c1  #important for SAPT in psi4, default
}

set PROPERTIES_ORIGIN ["COM"]
properties('MP2/aug-cc-pvtz', properties = ['dipole'])
--------------------------------------------------------------------------

    Molecular point group: c1
  Charge       = 0
  Multiplicity = 1
  Basis Set: AUG-CC-PVTZ
    Blend: AUG-CC-PVTZ
  Basis Set: (AUG-CC-PVTZ AUX)
    Blend: AUG-CC-PVTZ-JKFIT

    Orbital Energies [Eh]
    ---------------------

    Doubly Occupied:

       1A    -20.510899     2A    -15.583731     3A    -11.349417
       4A    -11.267488     5A    -11.255377     6A    -11.251861
       7A    -11.246321     8A    -11.244992     9A    -11.242654
      10A    -11.239139    11A    -11.236989    12A    -11.230950
      13A    -11.228357    14A    -11.226799    15A    -11.220366
      16A     -1.367132    17A     -1.250303    18A     -1.161478
      19A     -1.089867    20A     -1.050878    21A     -1.037189
      22A     -1.023688    23A     -0.943947    24A     -0.920505
      25A     -0.866553    26A     -0.845467    27A     -0.814974
      28A     -0.788768    29A     -0.742792    30A     -0.712853
      31A     -0.667379    32A     -0.652548    33A     -0.648705
      34A     -0.628101    35A     -0.620066    36A     -0.615433
      37A     -0.598524    38A     -0.589215    39A     -0.575750
      40A     -0.572495    41A     -0.562044    42A     -0.547309
      43A     -0.542003    44A     -0.524725    45A     -0.507920
      46A     -0.500334    47A     -0.491069    48A     -0.489429
      49A     -0.477656    50A     -0.470342    51A     -0.461038
      52A     -0.417019    53A     -0.365696    54A     -0.340025
      55A     -0.330023

  @DF-RHF Final Energy:  -631.72709742033135

   => Energetics <=

    Nuclear Repulsion Energy =           1000.6437625740651356
    One-Electron Energy =               -2844.4485561743822473
    Two-Electron Energy =                1212.0776961799858782
    Total Energy =                       -631.7270974203313472
  Basis Set: (AUG-CC-PVTZ AUX)
    Blend: AUG-CC-PVTZ-RI
    Molecular point group: c1

    Geometry (in Angstrom), charge = 0, multiplicity = 1:

       Center              X                  Y                   Z               Mass
    ------------   -----------------  -----------------  -----------------  -----------------
         O            0.056962524523     1.938419681522    -1.186531792570    15.994914619570
         N            1.256527524523     0.450796681522     0.082016207430    14.003074004430
         C            3.727635524523    -0.963051318478     0.429617207430    12.000000000000
         C            3.574610024523     0.132361581522    -0.553941392570    12.000000000000
         C            2.379588524523    -1.630108318478     0.706213207430    12.000000000000
         C            2.510234524523     1.155624681522    -0.168765792570    12.000000000000
         C            1.337507524523    -0.588089318478     1.102900207430    12.000000000000
         C            0.098759524523     0.916764681522    -0.487412792570    12.000000000000
         C           -1.134791475477     0.089983681522    -0.272254792570    12.000000000000
         C           -2.236361475477     0.643578681522     0.405847207430    12.000000000000
         C           -1.216245475477    -1.183737318478    -0.848209792570    12.000000000000
         C           -3.399385475477    -0.127439318478     0.510303207430    12.000000000000
         C           -2.160549475477     2.024783681522     1.003315207430    12.000000000000
         C           -2.390616475477    -1.930268318478    -0.745181792570    12.000000000000
         C           -3.484428475477    -1.399569318478    -0.060548792570    12.000000000000
         H            4.459129524523    -1.704894318478     0.089518207430     1.007825032230
         H            4.117037524523    -0.541359318478     1.366608207430     1.007825032230
         H            4.533857524523     0.679894681522    -0.742967792570     1.007825032230
         H            3.291796524523    -0.265012318478    -1.571018792570     1.007825032230
         H            2.029229524523    -2.151880318478    -0.192889792570     1.007825032230
         H            2.472779524523    -2.377264318478     1.503845207430     1.007825032230
         H            2.822908524523     1.672715681522     0.751521207430     1.007825032230
         H            2.313222524523     1.909987681522    -0.931685792570     1.007825032230
         H            0.352987524523    -1.036410318478     1.239411207430     1.007825032230
         H            1.629448524523    -0.120591318478     2.057002207430     1.007825032230
         H           -0.357142475477    -1.582113318478    -1.385680792570     1.007825032230
         H           -4.258334475477     0.280822681522     1.040441207430     1.007825032230
         H           -1.979296475477     2.769466681522     0.224535207430     1.007825032230
         H           -3.090826475477     2.270564681522     1.522576207430     1.007825032230
         H           -1.338442475477     2.101591681522     1.723065207430     1.007825032230
         H           -2.451677475477    -2.916237318478    -1.199715792570     1.007825032230
         H           -4.403891475477    -1.973332318478     0.029630207430     1.007825032230

  Basis Set: AUG-CC-PVTZ
    Blend: AUG-CC-PVTZ
  Basis Set: (AUG-CC-PVTZ AUX)
    Blend: AUG-CC-PVTZ-JKFIT
	 Reference Energy          =    -631.7270974203313472 [Eh]
	 Singles Energy            =      -0.0000000000000000 [Eh]
	 Same-Spin Energy          =      -0.6894743426183990 [Eh]
	 Opposite-Spin Energy      =      -2.2127710942484549 [Eh]
	 Correlation Energy        =      -2.9022454368668540 [Eh]
	 Total Energy              =    -634.6293428571982531 [Eh]

	 ================> DF-SCS-MP2 Energies <==================
	-----------------------------------------------------------
	 SCS Same-Spin Scale       =       0.3333333333333333 [-]
	 SCS Opposite-Spin Scale   =       1.2000000000000000 [-]
	 SCS Same-Spin Energy      =      -0.2298247808727997 [Eh]
	 SCS Opposite-Spin Energy  =      -2.6553253130981456 [Eh]
	 SCS Correlation Energy    =      -2.8851500939709451 [Eh]
	 SCS Total Energy          =    -634.6122475143023394 [Eh]
	-----------------------------------------------------------

  Dipole Moment: [D]
     X:     1.4049      Y:    -2.5346      Z:     2.3298     Total:     3.7183

*** Psi4 exiting successfully. Buy a developer a beer!
