                               Psi4 1.4a3.dev225

  ==> Input File <==

--------------------------------------------------------------------------
#psi4
#
memory 32 gb

molecule  {
0 1
  O        0.0109280     1.9504830    -1.2088660
  N        1.2104930     0.4628600     0.0596820
  C        3.6816010    -0.9509880     0.4072830
  C        3.5342200     0.1692850    -0.6230390
  C        2.3335540    -1.6180450     0.6838790
  C        2.4642000     1.1676880    -0.1911000
  C        1.2914730    -0.5760260     1.0805660
  C        0.0527250     0.9288280    -0.5097470
  C       -1.1808260     0.1020470    -0.2945890
  C       -2.2823960     0.6556420     0.3835130
  C       -1.2622800    -1.1716740    -0.8705440
  C       -3.4454200    -0.1153760     0.4879690
  C       -2.2065840     2.0368470     0.9809810
  C       -2.4366510    -1.9182050    -0.7675160
  C       -3.5304630    -1.3875060    -0.0828830
  H        4.4130950    -1.6928310     0.0671840
  H        4.0710030    -0.5292960     1.3442740
  H        4.4878230     0.6919580    -0.7653020
  H        3.2457620    -0.2529490    -1.5933530
  H        1.9831950    -2.1398170    -0.2152240
  H        2.4267450    -2.3652010     1.4815110
  H        2.7768740     1.6847790     0.7291870
  H        2.2671880     1.9220510    -0.9540200
  H        0.2888945    -1.0325703     1.2195809
  H        1.5834140    -0.1085280     2.0346680
  H       -0.4031770    -1.5700500    -1.4080150
  H       -4.3043690     0.2928860     1.0181070
  H       -2.0253310     2.7815300     0.2022010
  H       -3.1368610     2.2826280     1.5002420
  H       -1.3844770     2.1136550     1.7007310
  H       -2.4977120    -2.9041740    -1.2220500
  H       -4.4499260    -1.9612690     0.0072960
units angstrom
no_reorient  #important for SAPT in psi4, default
symmetry c1  #important for SAPT in psi4, default
}

set PROPERTIES_ORIGIN ["COM"]
properties('MP2/aug-cc-pvtz', properties = ['dipole'])
--------------------------------------------------------------------------

    Molecular point group: c1
  Charge       = 0
  Multiplicity = 1
  Basis Set: AUG-CC-PVTZ
    Blend: AUG-CC-PVTZ
  Basis Set: (AUG-CC-PVTZ AUX)
    Blend: AUG-CC-PVTZ-JKFIT

    Orbital Energies [Eh]
    ---------------------

    Doubly Occupied:

       1A    -20.510840     2A    -15.584057     3A    -11.349501
       4A    -11.269213     5A    -11.254780     6A    -11.251793
       7A    -11.246293     8A    -11.244987     9A    -11.242608
      10A    -11.239112    11A    -11.236955    12A    -11.230731
      13A    -11.228413    14A    -11.225760    15A    -11.220310
      16A     -1.367045    17A     -1.249559    18A     -1.161408
      19A     -1.083681    20A     -1.050764    21A     -1.036975
      22A     -1.022860    23A     -0.943102    24A     -0.918553
      25A     -0.866675    26A     -0.844114    27A     -0.815282
      28A     -0.791029    29A     -0.742193    30A     -0.711803
      31A     -0.666498    32A     -0.652829    33A     -0.648350
      34A     -0.627256    35A     -0.619980    36A     -0.615351
      37A     -0.596252    38A     -0.587969    39A     -0.575631
      40A     -0.571799    41A     -0.559783    42A     -0.546947
      43A     -0.541584    44A     -0.524856    45A     -0.508064
      46A     -0.502075    47A     -0.491431    48A     -0.489235
      49A     -0.478585    50A     -0.469202    51A     -0.461226
      52A     -0.416960    53A     -0.366323    54A     -0.339820
      55A     -0.329953

  @DF-RHF Final Energy:  -631.73000348286553

   => Energetics <=

    Nuclear Repulsion Energy =            999.8934801983334637
    One-Electron Energy =               -2842.9902608268339463
    Two-Electron Energy =                1211.3667771456350692
    Total Energy =                       -631.7300034828654134
  Basis Set: (AUG-CC-PVTZ AUX)
    Blend: AUG-CC-PVTZ-RI
    Molecular point group: c1

    Geometry (in Angstrom), charge = 0, multiplicity = 1:

       Center              X                  Y                   Z               Mass
    ------------   -----------------  -----------------  -----------------  -----------------
         O            0.056718671108     1.936991866308    -1.183781659563    15.994914619570
         N            1.256283671108     0.449368866308     0.084766340437    14.003074004430
         C            3.727391671108    -0.964479133692     0.432367340437    12.000000000000
         C            3.580010671108     0.155793866308    -0.597954659563    12.000000000000
         C            2.379344671108    -1.631536133692     0.708963340437    12.000000000000
         C            2.509990671108     1.154196866308    -0.166015659563    12.000000000000
         C            1.337263671108    -0.589517133692     1.105650340437    12.000000000000
         C            0.098515671108     0.915336866308    -0.484662659563    12.000000000000
         C           -1.135035328892     0.088555866308    -0.269504659563    12.000000000000
         C           -2.236605328892     0.642150866308     0.408597340437    12.000000000000
         C           -1.216489328892    -1.185165133692    -0.845459659563    12.000000000000
         C           -3.399629328892    -0.128867133692     0.513053340437    12.000000000000
         C           -2.160793328892     2.023355866308     1.006065340437    12.000000000000
         C           -2.390860328892    -1.931696133692    -0.742431659563    12.000000000000
         C           -3.484672328892    -1.400997133692    -0.057798659563    12.000000000000
         H            4.458885671108    -1.706322133692     0.092268340437     1.007825032230
         H            4.116793671108    -0.542787133692     1.369358340437     1.007825032230
         H            4.533613671108     0.678466866308    -0.740217659563     1.007825032230
         H            3.291552671108    -0.266440133692    -1.568268659563     1.007825032230
         H            2.028985671108    -2.153308133692    -0.190139659563     1.007825032230
         H            2.472535671108    -2.378692133692     1.506595340437     1.007825032230
         H            2.822664671108     1.671287866308     0.754271340437     1.007825032230
         H            2.312978671108     1.908559866308    -0.928935659563     1.007825032230
         H            0.334685171108    -1.046061433692     1.244665240437     1.007825032230
         H            1.629204671108    -0.122019133692     2.059752340437     1.007825032230
         H           -0.357386328892    -1.583541133692    -1.382930659563     1.007825032230
         H           -4.258578328892     0.279394866308     1.043191340437     1.007825032230
         H           -1.979540328892     2.768038866308     0.227285340437     1.007825032230
         H           -3.091070328892     2.269136866308     1.525326340437     1.007825032230
         H           -1.338686328892     2.100163866308     1.725815340437     1.007825032230
         H           -2.451921328892    -2.917665133692    -1.196965659563     1.007825032230
         H           -4.404135328892    -1.974760133692     0.032380340437     1.007825032230

  Basis Set: AUG-CC-PVTZ
    Blend: AUG-CC-PVTZ
  Basis Set: (AUG-CC-PVTZ AUX)
    Blend: AUG-CC-PVTZ-JKFIT
	 Reference Energy          =    -631.7300034828655271 [Eh]
	 Singles Energy            =      -0.0000000000000000 [Eh]
	 Same-Spin Energy          =      -0.6891102463418446 [Eh]
	 Opposite-Spin Energy      =      -2.2124961221273236 [Eh]
	 Correlation Energy        =      -2.9016063684691682 [Eh]
	 Total Energy              =    -634.6316098513347015 [Eh]

	 ================> DF-SCS-MP2 Energies <==================
	-----------------------------------------------------------
	 SCS Same-Spin Scale       =       0.3333333333333333 [-]
	 SCS Opposite-Spin Scale   =       1.2000000000000000 [-]
	 SCS Same-Spin Energy      =      -0.2297034154472815 [Eh]
	 SCS Opposite-Spin Energy  =      -2.6549953465527882 [Eh]
	 SCS Correlation Energy    =      -2.8846987620000699 [Eh]
	 SCS Total Energy          =    -634.6147022448656116 [Eh]
	-----------------------------------------------------------

  Dipole Moment: [D]
     X:     1.4097      Y:    -2.5166      Z:     2.2990     Total:     3.6886

*** Psi4 exiting successfully. Buy a developer a beer!
