                               Psi4 1.4a3.dev225

  ==> Input File <==

--------------------------------------------------------------------------
#psi4
#
memory 32 gb

molecule  {
0 1
  O        0.0109280     1.9504830    -1.2088660
  N        1.2104930     0.4628600     0.0596820
  C        3.6816010    -0.9509880     0.4072830
  C        3.5342200     0.1692850    -0.6230390
  C        2.3335540    -1.6180450     0.6838790
  C        2.4642000     1.1676880    -0.1911000
  C        1.2914730    -0.5760260     1.0805660
  C        0.0527250     0.9288280    -0.5097470
  C       -1.1808260     0.1020470    -0.2945890
  C       -2.2823960     0.6556420     0.3835130
  C       -1.2622800    -1.1716740    -0.8705440
  C       -3.4912989    -0.1203137     0.5037249
  C       -2.2065840     2.0368470     0.9809810
  C       -2.4366510    -1.9182050    -0.7675160
  C       -3.5304630    -1.3875060    -0.0828830
  H        4.4130950    -1.6928310     0.0671840
  H        4.0710030    -0.5292960     1.3442740
  H        4.4878230     0.6919580    -0.7653020
  H        3.2457620    -0.2529490    -1.5933530
  H        1.9831950    -2.1398170    -0.2152240
  H        2.4267450    -2.3652010     1.4815110
  H        2.7768740     1.6847790     0.7291870
  H        2.2671880     1.9220510    -0.9540200
  H        0.3069530    -1.0243470     1.2170770
  H        1.5834140    -0.1085280     2.0346680
  H       -0.4031770    -1.5700500    -1.4080150
  H       -4.3043690     0.2928860     1.0181070
  H       -2.0253310     2.7815300     0.2022010
  H       -3.1368610     2.2826280     1.5002420
  H       -1.3844770     2.1136550     1.7007310
  H       -2.4977120    -2.9041740    -1.2220500
  H       -4.4499260    -1.9612690     0.0072960
units angstrom
no_reorient  #important for SAPT in psi4, default
symmetry c1  #important for SAPT in psi4, default
}

set PROPERTIES_ORIGIN ["COM"]
properties('MP2/aug-cc-pvtz', properties = ['dipole'])
--------------------------------------------------------------------------

    Molecular point group: c1
  Charge       = 0
  Multiplicity = 1
  Basis Set: AUG-CC-PVTZ
    Blend: AUG-CC-PVTZ
  Basis Set: (AUG-CC-PVTZ AUX)
    Blend: AUG-CC-PVTZ-JKFIT

    Orbital Energies [Eh]
    ---------------------

    Doubly Occupied:

       1A    -20.510722     2A    -15.583894     3A    -11.349527
       4A    -11.267075     5A    -11.256837     6A    -11.254633
       7A    -11.247067     8A    -11.244649     9A    -11.243130
      10A    -11.239028    11A    -11.238128    12A    -11.230628
      13A    -11.228313    14A    -11.225673    15A    -11.220321
      16A     -1.366938    17A     -1.249577    18A     -1.157538
      19A     -1.083553    20A     -1.049070    21A     -1.036979
      22A     -1.023602    23A     -0.943471    24A     -0.917822
      25A     -0.866798    26A     -0.843505    27A     -0.816983
      28A     -0.789473    29A     -0.743497    30A     -0.713964
      31A     -0.665526    32A     -0.652523    33A     -0.647192
      34A     -0.629100    35A     -0.624325    36A     -0.615149
      37A     -0.598699    38A     -0.588034    39A     -0.575333
      40A     -0.571026    41A     -0.560224    42A     -0.548120
      43A     -0.543073    44A     -0.524876    45A     -0.505013
      46A     -0.498672    47A     -0.495344    48A     -0.488529
      49A     -0.478559    50A     -0.469603    51A     -0.461494
      52A     -0.416516    53A     -0.366198    54A     -0.340288
      55A     -0.326676

  @DF-RHF Final Energy:  -631.72733816120785

   => Energetics <=

    Nuclear Repulsion Energy =            998.9428287592409106
    One-Electron Energy =               -2841.0753620385098657
    Two-Electron Energy =                1210.4051951180611013
    Total Energy =                       -631.7273381612078538
  Basis Set: (AUG-CC-PVTZ AUX)
    Blend: AUG-CC-PVTZ-RI
    Molecular point group: c1

    Geometry (in Angstrom), charge = 0, multiplicity = 1:

       Center              X                  Y                   Z               Mass
    ------------   -----------------  -----------------  -----------------  -----------------
         O            0.059339378703     1.937242762276    -1.184700019114    15.994914619570
         N            1.258904378703     0.449619762276     0.083847980886    14.003074004430
         C            3.730012378703    -0.964228237724     0.431448980886    12.000000000000
         C            3.582631378703     0.156044762276    -0.598873019114    12.000000000000
         C            2.381965378703    -1.631285237724     0.708044980886    12.000000000000
         C            2.512611378703     1.154447762276    -0.166934019114    12.000000000000
         C            1.339884378703    -0.589266237724     1.104731980886    12.000000000000
         C            0.101136378703     0.915587762276    -0.485581019114    12.000000000000
         C           -1.132414621297     0.088806762276    -0.270423019114    12.000000000000
         C           -2.233984621297     0.642401762276     0.407678980886    12.000000000000
         C           -1.213868621297    -1.184914237724    -0.846378019114    12.000000000000
         C           -3.442887521297    -0.133553937724     0.527890880886    12.000000000000
         C           -2.158172621297     2.023606762276     1.005146980886    12.000000000000
         C           -2.388239621297    -1.931445237724    -0.743350019114    12.000000000000
         C           -3.482051621297    -1.400746237724    -0.058717019114    12.000000000000
         H            4.461506378703    -1.706071237724     0.091349980886     1.007825032230
         H            4.119414378703    -0.542536237724     1.368439980886     1.007825032230
         H            4.536234378703     0.678717762276    -0.741136019114     1.007825032230
         H            3.294173378703    -0.266189237724    -1.569187019114     1.007825032230
         H            2.031606378703    -2.153057237724    -0.191058019114     1.007825032230
         H            2.475156378703    -2.378441237724     1.505676980886     1.007825032230
         H            2.825285378703     1.671538762276     0.753352980886     1.007825032230
         H            2.315599378703     1.908810762276    -0.929854019114     1.007825032230
         H            0.355364378703    -1.037587237724     1.241242980886     1.007825032230
         H            1.631825378703    -0.121768237724     2.058833980886     1.007825032230
         H           -0.354765621297    -1.583290237724    -1.383849019114     1.007825032230
         H           -4.255957621297     0.279645762276     1.042272980886     1.007825032230
         H           -1.976919621297     2.768289762276     0.226366980886     1.007825032230
         H           -3.088449621297     2.269387762276     1.524407980886     1.007825032230
         H           -1.336065621297     2.100414762276     1.724896980886     1.007825032230
         H           -2.449300621297    -2.917414237724    -1.197884019114     1.007825032230
         H           -4.401514621297    -1.974509237724     0.031461980886     1.007825032230

  Basis Set: AUG-CC-PVTZ
    Blend: AUG-CC-PVTZ
  Basis Set: (AUG-CC-PVTZ AUX)
    Blend: AUG-CC-PVTZ-JKFIT
	 Reference Energy          =    -631.7273381612078538 [Eh]
	 Singles Energy            =      -0.0000000000000000 [Eh]
	 Same-Spin Energy          =      -0.6889540336294617 [Eh]
	 Opposite-Spin Energy      =      -2.2124784753328832 [Eh]
	 Correlation Energy        =      -2.9014325089623449 [Eh]
	 Total Energy              =    -634.6287706701701836 [Eh]

	 ================> DF-SCS-MP2 Energies <==================
	-----------------------------------------------------------
	 SCS Same-Spin Scale       =       0.3333333333333333 [-]
	 SCS Opposite-Spin Scale   =       1.2000000000000000 [-]
	 SCS Same-Spin Energy      =      -0.2296513445431539 [Eh]
	 SCS Opposite-Spin Energy  =      -2.6549741703994596 [Eh]
	 SCS Correlation Energy    =      -2.8846255149426137 [Eh]
	 SCS Total Energy          =    -634.6119636761504808 [Eh]
	-----------------------------------------------------------

  Dipole Moment: [D]
     X:     1.3986      Y:    -2.4995      Z:     2.3165     Total:     3.6838

*** Psi4 exiting successfully. Buy a developer a beer!
