                               Psi4 1.4a3.dev225

  ==> Input File <==

--------------------------------------------------------------------------
#psi4
#
memory 32 gb

molecule  {
0 1
  O        0.0109280     1.9504830    -1.2088660
  N        1.2104930     0.4628600     0.0596820
  C        3.6816010    -0.9509880     0.4072830
  C        3.5342200     0.1692850    -0.6230390
  C        2.3335540    -1.6180450     0.6838790
  C        2.4642000     1.1676880    -0.1911000
  C        1.2914730    -0.5760260     1.0805660
  C        0.0527250     0.9288280    -0.5097470
  C       -1.1808260     0.1020470    -0.2945890
  C       -2.2823960     0.6556420     0.3835130
  C       -1.2622800    -1.1716740    -0.8705440
  C       -3.4454200    -0.1153760     0.4879690
  C       -2.2065840     2.0368470     0.9809810
  C       -2.4366510    -1.9182050    -0.7675160
  C       -3.5304630    -1.3875060    -0.0828830
  H        4.4130950    -1.6928310     0.0671840
  H        4.0710030    -0.5292960     1.3442740
  H        4.4878230     0.6919580    -0.7653020
  H        3.2457620    -0.2529490    -1.5933530
  H        1.9831950    -2.1398170    -0.2152240
  H        2.4267450    -2.3652010     1.4815110
  H        2.8052746     1.7317470     0.8127778
  H        2.2671880     1.9220510    -0.9540200
  H        0.3069530    -1.0243470     1.2170770
  H        1.5834140    -0.1085280     2.0346680
  H       -0.4031770    -1.5700500    -1.4080150
  H       -4.3043690     0.2928860     1.0181070
  H       -2.0253310     2.7815300     0.2022010
  H       -3.1368610     2.2826280     1.5002420
  H       -1.3844770     2.1136550     1.7007310
  H       -2.4977120    -2.9041740    -1.2220500
  H       -4.4499260    -1.9612690     0.0072960
units angstrom
no_reorient  #important for SAPT in psi4, default
symmetry c1  #important for SAPT in psi4, default
}

set PROPERTIES_ORIGIN ["COM"]
properties('MP2/aug-cc-pvtz', properties = ['dipole'])
--------------------------------------------------------------------------

    Molecular point group: c1
  Charge       = 0
  Multiplicity = 1
  Basis Set: AUG-CC-PVTZ
    Blend: AUG-CC-PVTZ
  Basis Set: (AUG-CC-PVTZ AUX)
    Blend: AUG-CC-PVTZ-JKFIT

    Orbital Energies [Eh]
    ---------------------

    Doubly Occupied:

       1A    -20.511782     2A    -15.585558     3A    -11.350403
       4A    -11.267219     5A    -11.266646     6A    -11.252225
       7A    -11.246774     8A    -11.245473     9A    -11.242984
      10A    -11.239464    11A    -11.237282    12A    -11.230855
      13A    -11.228459    14A    -11.226970    15A    -11.220537
      16A     -1.367904    17A     -1.250114    18A     -1.161783
      19A     -1.083856    20A     -1.051098    21A     -1.036461
      22A     -1.022914    23A     -0.943089    24A     -0.917483
      25A     -0.867406    26A     -0.842957    27A     -0.815713
      28A     -0.790084    29A     -0.739225    30A     -0.712986
      31A     -0.667212    32A     -0.652974    33A     -0.646193
      34A     -0.626884    35A     -0.620691    36A     -0.613123
      37A     -0.595548    38A     -0.587621    39A     -0.576000
      40A     -0.571719    41A     -0.561074    42A     -0.548183
      43A     -0.541767    44A     -0.524310    45A     -0.507955
      46A     -0.497525    47A     -0.490820    48A     -0.489011
      49A     -0.478303    50A     -0.469256    51A     -0.461425
      52A     -0.417781    53A     -0.366130    54A     -0.340362
      55A     -0.330351

  @DF-RHF Final Energy:  -631.72427471872800

   => Energetics <=

    Nuclear Repulsion Energy =            999.4471572414902312
    One-Electron Energy =               -2842.0670191577132755
    Two-Electron Energy =                1210.8955871974949332
    Total Energy =                       -631.7242747187281111
  Basis Set: (AUG-CC-PVTZ AUX)
    Blend: AUG-CC-PVTZ-RI
    Molecular point group: c1

    Geometry (in Angstrom), charge = 0, multiplicity = 1:

       Center              X                  Y                   Z               Mass
    ------------   -----------------  -----------------  -----------------  -----------------
         O            0.056488166454     1.936718037253    -1.184183968427    15.994914619570
         N            1.256053166454     0.449095037253     0.084364031573    14.003074004430
         C            3.727161166454    -0.964752962747     0.431965031573    12.000000000000
         C            3.579780166454     0.155520037253    -0.598356968427    12.000000000000
         C            2.379114166454    -1.631809962747     0.708561031573    12.000000000000
         C            2.509760166454     1.153923037253    -0.166417968427    12.000000000000
         C            1.337033166454    -0.589790962747     1.105248031573    12.000000000000
         C            0.098285166454     0.915063037253    -0.485064968427    12.000000000000
         C           -1.135265833546     0.088282037253    -0.269906968427    12.000000000000
         C           -2.236835833546     0.641877037253     0.408195031573    12.000000000000
         C           -1.216719833546    -1.185438962747    -0.845861968427    12.000000000000
         C           -3.399859833546    -0.129140962747     0.512651031573    12.000000000000
         C           -2.161023833546     2.023082037253     1.005663031573    12.000000000000
         C           -2.391090833546    -1.931969962747    -0.742833968427    12.000000000000
         C           -3.484902833546    -1.401270962747    -0.058200968427    12.000000000000
         H            4.458655166454    -1.706595962747     0.091866031573     1.007825032230
         H            4.116563166454    -0.543060962747     1.368956031573     1.007825032230
         H            4.533383166454     0.678193037253    -0.740619968427     1.007825032230
         H            3.291322166454    -0.266713962747    -1.568670968427     1.007825032230
         H            2.028755166454    -2.153581962747    -0.190541968427     1.007825032230
         H            2.472305166454    -2.378965962747     1.506193031573     1.007825032230
         H            2.850834766454     1.717982037253     0.837459831573     1.007825032230
         H            2.312748166454     1.908286037253    -0.929337968427     1.007825032230
         H            0.352513166454    -1.038111962747     1.241759031573     1.007825032230
         H            1.628974166454    -0.122292962747     2.059350031573     1.007825032230
         H           -0.357616833546    -1.583814962747    -1.383332968427     1.007825032230
         H           -4.258808833546     0.279121037253     1.042789031573     1.007825032230
         H           -1.979770833546     2.767765037253     0.226883031573     1.007825032230
         H           -3.091300833546     2.268863037253     1.524924031573     1.007825032230
         H           -1.338916833546     2.099890037253     1.725413031573     1.007825032230
         H           -2.452151833546    -2.917938962747    -1.197367968427     1.007825032230
         H           -4.404365833546    -1.975033962747     0.031978031573     1.007825032230

  Basis Set: AUG-CC-PVTZ
    Blend: AUG-CC-PVTZ
  Basis Set: (AUG-CC-PVTZ AUX)
    Blend: AUG-CC-PVTZ-JKFIT
	 Reference Energy          =    -631.7242747187279974 [Eh]
	 Singles Energy            =      -0.0000000000000000 [Eh]
	 Same-Spin Energy          =      -0.6891378941676272 [Eh]
	 Opposite-Spin Energy      =      -2.2130356399999962 [Eh]
	 Correlation Energy        =      -2.9021735341676234 [Eh]
	 Total Energy              =    -634.6264482528956705 [Eh]

	 ================> DF-SCS-MP2 Energies <==================
	-----------------------------------------------------------
	 SCS Same-Spin Scale       =       0.3333333333333333 [-]
	 SCS Opposite-Spin Scale   =       1.2000000000000000 [-]
	 SCS Same-Spin Energy      =      -0.2297126313892091 [Eh]
	 SCS Opposite-Spin Energy  =      -2.6556427679999954 [Eh]
	 SCS Correlation Energy    =      -2.8853553993892045 [Eh]
	 SCS Total Energy          =    -634.6096301181172521 [Eh]
	-----------------------------------------------------------

  Dipole Moment: [D]
     X:     1.3385      Y:    -2.5735      Z:     2.2402     Total:     3.6651

*** Psi4 exiting successfully. Buy a developer a beer!
