                               Psi4 1.4a3.dev225

  ==> Input File <==

--------------------------------------------------------------------------
#psi4
#
memory 32 gb

molecule  {
0 1
  O        0.0109280     1.9504830    -1.2088660
  N        1.2104930     0.4628600     0.0596820
  C        3.6816010    -0.9509880     0.4072830
  C        3.5342200     0.1692850    -0.6230390
  C        2.3335540    -1.6180450     0.6838790
  C        2.4642000     1.1676880    -0.1911000
  C        1.2914730    -0.5760260     1.0805660
  C        0.0527250     0.9288280    -0.5097470
  C       -1.1808260     0.1020470    -0.2945890
  C       -2.2823960     0.6556420     0.3835130
  C       -1.2622800    -1.1716740    -0.8705440
  C       -3.4454200    -0.1153760     0.4879690
  C       -2.2065840     2.0368470     0.9809810
  C       -2.4366510    -1.9182050    -0.7675160
  C       -3.5304630    -1.3875060    -0.0828830
  H        4.4130950    -1.6928310     0.0671840
  H        4.0710030    -0.5292960     1.3442740
  H        4.4878230     0.6919580    -0.7653020
  H        3.2457620    -0.2529490    -1.5933530
  H        1.9831950    -2.1398170    -0.2152240
  H        2.4267450    -2.3652010     1.4815110
  H        2.7768740     1.6847790     0.7291870
  H        2.2671880     1.9220510    -0.9540200
  H        0.3069530    -1.0243470     1.2170770
  H        1.5834140    -0.1085280     2.0346680
  H       -0.4031770    -1.5700500    -1.4080150
  H       -4.2649248     0.2741380     0.9937623
  H       -2.0253310     2.7815300     0.2022010
  H       -3.1368610     2.2826280     1.5002420
  H       -1.3844770     2.1136550     1.7007310
  H       -2.4977120    -2.9041740    -1.2220500
  H       -4.4499260    -1.9612690     0.0072960
units angstrom
no_reorient  #important for SAPT in psi4, default
symmetry c1  #important for SAPT in psi4, default
}

set PROPERTIES_ORIGIN ["COM"]
properties('MP2/aug-cc-pvtz', properties = ['dipole'])
--------------------------------------------------------------------------

    Molecular point group: c1
  Charge       = 0
  Multiplicity = 1
  Basis Set: AUG-CC-PVTZ
    Blend: AUG-CC-PVTZ
  Basis Set: (AUG-CC-PVTZ AUX)
    Blend: AUG-CC-PVTZ-JKFIT

    Orbital Energies [Eh]
    ---------------------

    Doubly Occupied:

       1A    -20.510661     2A    -15.583786     3A    -11.349279
       4A    -11.266988     5A    -11.254553     6A    -11.251385
       7A    -11.246115     8A    -11.244689     9A    -11.242181
      10A    -11.238792    11A    -11.231049    12A    -11.230565
      13A    -11.228261    14A    -11.225614    15A    -11.220409
      16A     -1.366872    17A     -1.249484    18A     -1.161472
      19A     -1.083560    20A     -1.050659    21A     -1.037873
      22A     -1.023782    23A     -0.943677    24A     -0.918771
      25A     -0.867421    26A     -0.845116    27A     -0.817125
      28A     -0.790851    29A     -0.743676    30A     -0.714182
      31A     -0.666573    32A     -0.652744    33A     -0.648345
      34A     -0.628614    35A     -0.622946    36A     -0.615642
      37A     -0.597829    38A     -0.588053    39A     -0.576290
      40A     -0.571801    41A     -0.560366    42A     -0.547889
      43A     -0.542475    44A     -0.524723    45A     -0.508064
      46A     -0.501905    47A     -0.492253    48A     -0.489611
      49A     -0.478522    50A     -0.469554    51A     -0.461480
      52A     -0.416809    53A     -0.366133    54A     -0.339774
      55A     -0.329711

  @DF-RHF Final Energy:  -631.72996884488134

   => Energetics <=

    Nuclear Repulsion Energy =           1000.2555534408608082
    One-Electron Energy =               -2843.6971373294927616
    Two-Electron Energy =                1211.7116150437507258
    Total Energy =                       -631.7299688448813413
  Basis Set: (AUG-CC-PVTZ AUX)
    Blend: AUG-CC-PVTZ-RI
    Molecular point group: c1

    Geometry (in Angstrom), charge = 0, multiplicity = 1:

       Center              X                  Y                   Z               Mass
    ------------   -----------------  -----------------  -----------------  -----------------
         O            0.056433374149     1.937044084116    -1.183648451489    15.994914619570
         N            1.255998374149     0.449421084116     0.084899548511    14.003074004430
         C            3.727106374149    -0.964426915884     0.432500548511    12.000000000000
         C            3.579725374149     0.155846084116    -0.597821451489    12.000000000000
         C            2.379059374149    -1.631483915884     0.709096548511    12.000000000000
         C            2.509705374149     1.154249084116    -0.165882451489    12.000000000000
         C            1.336978374149    -0.589464915884     1.105783548511    12.000000000000
         C            0.098230374149     0.915389084116    -0.484529451489    12.000000000000
         C           -1.135320625851     0.088608084116    -0.269371451489    12.000000000000
         C           -2.236890625851     0.642203084116     0.408730548511    12.000000000000
         C           -1.216774625851    -1.185112915884    -0.845326451489    12.000000000000
         C           -3.399914625851    -0.128814915884     0.513186548511    12.000000000000
         C           -2.161078625851     2.023408084116     1.006198548511    12.000000000000
         C           -2.391145625851    -1.931643915884    -0.742298451489    12.000000000000
         C           -3.484957625851    -1.400944915884    -0.057665451489    12.000000000000
         H            4.458600374149    -1.706269915884     0.092401548511     1.007825032230
         H            4.116508374149    -0.542734915884     1.369491548511     1.007825032230
         H            4.533328374149     0.678519084116    -0.740084451489     1.007825032230
         H            3.291267374149    -0.266387915884    -1.568135451489     1.007825032230
         H            2.028700374149    -2.153255915884    -0.190006451489     1.007825032230
         H            2.472250374149    -2.378639915884     1.506728548511     1.007825032230
         H            2.822379374149     1.671340084116     0.754404548511     1.007825032230
         H            2.312693374149     1.908612084116    -0.928802451489     1.007825032230
         H            0.352458374149    -1.037785915884     1.242294548511     1.007825032230
         H            1.628919374149    -0.121966915884     2.059885548511     1.007825032230
         H           -0.357671625851    -1.583488915884    -1.382797451489     1.007825032230
         H           -4.219419425851     0.260699084116     1.018979848511     1.007825032230
         H           -1.979825625851     2.768091084116     0.227418548511     1.007825032230
         H           -3.091355625851     2.269189084116     1.525459548511     1.007825032230
         H           -1.338971625851     2.100216084116     1.725948548511     1.007825032230
         H           -2.452206625851    -2.917612915884    -1.196832451489     1.007825032230
         H           -4.404420625851    -1.974707915884     0.032513548511     1.007825032230

  Basis Set: AUG-CC-PVTZ
    Blend: AUG-CC-PVTZ
  Basis Set: (AUG-CC-PVTZ AUX)
    Blend: AUG-CC-PVTZ-JKFIT
	 Reference Energy          =    -631.7299688448813413 [Eh]
	 Singles Energy            =      -0.0000000000000000 [Eh]
	 Same-Spin Energy          =      -0.6889081904799317 [Eh]
	 Opposite-Spin Energy      =      -2.2119251455271396 [Eh]
	 Correlation Energy        =      -2.9008333360070715 [Eh]
	 Total Energy              =    -634.6308021808883950 [Eh]

	 ================> DF-SCS-MP2 Energies <==================
	-----------------------------------------------------------
	 SCS Same-Spin Scale       =       0.3333333333333333 [-]
	 SCS Opposite-Spin Scale   =       1.2000000000000000 [-]
	 SCS Same-Spin Energy      =      -0.2296360634933106 [Eh]
	 SCS Opposite-Spin Energy  =      -2.6543101746325672 [Eh]
	 SCS Correlation Energy    =      -2.8839462381258776 [Eh]
	 SCS Total Energy          =    -634.6139150830072140 [Eh]
	-----------------------------------------------------------

  Dipole Moment: [D]
     X:     1.3865      Y:    -2.5128      Z:     2.3133     Total:     3.6861

*** Psi4 exiting successfully. Buy a developer a beer!
