                               Psi4 1.4a3.dev225

  ==> Input File <==

--------------------------------------------------------------------------
#psi4
#
memory 32 gb

molecule  {
0 1
  O        0.0109280     1.9504830    -1.2088660
  N        1.2104930     0.4628600     0.0596820
  C        3.6816010    -0.9509880     0.4072830
  C        3.5342200     0.1692850    -0.6230390
  C        2.3335540    -1.6180450     0.6838790
  C        2.4642000     1.1676880    -0.1911000
  C        1.2914730    -0.5760260     1.0805660
  C        0.0527250     0.9288280    -0.5097470
  C       -1.1808260     0.1020470    -0.2945890
  C       -2.2823960     0.6556420     0.3835130
  C       -1.2622800    -1.1716740    -0.8705440
  C       -3.4454200    -0.1153760     0.4879690
  C       -2.2065840     2.0368470     0.9809810
  C       -2.4366510    -1.9182050    -0.7675160
  C       -3.5304630    -1.3875060    -0.0828830
  H        4.4130950    -1.6928310     0.0671840
  H        4.0710030    -0.5292960     1.3442740
  H        4.4878230     0.6919580    -0.7653020
  H        3.2194623    -0.2914454    -1.6818197
  H        1.9831950    -2.1398170    -0.2152240
  H        2.4267450    -2.3652010     1.4815110
  H        2.7768740     1.6847790     0.7291870
  H        2.2671880     1.9220510    -0.9540200
  H        0.3069530    -1.0243470     1.2170770
  H        1.5834140    -0.1085280     2.0346680
  H       -0.4031770    -1.5700500    -1.4080150
  H       -4.3043690     0.2928860     1.0181070
  H       -2.0253310     2.7815300     0.2022010
  H       -3.1368610     2.2826280     1.5002420
  H       -1.3844770     2.1136550     1.7007310
  H       -2.4977120    -2.9041740    -1.2220500
  H       -4.4499260    -1.9612690     0.0072960
units angstrom
no_reorient  #important for SAPT in psi4, default
symmetry c1  #important for SAPT in psi4, default
}

set PROPERTIES_ORIGIN ["COM"]
properties('MP2/aug-cc-pvtz', properties = ['dipole'])
--------------------------------------------------------------------------

    Molecular point group: c1
  Charge       = 0
  Multiplicity = 1
  Basis Set: AUG-CC-PVTZ
    Blend: AUG-CC-PVTZ
  Basis Set: (AUG-CC-PVTZ AUX)
    Blend: AUG-CC-PVTZ-JKFIT

    Orbital Energies [Eh]
    ---------------------

    Doubly Occupied:

       1A    -20.510852     2A    -15.584050     3A    -11.349560
       4A    -11.267294     5A    -11.255894     6A    -11.251870
       7A    -11.246322     8A    -11.245015     9A    -11.242649
      10A    -11.239119    11A    -11.237821    12A    -11.236980
      13A    -11.230848    14A    -11.229508    15A    -11.220390
      16A     -1.367068    17A     -1.249728    18A     -1.161430
      19A     -1.082735    20A     -1.050827    21A     -1.037057
      22A     -1.022154    23A     -0.943254    24A     -0.919222
      25A     -0.864968    26A     -0.844294    27A     -0.814787
      28A     -0.787696    29A     -0.741161    30A     -0.712511
      31A     -0.666849    32A     -0.652358    33A     -0.648366
      34A     -0.626536    35A     -0.618859    36A     -0.615281
      37A     -0.595390    38A     -0.587476    39A     -0.575667
      40A     -0.571877    41A     -0.560674    42A     -0.547975
      43A     -0.541667    44A     -0.524627    45A     -0.507647
      46A     -0.499198    47A     -0.491124    48A     -0.488749
      49A     -0.476139    50A     -0.466030    51A     -0.461773
      52A     -0.417035    53A     -0.366590    54A     -0.339994
      55A     -0.330014

  @DF-RHF Final Energy:  -631.72430532998976

   => Energetics <=

    Nuclear Repulsion Energy =            999.5326096592363001
    One-Electron Energy =               -2842.2639124554821137
    Two-Electron Energy =                1211.0069974662562799
    Total Energy =                       -631.7243053299896474
  Basis Set: (AUG-CC-PVTZ AUX)
    Blend: AUG-CC-PVTZ-RI
    Molecular point group: c1

    Geometry (in Angstrom), charge = 0, multiplicity = 1:

       Center              X                  Y                   Z               Mass
    ------------   -----------------  -----------------  -----------------  -----------------
         O            0.056759559436     1.937142064879    -1.183330313183    15.994914619570
         N            1.256324559436     0.449519064879     0.085217686817    14.003074004430
         C            3.727432559436    -0.964328935121     0.432818686817    12.000000000000
         C            3.580051559436     0.155944064879    -0.597503313183    12.000000000000
         C            2.379385559436    -1.631385935121     0.709414686817    12.000000000000
         C            2.510031559436     1.154347064879    -0.165564313183    12.000000000000
         C            1.337304559436    -0.589366935121     1.106101686817    12.000000000000
         C            0.098556559436     0.915487064879    -0.484211313183    12.000000000000
         C           -1.134994440564     0.088706064879    -0.269053313183    12.000000000000
         C           -2.236564440564     0.642301064879     0.409048686817    12.000000000000
         C           -1.216448440564    -1.185014935121    -0.845008313183    12.000000000000
         C           -3.399588440564    -0.128716935121     0.513504686817    12.000000000000
         C           -2.160752440564     2.023506064879     1.006516686817    12.000000000000
         C           -2.390819440564    -1.931545935121    -0.741980313183    12.000000000000
         C           -3.484631440564    -1.400846935121    -0.057347313183    12.000000000000
         H            4.458926559436    -1.706171935121     0.092719686817     1.007825032230
         H            4.116834559436    -0.542636935121     1.369809686817     1.007825032230
         H            4.533654559436     0.678617064879    -0.739766313183     1.007825032230
         H            3.265293859436    -0.304786335121    -1.656284013183     1.007825032230
         H            2.029026559436    -2.153157935121    -0.189688313183     1.007825032230
         H            2.472576559436    -2.378541935121     1.507046686817     1.007825032230
         H            2.822705559436     1.671438064879     0.754722686817     1.007825032230
         H            2.313019559436     1.908710064879    -0.928484313183     1.007825032230
         H            0.352784559436    -1.037687935121     1.242612686817     1.007825032230
         H            1.629245559436    -0.121868935121     2.060203686817     1.007825032230
         H           -0.357345440564    -1.583390935121    -1.382479313183     1.007825032230
         H           -4.258537440564     0.279545064879     1.043642686817     1.007825032230
         H           -1.979499440564     2.768189064879     0.227736686817     1.007825032230
         H           -3.091029440564     2.269287064879     1.525777686817     1.007825032230
         H           -1.338645440564     2.100314064879     1.726266686817     1.007825032230
         H           -2.451880440564    -2.917514935121    -1.196514313183     1.007825032230
         H           -4.404094440564    -1.974609935121     0.032831686817     1.007825032230

  Basis Set: AUG-CC-PVTZ
    Blend: AUG-CC-PVTZ
  Basis Set: (AUG-CC-PVTZ AUX)
    Blend: AUG-CC-PVTZ-JKFIT
	 Reference Energy          =    -631.7243053299897610 [Eh]
	 Singles Energy            =      -0.0000000000000000 [Eh]
	 Same-Spin Energy          =      -0.6890530713515944 [Eh]
	 Opposite-Spin Energy      =      -2.2130075508330669 [Eh]
	 Correlation Energy        =      -2.9020606221846612 [Eh]
	 Total Energy              =    -634.6263659521744103 [Eh]

	 ================> DF-SCS-MP2 Energies <==================
	-----------------------------------------------------------
	 SCS Same-Spin Scale       =       0.3333333333333333 [-]
	 SCS Opposite-Spin Scale   =       1.2000000000000000 [-]
	 SCS Same-Spin Energy      =      -0.2296843571171981 [Eh]
	 SCS Opposite-Spin Energy  =      -2.6556090609996801 [Eh]
	 SCS Correlation Energy    =      -2.8852934181168783 [Eh]
	 SCS Total Energy          =    -634.6095987481066913 [Eh]
	-----------------------------------------------------------

  Dipole Moment: [D]
     X:     1.4081      Y:    -2.4998      Z:     2.3694     Total:     3.7210

*** Psi4 exiting successfully. Buy a developer a beer!
