                               Psi4 1.4a3.dev225

  ==> Input File <==

--------------------------------------------------------------------------
#psi4
#
memory 32 gb

molecule  {
0 1
  O        0.0109280     1.9504830    -1.2088660
  N        1.2104930     0.4628600     0.0596820
  C        3.6816010    -0.9509880     0.4072830
  C        3.5365538     0.1821731    -0.6462269
  C        2.3335540    -1.6180450     0.6838790
  C        2.4642000     1.1676880    -0.1911000
  C        1.2914730    -0.5760260     1.0805660
  C        0.0527250     0.9288280    -0.5097470
  C       -1.1808260     0.1020470    -0.2945890
  C       -2.2823960     0.6556420     0.3835130
  C       -1.2622800    -1.1716740    -0.8705440
  C       -3.4454200    -0.1153760     0.4879690
  C       -2.2065840     2.0368470     0.9809810
  C       -2.4366510    -1.9182050    -0.7675160
  C       -3.5304630    -1.3875060    -0.0828830
  H        4.4130950    -1.6928310     0.0671840
  H        4.0710030    -0.5292960     1.3442740
  H        4.4878230     0.6919580    -0.7653020
  H        3.2457620    -0.2529490    -1.5933530
  H        1.9831950    -2.1398170    -0.2152240
  H        2.4267450    -2.3652010     1.4815110
  H        2.7768740     1.6847790     0.7291870
  H        2.2671880     1.9220510    -0.9540200
  H        0.3069530    -1.0243470     1.2170770
  H        1.5834140    -0.1085280     2.0346680
  H       -0.4031770    -1.5700500    -1.4080150
  H       -4.3043690     0.2928860     1.0181070
  H       -2.0253310     2.7815300     0.2022010
  H       -3.1368610     2.2826280     1.5002420
  H       -1.3844770     2.1136550     1.7007310
  H       -2.4977120    -2.9041740    -1.2220500
  H       -4.4499260    -1.9612690     0.0072960
units angstrom
no_reorient  #important for SAPT in psi4, default
symmetry c1  #important for SAPT in psi4, default
}

set PROPERTIES_ORIGIN ["COM"]
properties('MP2/aug-cc-pvtz', properties = ['dipole'])
--------------------------------------------------------------------------

    Molecular point group: c1
  Charge       = 0
  Multiplicity = 1
  Basis Set: AUG-CC-PVTZ
    Blend: AUG-CC-PVTZ
  Basis Set: (AUG-CC-PVTZ AUX)
    Blend: AUG-CC-PVTZ-JKFIT

    Orbital Energies [Eh]
    ---------------------

    Doubly Occupied:

       1A    -20.510755     2A    -15.584018     3A    -11.349502
       4A    -11.266892     5A    -11.254407     6A    -11.251849
       7A    -11.246360     8A    -11.245037     9A    -11.242650
      10A    -11.239145    11A    -11.236977    12A    -11.230519
      13A    -11.228924    14A    -11.224708    15A    -11.220332
      16A     -1.366957    17A     -1.249300    18A     -1.161417
      19A     -1.080882    20A     -1.050768    21A     -1.037387
      22A     -1.022966    23A     -0.942854    24A     -0.918035
      25A     -0.868039    26A     -0.843473    27A     -0.815427
      28A     -0.791975    29A     -0.742711    30A     -0.712145
      31A     -0.666527    32A     -0.653106    33A     -0.648294
      34A     -0.628193    35A     -0.620617    36A     -0.615122
      37A     -0.595846    38A     -0.587397    39A     -0.575639
      40A     -0.571484    41A     -0.559283    42A     -0.547616
      43A     -0.541451    44A     -0.524931    45A     -0.508479
      46A     -0.503407    47A     -0.491969    48A     -0.489485
      49A     -0.480096    50A     -0.470762    51A     -0.456695
      52A     -0.416840    53A     -0.366485    54A     -0.339988
      55A     -0.329995

  @DF-RHF Final Energy:  -631.73028720472075

   => Energetics <=

    Nuclear Repulsion Energy =            999.6468047542969089
    One-Electron Energy =               -2842.5019459924387775
    Two-Electron Energy =                1211.1248540334211157
    Total Energy =                       -631.7302872047207529
  Basis Set: (AUG-CC-PVTZ AUX)
    Blend: AUG-CC-PVTZ-RI
    Molecular point group: c1

    Geometry (in Angstrom), charge = 0, multiplicity = 1:

       Center              X                  Y                   Z               Mass
    ------------   -----------------  -----------------  -----------------  -----------------
         O            0.056491205063     1.936189700040    -1.182399407354    15.994914619570
         N            1.256056205063     0.448566700040     0.086148592646    14.003074004430
         C            3.727164205063    -0.965281299960     0.433749592646    12.000000000000
         C            3.582117005063     0.167879800040    -0.619760307354    12.000000000000
         C            2.379117205063    -1.632338299960     0.710345592646    12.000000000000
         C            2.509763205063     1.153394700040    -0.164633407354    12.000000000000
         C            1.337036205063    -0.590319299960     1.107032592646    12.000000000000
         C            0.098288205063     0.914534700040    -0.483280407354    12.000000000000
         C           -1.135262794937     0.087753700040    -0.268122407354    12.000000000000
         C           -2.236832794937     0.641348700040     0.409979592646    12.000000000000
         C           -1.216716794937    -1.185967299960    -0.844077407354    12.000000000000
         C           -3.399856794937    -0.129669299960     0.514435592646    12.000000000000
         C           -2.161020794937     2.022553700040     1.007447592646    12.000000000000
         C           -2.391087794937    -1.932498299960    -0.741049407354    12.000000000000
         C           -3.484899794937    -1.401799299960    -0.056416407354    12.000000000000
         H            4.458658205063    -1.707124299960     0.093650592646     1.007825032230
         H            4.116566205063    -0.543589299960     1.370740592646     1.007825032230
         H            4.533386205063     0.677664700040    -0.738835407354     1.007825032230
         H            3.291325205063    -0.267242299960    -1.566886407354     1.007825032230
         H            2.028758205063    -2.154110299960    -0.188757407354     1.007825032230
         H            2.472308205063    -2.379494299960     1.507977592646     1.007825032230
         H            2.822437205063     1.670485700040     0.755653592646     1.007825032230
         H            2.312751205063     1.907757700040    -0.927553407354     1.007825032230
         H            0.352516205063    -1.038640299960     1.243543592646     1.007825032230
         H            1.628977205063    -0.122821299960     2.061134592646     1.007825032230
         H           -0.357613794937    -1.584343299960    -1.381548407354     1.007825032230
         H           -4.258805794937     0.278592700040     1.044573592646     1.007825032230
         H           -1.979767794937     2.767236700040     0.228667592646     1.007825032230
         H           -3.091297794937     2.268334700040     1.526708592646     1.007825032230
         H           -1.338913794937     2.099361700040     1.727197592646     1.007825032230
         H           -2.452148794937    -2.918467299960    -1.195583407354     1.007825032230
         H           -4.404362794937    -1.975562299960     0.033762592646     1.007825032230

  Basis Set: AUG-CC-PVTZ
    Blend: AUG-CC-PVTZ
  Basis Set: (AUG-CC-PVTZ AUX)
    Blend: AUG-CC-PVTZ-JKFIT
	 Reference Energy          =    -631.7302872047207529 [Eh]
	 Singles Energy            =      -0.0000000000000000 [Eh]
	 Same-Spin Energy          =      -0.6888665126164776 [Eh]
	 Opposite-Spin Energy      =      -2.2121598694773210 [Eh]
	 Correlation Energy        =      -2.9010263820937987 [Eh]
	 Total Energy              =    -634.6313135868145991 [Eh]

	 ================> DF-SCS-MP2 Energies <==================
	-----------------------------------------------------------
	 SCS Same-Spin Scale       =       0.3333333333333333 [-]
	 SCS Opposite-Spin Scale   =       1.2000000000000000 [-]
	 SCS Same-Spin Energy      =      -0.2296221708721592 [Eh]
	 SCS Opposite-Spin Energy  =      -2.6545918433727853 [Eh]
	 SCS Correlation Energy    =      -2.8842140142449444 [Eh]
	 SCS Total Energy          =    -634.6145012189656427 [Eh]
	-----------------------------------------------------------

  Dipole Moment: [D]
     X:     1.4024      Y:    -2.5129      Z:     2.2935     Total:     3.6799

*** Psi4 exiting successfully. Buy a developer a beer!
