                               Psi4 1.4a3.dev225

  ==> Input File <==

--------------------------------------------------------------------------
#psi4
#
memory 32 gb

molecule  {
0 1
  O        0.0109280     1.9504830    -1.2088660
  N        1.2346045     0.4340708     0.0941300
  C        3.6816010    -0.9509880     0.4072830
  C        3.5342200     0.1692850    -0.6230390
  C        2.3335540    -1.6180450     0.6838790
  C        2.4642000     1.1676880    -0.1911000
  C        1.2914730    -0.5760260     1.0805660
  C        0.0527250     0.9288280    -0.5097470
  C       -1.1808260     0.1020470    -0.2945890
  C       -2.2823960     0.6556420     0.3835130
  C       -1.2622800    -1.1716740    -0.8705440
  C       -3.4454200    -0.1153760     0.4879690
  C       -2.2065840     2.0368470     0.9809810
  C       -2.4366510    -1.9182050    -0.7675160
  C       -3.5304630    -1.3875060    -0.0828830
  H        4.4130950    -1.6928310     0.0671840
  H        4.0710030    -0.5292960     1.3442740
  H        4.4878230     0.6919580    -0.7653020
  H        3.2457620    -0.2529490    -1.5933530
  H        1.9831950    -2.1398170    -0.2152240
  H        2.4267450    -2.3652010     1.4815110
  H        2.7768740     1.6847790     0.7291870
  H        2.2671880     1.9220510    -0.9540200
  H        0.3069530    -1.0243470     1.2170770
  H        1.5834140    -0.1085280     2.0346680
  H       -0.4031770    -1.5700500    -1.4080150
  H       -4.3043690     0.2928860     1.0181070
  H       -2.0253310     2.7815300     0.2022010
  H       -3.1368610     2.2826280     1.5002420
  H       -1.3844770     2.1136550     1.7007310
  H       -2.4977120    -2.9041740    -1.2220500
  H       -4.4499260    -1.9612690     0.0072960
units angstrom
no_reorient  #important for SAPT in psi4, default
symmetry c1  #important for SAPT in psi4, default
}

set PROPERTIES_ORIGIN ["COM"]
properties('MP2/aug-cc-pvtz', properties = ['dipole'])
--------------------------------------------------------------------------

    Molecular point group: c1
  Charge       = 0
  Multiplicity = 1
  Basis Set: AUG-CC-PVTZ
    Blend: AUG-CC-PVTZ
  Basis Set: (AUG-CC-PVTZ AUX)
    Blend: AUG-CC-PVTZ-JKFIT

    Orbital Energies [Eh]
    ---------------------

    Doubly Occupied:

       1A    -20.520213     2A    -15.581232     3A    -11.356953
       4A    -11.261402     5A    -11.253467     6A    -11.253018
       7A    -11.247429     8A    -11.246215     9A    -11.243555
      10A    -11.239908    11A    -11.237832    12A    -11.227411
      13A    -11.226469    14A    -11.223704    15A    -11.221480
      16A     -1.369017    17A     -1.253707    18A     -1.162497
      19A     -1.078895    20A     -1.051666    21A     -1.036941
      22A     -1.025348    23A     -0.942937    24A     -0.912185
      25A     -0.867244    26A     -0.845976    27A     -0.816154
      28A     -0.788760    29A     -0.744071    30A     -0.712152
      31A     -0.668821    32A     -0.653503    33A     -0.648826
      34A     -0.624631    35A     -0.621860    36A     -0.615893
      37A     -0.596447    38A     -0.585644    39A     -0.576776
      40A     -0.572206    41A     -0.567027    42A     -0.546753
      43A     -0.542888    44A     -0.522784    45A     -0.509398
      46A     -0.501042    47A     -0.492075    48A     -0.489105
      49A     -0.478812    50A     -0.466743    51A     -0.462818
      52A     -0.419383    53A     -0.361643    54A     -0.341003
      55A     -0.331051

  @DF-RHF Final Energy:  -631.72532919097011

   => Energetics <=

    Nuclear Repulsion Energy =            999.8562436926077908
    One-Electron Energy =               -2842.8732084174798729
    Two-Electron Energy =                1211.2916355339020811
    Total Energy =                       -631.7253291909701147
  Basis Set: (AUG-CC-PVTZ AUX)
    Blend: AUG-CC-PVTZ-RI
    Molecular point group: c1

    Geometry (in Angstrom), charge = 0, multiplicity = 1:

       Center              X                  Y                   Z               Mass
    ------------   -----------------  -----------------  -----------------  -----------------
         O            0.054966920255     1.938935683958    -1.186143949744    15.994914619570
         N            1.278643420255     0.422523483958     0.116852050256    14.003074004430
         C            3.725639920255    -0.962535316042     0.430005050256    12.000000000000
         C            3.578258920255     0.157737683958    -0.600316949744    12.000000000000
         C            2.377592920255    -1.629592316042     0.706601050256    12.000000000000
         C            2.508238920255     1.156140683958    -0.168377949744    12.000000000000
         C            1.335511920255    -0.587573316042     1.103288050256    12.000000000000
         C            0.096763920255     0.917280683958    -0.487024949744    12.000000000000
         C           -1.136787079745     0.090499683958    -0.271866949744    12.000000000000
         C           -2.238357079745     0.644094683958     0.406235050256    12.000000000000
         C           -1.218241079745    -1.183221316042    -0.847821949744    12.000000000000
         C           -3.401381079745    -0.126923316042     0.510691050256    12.000000000000
         C           -2.162545079745     2.025299683958     1.003703050256    12.000000000000
         C           -2.392612079745    -1.929752316042    -0.744793949744    12.000000000000
         C           -3.486424079745    -1.399053316042    -0.060160949744    12.000000000000
         H            4.457133920255    -1.704378316042     0.089906050256     1.007825032230
         H            4.115041920255    -0.540843316042     1.366996050256     1.007825032230
         H            4.531861920255     0.680410683958    -0.742579949744     1.007825032230
         H            3.289800920255    -0.264496316042    -1.570630949744     1.007825032230
         H            2.027233920255    -2.151364316042    -0.192501949744     1.007825032230
         H            2.470783920255    -2.376748316042     1.504233050256     1.007825032230
         H            2.820912920255     1.673231683958     0.751909050256     1.007825032230
         H            2.311226920255     1.910503683958    -0.931297949744     1.007825032230
         H            0.350991920255    -1.035894316042     1.239799050256     1.007825032230
         H            1.627452920255    -0.120075316042     2.057390050256     1.007825032230
         H           -0.359138079745    -1.581597316042    -1.385292949744     1.007825032230
         H           -4.260330079745     0.281338683958     1.040829050256     1.007825032230
         H           -1.981292079745     2.769982683958     0.224923050256     1.007825032230
         H           -3.092822079745     2.271080683958     1.522964050256     1.007825032230
         H           -1.340438079745     2.102107683958     1.723453050256     1.007825032230
         H           -2.453673079745    -2.915721316042    -1.199327949744     1.007825032230
         H           -4.405887079745    -1.972816316042     0.030018050256     1.007825032230

  Basis Set: AUG-CC-PVTZ
    Blend: AUG-CC-PVTZ
  Basis Set: (AUG-CC-PVTZ AUX)
    Blend: AUG-CC-PVTZ-JKFIT
	 Reference Energy          =    -631.7253291909701147 [Eh]
	 Singles Energy            =      -0.0000000000000000 [Eh]
	 Same-Spin Energy          =      -0.6897451819151512 [Eh]
	 Opposite-Spin Energy      =      -2.2134570417470543 [Eh]
	 Correlation Energy        =      -2.9032022236622055 [Eh]
	 Total Energy              =    -634.6285314146323344 [Eh]

	 ================> DF-SCS-MP2 Energies <==================
	-----------------------------------------------------------
	 SCS Same-Spin Scale       =       0.3333333333333333 [-]
	 SCS Opposite-Spin Scale   =       1.2000000000000000 [-]
	 SCS Same-Spin Energy      =      -0.2299150606383837 [Eh]
	 SCS Opposite-Spin Energy  =      -2.6561484500964649 [Eh]
	 SCS Correlation Energy    =      -2.8860635107348487 [Eh]
	 SCS Total Energy          =    -634.6113927017049718 [Eh]
	-----------------------------------------------------------

  Dipole Moment: [D]
     X:     1.1713      Y:    -2.3580      Z:     2.1405     Total:     3.3932

*** Psi4 exiting successfully. Buy a developer a beer!
