                               Psi4 1.4a3.dev225

  ==> Input File <==

--------------------------------------------------------------------------
#psi4
#
memory 32 gb

molecule  {
0 1
  O        0.0109280     1.9504830    -1.2088660
  N        1.2104930     0.4628600     0.0596820
  C        3.6816010    -0.9509880     0.4072830
  C        3.5342200     0.1692850    -0.6230390
  C        2.3335540    -1.6180450     0.6838790
  C        2.4642000     1.1676880    -0.1911000
  C        1.2914730    -0.5760260     1.0805660
  C        0.0527250     0.9288280    -0.5097470
  C       -1.1808260     0.1020470    -0.2945890
  C       -2.2823960     0.6556420     0.3835130
  C       -1.2622800    -1.1716740    -0.8705440
  C       -3.4454200    -0.1153760     0.4879690
  C       -2.2065840     2.0368470     0.9809810
  C       -2.4366510    -1.9182050    -0.7675160
  C       -3.5304630    -1.3875060    -0.0828830
  H        4.4130950    -1.6928310     0.0671840
  H        4.0710030    -0.5292960     1.3442740
  H        4.4443476     0.6681290    -0.7588161
  H        3.2457620    -0.2529490    -1.5933530
  H        1.9831950    -2.1398170    -0.2152240
  H        2.4267450    -2.3652010     1.4815110
  H        2.7768740     1.6847790     0.7291870
  H        2.2671880     1.9220510    -0.9540200
  H        0.3069530    -1.0243470     1.2170770
  H        1.5834140    -0.1085280     2.0346680
  H       -0.4031770    -1.5700500    -1.4080150
  H       -4.3043690     0.2928860     1.0181070
  H       -2.0253310     2.7815300     0.2022010
  H       -3.1368610     2.2826280     1.5002420
  H       -1.3844770     2.1136550     1.7007310
  H       -2.4977120    -2.9041740    -1.2220500
  H       -4.4499260    -1.9612690     0.0072960
units angstrom
no_reorient  #important for SAPT in psi4, default
symmetry c1  #important for SAPT in psi4, default
}

set PROPERTIES_ORIGIN ["COM"]
properties('MP2/aug-cc-pvtz', properties = ['dipole'])
--------------------------------------------------------------------------

    Molecular point group: c1
  Charge       = 0
  Multiplicity = 1
  Basis Set: AUG-CC-PVTZ
    Blend: AUG-CC-PVTZ
  Basis Set: (AUG-CC-PVTZ AUX)
    Blend: AUG-CC-PVTZ-JKFIT

    Orbital Energies [Eh]
    ---------------------

    Doubly Occupied:

       1A    -20.510543     2A    -15.583568     3A    -11.349204
       4A    -11.266813     5A    -11.254251     6A    -11.251702
       7A    -11.246181     8A    -11.244853     9A    -11.242511
      10A    -11.239003    11A    -11.236847    12A    -11.230263
      13A    -11.227884    14A    -11.220218    15A    -11.219466
      16A     -1.366758    17A     -1.249287    18A     -1.161285
      19A     -1.084236    20A     -1.050656    21A     -1.037475
      22A     -1.023912    23A     -0.943041    24A     -0.918580
      25A     -0.869790    26A     -0.844006    27A     -0.815464
      28A     -0.792188    29A     -0.742446    30A     -0.712557
      31A     -0.666596    32A     -0.652832    33A     -0.648358
      34A     -0.630021    35A     -0.620782    36A     -0.615327
      37A     -0.596106    38A     -0.589914    39A     -0.575552
      40A     -0.571647    41A     -0.560323    42A     -0.548804
      43A     -0.541516    44A     -0.524614    45A     -0.507982
      46A     -0.501921    47A     -0.491720    48A     -0.489228
      49A     -0.478238    50A     -0.470772    51A     -0.462131
      52A     -0.416812    53A     -0.365944    54A     -0.339847
      55A     -0.329857

  @DF-RHF Final Energy:  -631.72982747242281

   => Energetics <=

    Nuclear Repulsion Energy =           1000.2564670085648686
    One-Electron Energy =               -2843.7089292550831487
    Two-Electron Energy =                1211.7226347740954679
    Total Energy =                       -631.7298274724228122
  Basis Set: (AUG-CC-PVTZ AUX)
    Blend: AUG-CC-PVTZ-RI
    Molecular point group: c1

    Geometry (in Angstrom), charge = 0, multiplicity = 1:

       Center              X                  Y                   Z               Mass
    ------------   -----------------  -----------------  -----------------  -----------------
         O            0.056844775869     1.937069293260    -1.183801416070    15.994914619570
         N            1.256409775869     0.449446293260     0.084746583930    14.003074004430
         C            3.727517775869    -0.964401706740     0.432347583930    12.000000000000
         C            3.580136775869     0.155871293260    -0.597974416070    12.000000000000
         C            2.379470775869    -1.631458706740     0.708943583930    12.000000000000
         C            2.510116775869     1.154274293260    -0.166035416070    12.000000000000
         C            1.337389775869    -0.589439706740     1.105630583930    12.000000000000
         C            0.098641775869     0.915414293260    -0.484682416070    12.000000000000
         C           -1.134909224131     0.088633293260    -0.269524416070    12.000000000000
         C           -2.236479224131     0.642228293260     0.408577583930    12.000000000000
         C           -1.216363224131    -1.185087706740    -0.845479416070    12.000000000000
         C           -3.399503224131    -0.128789706740     0.513033583930    12.000000000000
         C           -2.160667224131     2.023433293260     1.006045583930    12.000000000000
         C           -2.390734224131    -1.931618706740    -0.742451416070    12.000000000000
         C           -3.484546224131    -1.400919706740    -0.057818416070    12.000000000000
         H            4.459011775869    -1.706244706740     0.092248583930     1.007825032230
         H            4.116919775869    -0.542709706740     1.369338583930     1.007825032230
         H            4.490264375869     0.654715293260    -0.733751516070     1.007825032230
         H            3.291678775869    -0.266362706740    -1.568288416070     1.007825032230
         H            2.029111775869    -2.153230706740    -0.190159416070     1.007825032230
         H            2.472661775869    -2.378614706740     1.506575583930     1.007825032230
         H            2.822790775869     1.671365293260     0.754251583930     1.007825032230
         H            2.313104775869     1.908637293260    -0.928955416070     1.007825032230
         H            0.352869775869    -1.037760706740     1.242141583930     1.007825032230
         H            1.629330775869    -0.121941706740     2.059732583930     1.007825032230
         H           -0.357260224131    -1.583463706740    -1.382950416070     1.007825032230
         H           -4.258452224131     0.279472293260     1.043171583930     1.007825032230
         H           -1.979414224131     2.768116293260     0.227265583930     1.007825032230
         H           -3.090944224131     2.269214293260     1.525306583930     1.007825032230
         H           -1.338560224131     2.100241293260     1.725795583930     1.007825032230
         H           -2.451795224131    -2.917587706740    -1.196985416070     1.007825032230
         H           -4.404009224131    -1.974682706740     0.032360583930     1.007825032230

  Basis Set: AUG-CC-PVTZ
    Blend: AUG-CC-PVTZ
  Basis Set: (AUG-CC-PVTZ AUX)
    Blend: AUG-CC-PVTZ-JKFIT
	 Reference Energy          =    -631.7298274724228122 [Eh]
	 Singles Energy            =      -0.0000000000000000 [Eh]
	 Same-Spin Energy          =      -0.6890095078674384 [Eh]
	 Opposite-Spin Energy      =      -2.2119534299619628 [Eh]
	 Correlation Energy        =      -2.9009629378294011 [Eh]
	 Total Energy              =    -634.6307904102521888 [Eh]

	 ================> DF-SCS-MP2 Energies <==================
	-----------------------------------------------------------
	 SCS Same-Spin Scale       =       0.3333333333333333 [-]
	 SCS Opposite-Spin Scale   =       1.2000000000000000 [-]
	 SCS Same-Spin Energy      =      -0.2296698359558128 [Eh]
	 SCS Opposite-Spin Energy  =      -2.6543441159543550 [Eh]
	 SCS Correlation Energy    =      -2.8840139519101680 [Eh]
	 SCS Total Energy          =    -634.6138414243330317 [Eh]
	-----------------------------------------------------------

  Dipole Moment: [D]
     X:     1.4419      Y:    -2.5049      Z:     2.2930     Total:     3.6894

*** Psi4 exiting successfully. Buy a developer a beer!
