                               Psi4 1.4a3.dev225

  ==> Input File <==

--------------------------------------------------------------------------
#psi4
#
memory 32 gb

molecule  {
0 1
  O        0.0109280     1.9504830    -1.2088660
  N        1.2104930     0.4628600     0.0596820
  C        3.6816010    -0.9509880     0.4072830
  C        3.5342200     0.1692850    -0.6230390
  C        2.3335540    -1.6180450     0.6838790
  C        2.4642000     1.1676880    -0.1911000
  C        1.2914730    -0.5760260     1.0805660
  C        0.0527250     0.9288280    -0.5097470
  C       -1.1808260     0.1020470    -0.2945890
  C       -2.2823960     0.6556420     0.3835130
  C       -1.2622800    -1.1716740    -0.8705440
  C       -3.4454200    -0.1153760     0.4879690
  C       -2.2065840     2.0368470     0.9809810
  C       -2.4366510    -1.9182050    -0.7675160
  C       -3.5304630    -1.3875060    -0.0828830
  H        4.4130950    -1.6928310     0.0671840
  H        4.0710030    -0.5292960     1.3442740
  H        4.4878230     0.6919580    -0.7653020
  H        3.2457620    -0.2529490    -1.5933530
  H        1.9831950    -2.1398170    -0.2152240
  H        2.4267450    -2.3652010     1.4815110
  H        2.7768740     1.6847790     0.7291870
  H        2.2671880     1.9220510    -0.9540200
  H        0.3069530    -1.0243470     1.2170770
  H        1.5834140    -0.1085280     2.0346680
  H       -0.4031770    -1.5700500    -1.4080150
  H       -4.3832574     0.3303820     1.0667965
  H       -2.0253310     2.7815300     0.2022010
  H       -3.1368610     2.2826280     1.5002420
  H       -1.3844770     2.1136550     1.7007310
  H       -2.4977120    -2.9041740    -1.2220500
  H       -4.4499260    -1.9612690     0.0072960
units angstrom
no_reorient  #important for SAPT in psi4, default
symmetry c1  #important for SAPT in psi4, default
}

set PROPERTIES_ORIGIN ["COM"]
properties('MP2/aug-cc-pvtz', properties = ['dipole'])
--------------------------------------------------------------------------

    Molecular point group: c1
  Charge       = 0
  Multiplicity = 1
  Basis Set: AUG-CC-PVTZ
    Blend: AUG-CC-PVTZ
  Basis Set: (AUG-CC-PVTZ AUX)
    Blend: AUG-CC-PVTZ-JKFIT

    Orbital Energies [Eh]
    ---------------------

    Doubly Occupied:

       1A    -20.511108     2A    -15.584206     3A    -11.349905
       4A    -11.267292     5A    -11.254842     6A    -11.253027
       7A    -11.248409     8A    -11.246963     9A    -11.245761
      10A    -11.243590    11A    -11.239945    12A    -11.230818
      13A    -11.228480    14A    -11.225848    15A    -11.220217
      16A     -1.367322    17A     -1.249869    18A     -1.161679
      19A     -1.083778    20A     -1.051255    21A     -1.036668
      22A     -1.022339    23A     -0.942547    24A     -0.919004
      25A     -0.867597    26A     -0.843033    27A     -0.812392
      28A     -0.791381    29A     -0.741379    30A     -0.709324
      31A     -0.667258    32A     -0.653316    33A     -0.648535
      34A     -0.627581    35A     -0.617834    36A     -0.613305
      37A     -0.593033    38A     -0.588046    39A     -0.573892
      40A     -0.571765    41A     -0.559993    42A     -0.546931
      43A     -0.538759    44A     -0.525033    45A     -0.508137
      46A     -0.502297    47A     -0.491259    48A     -0.486707
      49A     -0.478381    50A     -0.469812    51A     -0.461752
      52A     -0.417241    53A     -0.366475    54A     -0.340620
      55A     -0.330696

  @DF-RHF Final Energy:  -631.72327514155131

   => Energetics <=

    Nuclear Repulsion Energy =            999.4464633380011946
    One-Electron Energy =               -2842.0822086104758455
    Two-Electron Energy =                1210.9124701309233387
    Total Energy =                       -631.7232751415513121
  Basis Set: (AUG-CC-PVTZ AUX)
    Blend: AUG-CC-PVTZ-RI
    Molecular point group: c1

    Geometry (in Angstrom), charge = 0, multiplicity = 1:

       Center              X                  Y                   Z               Mass
    ------------   -----------------  -----------------  -----------------  -----------------
         O            0.057020475813     1.936765032139    -1.184010807259    15.994914619570
         N            1.256585475813     0.449142032139     0.084537192741    14.003074004430
         C            3.727693475813    -0.964705967861     0.432138192741    12.000000000000
         C            3.580312475813     0.155567032139    -0.598183807259    12.000000000000
         C            2.379646475813    -1.631762967861     0.708734192741    12.000000000000
         C            2.510292475813     1.153970032139    -0.166244807259    12.000000000000
         C            1.337565475813    -0.589743967861     1.105421192741    12.000000000000
         C            0.098817475813     0.915110032139    -0.484891807259    12.000000000000
         C           -1.134733524187     0.088329032139    -0.269733807259    12.000000000000
         C           -2.236303524187     0.641924032139     0.408368192741    12.000000000000
         C           -1.216187524187    -1.185391967861    -0.845688807259    12.000000000000
         C           -3.399327524187    -0.129093967861     0.512824192741    12.000000000000
         C           -2.160491524187     2.023129032139     1.005836192741    12.000000000000
         C           -2.390558524187    -1.931922967861    -0.742660807259    12.000000000000
         C           -3.484370524187    -1.401223967861    -0.058027807259    12.000000000000
         H            4.459187475813    -1.706548967861     0.092039192741     1.007825032230
         H            4.117095475813    -0.543013967861     1.369129192741     1.007825032230
         H            4.533915475813     0.678240032139    -0.740446807259     1.007825032230
         H            3.291854475813    -0.266666967861    -1.568497807259     1.007825032230
         H            2.029287475813    -2.153534967861    -0.190368807259     1.007825032230
         H            2.472837475813    -2.378918967861     1.506366192741     1.007825032230
         H            2.822966475813     1.671061032139     0.754042192741     1.007825032230
         H            2.313280475813     1.908333032139    -0.929164807259     1.007825032230
         H            0.353045475813    -1.038064967861     1.241932192741     1.007825032230
         H            1.629506475813    -0.122245967861     2.059523192741     1.007825032230
         H           -0.357084524187    -1.583767967861    -1.383159807259     1.007825032230
         H           -4.337164924187     0.316664032139     1.091651692741     1.007825032230
         H           -1.979238524187     2.767812032139     0.227056192741     1.007825032230
         H           -3.090768524187     2.268910032139     1.525097192741     1.007825032230
         H           -1.338384524187     2.099937032139     1.725586192741     1.007825032230
         H           -2.451619524187    -2.917891967861    -1.197194807259     1.007825032230
         H           -4.403833524187    -1.974986967861     0.032151192741     1.007825032230

  Basis Set: AUG-CC-PVTZ
    Blend: AUG-CC-PVTZ
  Basis Set: (AUG-CC-PVTZ AUX)
    Blend: AUG-CC-PVTZ-JKFIT
	 Reference Energy          =    -631.7232751415513121 [Eh]
	 Singles Energy            =      -0.0000000000000000 [Eh]
	 Same-Spin Energy          =      -0.6892887640715722 [Eh]
	 Opposite-Spin Energy      =      -2.2132291513580578 [Eh]
	 Correlation Energy        =      -2.9025179154296299 [Eh]
	 Total Energy              =    -634.6257930569809105 [Eh]

	 ================> DF-SCS-MP2 Energies <==================
	-----------------------------------------------------------
	 SCS Same-Spin Scale       =       0.3333333333333333 [-]
	 SCS Opposite-Spin Scale   =       1.2000000000000000 [-]
	 SCS Same-Spin Energy      =      -0.2297629213571907 [Eh]
	 SCS Opposite-Spin Energy  =      -2.6558749816296694 [Eh]
	 SCS Correlation Energy    =      -2.8856379029868600 [Eh]
	 SCS Total Energy          =    -634.6089130445382125 [Eh]
	-----------------------------------------------------------

  Dipole Moment: [D]
     X:     1.4528      Y:    -2.5376      Z:     2.2799     Total:     3.7078

*** Psi4 exiting successfully. Buy a developer a beer!
