                               Psi4 1.4a3.dev225

  ==> Input File <==

--------------------------------------------------------------------------
#psi4
#
memory 32 gb

molecule  {
0 1
  O        0.0109280     1.9504830    -1.2088660
  N        1.2104930     0.4628600     0.0596820
  C        3.6816010    -0.9509880     0.4072830
  C        3.5342200     0.1692850    -0.6230390
  C        2.2454049    -1.6616640     0.7019657
  C        2.4642000     1.1676880    -0.1911000
  C        1.2914730    -0.5760260     1.0805660
  C        0.0527250     0.9288280    -0.5097470
  C       -1.1808260     0.1020470    -0.2945890
  C       -2.2823960     0.6556420     0.3835130
  C       -1.2622800    -1.1716740    -0.8705440
  C       -3.4454200    -0.1153760     0.4879690
  C       -2.2065840     2.0368470     0.9809810
  C       -2.4366510    -1.9182050    -0.7675160
  C       -3.5304630    -1.3875060    -0.0828830
  H        4.4130950    -1.6928310     0.0671840
  H        4.0710030    -0.5292960     1.3442740
  H        4.4878230     0.6919580    -0.7653020
  H        3.2457620    -0.2529490    -1.5933530
  H        1.9831950    -2.1398170    -0.2152240
  H        2.4267450    -2.3652010     1.4815110
  H        2.7768740     1.6847790     0.7291870
  H        2.2671880     1.9220510    -0.9540200
  H        0.3069530    -1.0243470     1.2170770
  H        1.5834140    -0.1085280     2.0346680
  H       -0.4031770    -1.5700500    -1.4080150
  H       -4.3043690     0.2928860     1.0181070
  H       -2.0253310     2.7815300     0.2022010
  H       -3.1368610     2.2826280     1.5002420
  H       -1.3844770     2.1136550     1.7007310
  H       -2.4977120    -2.9041740    -1.2220500
  H       -4.4499260    -1.9612690     0.0072960
units angstrom
no_reorient  #important for SAPT in psi4, default
symmetry c1  #important for SAPT in psi4, default
}

set PROPERTIES_ORIGIN ["COM"]
properties('MP2/aug-cc-pvtz', properties = ['dipole'])
--------------------------------------------------------------------------

    Molecular point group: c1
  Charge       = 0
  Multiplicity = 1
  Basis Set: AUG-CC-PVTZ
    Blend: AUG-CC-PVTZ
  Basis Set: (AUG-CC-PVTZ AUX)
    Blend: AUG-CC-PVTZ-JKFIT

    Orbital Energies [Eh]
    ---------------------

    Doubly Occupied:

       1A    -20.511234     2A    -15.584666     3A    -11.350002
       4A    -11.265951     5A    -11.254245     6A    -11.251747
       7A    -11.246330     8A    -11.245044     9A    -11.242561
      10A    -11.239115    11A    -11.236933    12A    -11.231155
      13A    -11.228732    14A    -11.225253    15A    -11.220317
      16A     -1.367380    17A     -1.249739    18A     -1.161341
      19A     -1.075133    20A     -1.050575    21A     -1.039429
      22A     -1.024743    23A     -0.942592    24A     -0.916446
      25A     -0.865332    26A     -0.846180    27A     -0.816170
      28A     -0.791982    29A     -0.742793    30A     -0.712369
      31A     -0.666326    32A     -0.653724    33A     -0.649754
      34A     -0.628507    35A     -0.623254    36A     -0.614796
      37A     -0.597697    38A     -0.581872    39A     -0.575139
      40A     -0.571942    41A     -0.559416    42A     -0.549684
      43A     -0.541070    44A     -0.525324    45A     -0.515294
      46A     -0.505374    47A     -0.492006    48A     -0.489786
      49A     -0.480118    50A     -0.470585    51A     -0.440480
      52A     -0.416786    53A     -0.368684    54A     -0.339763
      55A     -0.329868

  @DF-RHF Final Energy:  -631.72293230791706

   => Energetics <=

    Nuclear Repulsion Energy =            999.5758844926807569
    One-Electron Energy =               -2842.3521528644173486
    Two-Electron Energy =                1211.0533360638194154
    Total Energy =                       -631.7229323079170626
  Basis Set: (AUG-CC-PVTZ AUX)
    Blend: AUG-CC-PVTZ-RI
    Molecular point group: c1

    Geometry (in Angstrom), charge = 0, multiplicity = 1:

       Center              X                  Y                   Z               Mass
    ------------   -----------------  -----------------  -----------------  -----------------
         O            0.061836498121     1.939527866803    -1.184837711529    15.994914619570
         N            1.261401498121     0.451904866803     0.083710288471    14.003074004430
         C            3.732509498121    -0.961943133197     0.431311288471    12.000000000000
         C            3.585128498121     0.158329866803    -0.599010711529    12.000000000000
         C            2.296313398121    -1.672619133197     0.725993988471    12.000000000000
         C            2.515108498121     1.156732866803    -0.167071711529    12.000000000000
         C            1.342381498121    -0.586981133197     1.104594288471    12.000000000000
         C            0.103633498121     0.917872866803    -0.485718711529    12.000000000000
         C           -1.129917501879     0.091091866803    -0.270560711529    12.000000000000
         C           -2.231487501879     0.644686866803     0.407541288471    12.000000000000
         C           -1.211371501879    -1.182629133197    -0.846515711529    12.000000000000
         C           -3.394511501879    -0.126331133197     0.511997288471    12.000000000000
         C           -2.155675501879     2.025891866803     1.005009288471    12.000000000000
         C           -2.385742501879    -1.929160133197    -0.743487711529    12.000000000000
         C           -3.479554501879    -1.398461133197    -0.058854711529    12.000000000000
         H            4.464003498121    -1.703786133197     0.091212288471     1.007825032230
         H            4.121911498121    -0.540251133197     1.368302288471     1.007825032230
         H            4.538731498121     0.681002866803    -0.741273711529     1.007825032230
         H            3.296670498121    -0.263904133197    -1.569324711529     1.007825032230
         H            2.034103498121    -2.150772133197    -0.191195711529     1.007825032230
         H            2.477653498121    -2.376156133197     1.505539288471     1.007825032230
         H            2.827782498121     1.673823866803     0.753215288471     1.007825032230
         H            2.318096498121     1.911095866803    -0.929991711529     1.007825032230
         H            0.357861498121    -1.035302133197     1.241105288471     1.007825032230
         H            1.634322498121    -0.119483133197     2.058696288471     1.007825032230
         H           -0.352268501879    -1.581005133197    -1.383986711529     1.007825032230
         H           -4.253460501879     0.281930866803     1.042135288471     1.007825032230
         H           -1.974422501879     2.770574866803     0.226229288471     1.007825032230
         H           -3.085952501879     2.271672866803     1.524270288471     1.007825032230
         H           -1.333568501879     2.102699866803     1.724759288471     1.007825032230
         H           -2.446803501879    -2.915129133197    -1.198021711529     1.007825032230
         H           -4.399017501879    -1.972224133197     0.031324288471     1.007825032230

  Basis Set: AUG-CC-PVTZ
    Blend: AUG-CC-PVTZ
  Basis Set: (AUG-CC-PVTZ AUX)
    Blend: AUG-CC-PVTZ-JKFIT
	 Reference Energy          =    -631.7229323079170626 [Eh]
	 Singles Energy            =      -0.0000000000000000 [Eh]
	 Same-Spin Energy          =      -0.6889503058193547 [Eh]
	 Opposite-Spin Energy      =      -2.2125916283167006 [Eh]
	 Correlation Energy        =      -2.9015419341360555 [Eh]
	 Total Energy              =    -634.6244742420531111 [Eh]

	 ================> DF-SCS-MP2 Energies <==================
	-----------------------------------------------------------
	 SCS Same-Spin Scale       =       0.3333333333333333 [-]
	 SCS Opposite-Spin Scale   =       1.2000000000000000 [-]
	 SCS Same-Spin Energy      =      -0.2296501019397849 [Eh]
	 SCS Opposite-Spin Energy  =      -2.6551099539800407 [Eh]
	 SCS Correlation Energy    =      -2.8847600559198256 [Eh]
	 SCS Total Energy          =    -634.6076923638369180 [Eh]
	-----------------------------------------------------------

  Dipole Moment: [D]
     X:     1.3834      Y:    -2.5311      Z:     2.3069     Total:     3.6935

*** Psi4 exiting successfully. Buy a developer a beer!
