                               Psi4 1.4a3.dev225

  ==> Input File <==

--------------------------------------------------------------------------
#psi4
#
memory 32 gb

molecule  {
0 1
  O        0.0109280     1.9504830    -1.2088660
  N        1.2104930     0.4628600     0.0596820
  C        3.6816010    -0.9509880     0.4072830
  C        3.5342200     0.1692850    -0.6230390
  C        2.3335540    -1.6180450     0.6838790
  C        2.4642000     1.1676880    -0.1911000
  C        1.2914730    -0.5760260     1.0805660
  C        0.0527250     0.9288280    -0.5097470
  C       -1.1808260     0.1020470    -0.2945890
  C       -2.2823960     0.6556420     0.3835130
  C       -1.2622800    -1.1716740    -0.8705440
  C       -3.4454200    -0.1153760     0.4879690
  C       -2.2065840     2.0368470     0.9809810
  C       -2.4366510    -1.9182050    -0.7675160
  C       -3.5304630    -1.3875060    -0.0828830
  H        4.4130950    -1.6928310     0.0671840
  H        4.0710030    -0.5292960     1.3442740
  H        4.4878230     0.6919580    -0.7653020
  H        3.2457620    -0.2529490    -1.5933530
  H        1.9831950    -2.1398170    -0.2152240
  H        2.4267450    -2.3652010     1.4815110
  H        2.7768740     1.6847790     0.7291870
  H        2.2671880     1.9220510    -0.9540200
  H        0.3069530    -1.0243470     1.2170770
  H        1.5887131    -0.1000424     2.0519860
  H       -0.4031770    -1.5700500    -1.4080150
  H       -4.3043690     0.2928860     1.0181070
  H       -2.0253310     2.7815300     0.2022010
  H       -3.1368610     2.2826280     1.5002420
  H       -1.3844770     2.1136550     1.7007310
  H       -2.4977120    -2.9041740    -1.2220500
  H       -4.4499260    -1.9612690     0.0072960
units angstrom
no_reorient  #important for SAPT in psi4, default
symmetry c1  #important for SAPT in psi4, default
}

set PROPERTIES_ORIGIN ["COM"]
properties('MP2/aug-cc-pvtz', properties = ['dipole'])
--------------------------------------------------------------------------

    Molecular point group: c1
  Charge       = 0
  Multiplicity = 1
  Basis Set: AUG-CC-PVTZ
    Blend: AUG-CC-PVTZ
  Basis Set: (AUG-CC-PVTZ AUX)
    Blend: AUG-CC-PVTZ-JKFIT

    Orbital Energies [Eh]
    ---------------------

    Doubly Occupied:

       1A    -20.510987     2A    -15.584199     3A    -11.349637
       4A    -11.269500     5A    -11.254657     6A    -11.251922
       7A    -11.246436     8A    -11.245108     9A    -11.242719
      10A    -11.239209    11A    -11.237038    12A    -11.230858
      13A    -11.228329    14A    -11.225709    15A    -11.220366
      16A     -1.367169    17A     -1.249631    18A     -1.161506
      19A     -1.083634    20A     -1.050860    21A     -1.037161
      22A     -1.022942    23A     -0.943114    24A     -0.918458
      25A     -0.867004    26A     -0.844183    27A     -0.815341
      28A     -0.790955    29A     -0.742137    30A     -0.712266
      31A     -0.666806    32A     -0.652632    33A     -0.647826
      34A     -0.627877    35A     -0.619994    36A     -0.615279
      37A     -0.596284    38A     -0.587637    39A     -0.575721
      40A     -0.571809    41A     -0.560393    42A     -0.547560
      43A     -0.541602    44A     -0.524508    45A     -0.507989
      46A     -0.501310    47A     -0.491483    48A     -0.489384
      49A     -0.478595    50A     -0.469581    51A     -0.461617
      52A     -0.417056    53A     -0.366195    54A     -0.340078
      55A     -0.330068

  @DF-RHF Final Energy:  -631.73012629935101

   => Energetics <=

    Nuclear Repulsion Energy =            999.8591236456753677
    One-Electron Energy =               -2842.9138668152686478
    Two-Electron Energy =                1211.3246168702421528
    Total Energy =                       -631.7301262993510136
  Basis Set: (AUG-CC-PVTZ AUX)
    Blend: AUG-CC-PVTZ-RI
    Molecular point group: c1

    Geometry (in Angstrom), charge = 0, multiplicity = 1:

       Center              X                  Y                   Z               Mass
    ------------   -----------------  -----------------  -----------------  -----------------
         O            0.056602783467     1.936908965882    -1.183855159028    15.994914619570
         N            1.256167783467     0.449285965882     0.084692840972    14.003074004430
         C            3.727275783467    -0.964562034118     0.432293840972    12.000000000000
         C            3.579894783467     0.155710965882    -0.598028159028    12.000000000000
         C            2.379228783467    -1.631619034118     0.708889840972    12.000000000000
         C            2.509874783467     1.154113965882    -0.166089159028    12.000000000000
         C            1.337147783467    -0.589600034118     1.105576840972    12.000000000000
         C            0.098399783467     0.915253965882    -0.484736159028    12.000000000000
         C           -1.135151216533     0.088472965882    -0.269578159028    12.000000000000
         C           -2.236721216533     0.642067965882     0.408523840972    12.000000000000
         C           -1.216605216533    -1.185248034118    -0.845533159028    12.000000000000
         C           -3.399745216533    -0.128950034118     0.512979840972    12.000000000000
         C           -2.160909216533     2.023272965882     1.005991840972    12.000000000000
         C           -2.390976216533    -1.931779034118    -0.742505159028    12.000000000000
         C           -3.484788216533    -1.401080034118    -0.057872159028    12.000000000000
         H            4.458769783467    -1.706405034118     0.092194840972     1.007825032230
         H            4.116677783467    -0.542870034118     1.369284840972     1.007825032230
         H            4.533497783467     0.678383965882    -0.740291159028     1.007825032230
         H            3.291436783467    -0.266523034118    -1.568342159028     1.007825032230
         H            2.028869783467    -2.153391034118    -0.190213159028     1.007825032230
         H            2.472419783467    -2.378775034118     1.506521840972     1.007825032230
         H            2.822548783467     1.671204965882     0.754197840972     1.007825032230
         H            2.312862783467     1.908476965882    -0.929009159028     1.007825032230
         H            0.352627783467    -1.037921034118     1.242087840972     1.007825032230
         H            1.634387883467    -0.113616434118     2.076996840972     1.007825032230
         H           -0.357502216533    -1.583624034118    -1.383004159028     1.007825032230
         H           -4.258694216533     0.279311965882     1.043117840972     1.007825032230
         H           -1.979656216533     2.767955965882     0.227211840972     1.007825032230
         H           -3.091186216533     2.269053965882     1.525252840972     1.007825032230
         H           -1.338802216533     2.100080965882     1.725741840972     1.007825032230
         H           -2.452037216533    -2.917748034118    -1.197039159028     1.007825032230
         H           -4.404251216533    -1.974843034118     0.032306840972     1.007825032230

  Basis Set: AUG-CC-PVTZ
    Blend: AUG-CC-PVTZ
  Basis Set: (AUG-CC-PVTZ AUX)
    Blend: AUG-CC-PVTZ-JKFIT
	 Reference Energy          =    -631.7301262993510136 [Eh]
	 Singles Energy            =      -0.0000000000000000 [Eh]
	 Same-Spin Energy          =      -0.6890491792812341 [Eh]
	 Opposite-Spin Energy      =      -2.2124182186688803 [Eh]
	 Correlation Energy        =      -2.9014673979501144 [Eh]
	 Total Energy              =    -634.6315936973011276 [Eh]

	 ================> DF-SCS-MP2 Energies <==================
	-----------------------------------------------------------
	 SCS Same-Spin Scale       =       0.3333333333333333 [-]
	 SCS Opposite-Spin Scale   =       1.2000000000000000 [-]
	 SCS Same-Spin Energy      =      -0.2296830597604114 [Eh]
	 SCS Opposite-Spin Energy  =      -2.6549018624026561 [Eh]
	 SCS Correlation Energy    =      -2.8845849221630675 [Eh]
	 SCS Total Energy          =    -634.6147112215140851 [Eh]
	-----------------------------------------------------------

  Dipole Moment: [D]
     X:     1.3963      Y:    -2.5204      Z:     2.2862     Total:     3.6781

*** Psi4 exiting successfully. Buy a developer a beer!
