                               Psi4 1.4a3.dev225

  ==> Input File <==

--------------------------------------------------------------------------
#psi4
#
memory 32 gb

molecule  {
0 1
  O        0.0109280     1.9504830    -1.2088660
  N        1.2104930     0.4628600     0.0596820
  C        3.6816010    -0.9509880     0.4072830
  C        3.5342200     0.1692850    -0.6230390
  C        2.3335540    -1.6180450     0.6838790
  C        2.4642000     1.1676880    -0.1911000
  C        1.2914730    -0.5760260     1.0805660
  C        0.0527250     0.9288280    -0.5097470
  C       -1.1808260     0.1020470    -0.2945890
  C       -2.4281038     0.6468107     0.4432349
  C       -1.2622800    -1.1716740    -0.8705440
  C       -3.4454200    -0.1153760     0.4879690
  C       -2.2065840     2.0368470     0.9809810
  C       -2.4366510    -1.9182050    -0.7675160
  C       -3.5304630    -1.3875060    -0.0828830
  H        4.4130950    -1.6928310     0.0671840
  H        4.0710030    -0.5292960     1.3442740
  H        4.4878230     0.6919580    -0.7653020
  H        3.2457620    -0.2529490    -1.5933530
  H        1.9831950    -2.1398170    -0.2152240
  H        2.4267450    -2.3652010     1.4815110
  H        2.7768740     1.6847790     0.7291870
  H        2.2671880     1.9220510    -0.9540200
  H        0.3069530    -1.0243470     1.2170770
  H        1.5834140    -0.1085280     2.0346680
  H       -0.4031770    -1.5700500    -1.4080150
  H       -4.3043690     0.2928860     1.0181070
  H       -2.0253310     2.7815300     0.2022010
  H       -3.1368610     2.2826280     1.5002420
  H       -1.3844770     2.1136550     1.7007310
  H       -2.4977120    -2.9041740    -1.2220500
  H       -4.4499260    -1.9612690     0.0072960
units angstrom
no_reorient  #important for SAPT in psi4, default
symmetry c1  #important for SAPT in psi4, default
}

set PROPERTIES_ORIGIN ["COM"]
properties('MP2/aug-cc-pvtz', properties = ['dipole'])
--------------------------------------------------------------------------

    Molecular point group: c1
  Charge       = 0
  Multiplicity = 1
  Basis Set: AUG-CC-PVTZ
    Blend: AUG-CC-PVTZ
  Basis Set: (AUG-CC-PVTZ AUX)
    Blend: AUG-CC-PVTZ-JKFIT

    Orbital Energies [Eh]
    ---------------------

    Doubly Occupied:

       1A    -20.510827     2A    -15.584286     3A    -11.351283
       4A    -11.266460     5A    -11.255778     6A    -11.254855
       7A    -11.249077     8A    -11.244835     9A    -11.243447
      10A    -11.240033    11A    -11.230509    12A    -11.228281
      13A    -11.225729    14A    -11.221528    15A    -11.221363
      16A     -1.366865    17A     -1.249650    18A     -1.162911
      19A     -1.083946    20A     -1.056980    21A     -1.036903
      22A     -1.021162    23A     -0.946467    24A     -0.919742
      25A     -0.870259    26A     -0.848947    27A     -0.799522
      28A     -0.794306    29A     -0.743359    30A     -0.712812
      31A     -0.667694    32A     -0.649675    33A     -0.647850
      34A     -0.627698    35A     -0.619749    36A     -0.614352
      37A     -0.597418    38A     -0.588178    39A     -0.582452
      40A     -0.572878    41A     -0.558638    42A     -0.547396
      43A     -0.541446    44A     -0.524825    45A     -0.521816
      46A     -0.502368    47A     -0.492383    48A     -0.479890
      49A     -0.469617    50A     -0.461655    51A     -0.457097
      52A     -0.418202    53A     -0.366374    54A     -0.358622
      55A     -0.318299

  @DF-RHF Final Energy:  -631.70048360501949

   => Energetics <=

    Nuclear Repulsion Energy =            998.3958024348603431
    One-Electron Energy =               -2839.9351823906768004
    Two-Electron Energy =                1209.8388963507968583
    Total Energy =                       -631.7004836050195991
  Basis Set: (AUG-CC-PVTZ AUX)
    Blend: AUG-CC-PVTZ-RI
    Molecular point group: c1

    Geometry (in Angstrom), charge = 0, multiplicity = 1:

       Center              X                  Y                   Z               Mass
    ------------   -----------------  -----------------  -----------------  -----------------
         O            0.065236788337     1.937472777374    -1.187297318212    15.994914619570
         N            1.264801788337     0.449849777374     0.081250681788    14.003074004430
         C            3.735909788337    -0.963998222626     0.428851681788    12.000000000000
         C            3.588528788337     0.156274777374    -0.601470318212    12.000000000000
         C            2.387862788337    -1.631055222626     0.705447681788    12.000000000000
         C            2.518508788337     1.154677777374    -0.169531318212    12.000000000000
         C            1.345781788337    -0.589036222626     1.102134681788    12.000000000000
         C            0.107033788337     0.915817777374    -0.488178318212    12.000000000000
         C           -1.126517211663     0.089036777374    -0.273020318212    12.000000000000
         C           -2.373795011663     0.633800477374     0.464803581788    12.000000000000
         C           -1.207971211663    -1.184684222626    -0.848975318212    12.000000000000
         C           -3.391111211663    -0.128386222626     0.509537681788    12.000000000000
         C           -2.152275211663     2.023836777374     1.002549681788    12.000000000000
         C           -2.382342211663    -1.931215222626    -0.745947318212    12.000000000000
         C           -3.476154211663    -1.400516222626    -0.061314318212    12.000000000000
         H            4.467403788337    -1.705841222626     0.088752681788     1.007825032230
         H            4.125311788337    -0.542306222626     1.365842681788     1.007825032230
         H            4.542131788337     0.678947777374    -0.743733318212     1.007825032230
         H            3.300070788337    -0.265959222626    -1.571784318212     1.007825032230
         H            2.037503788337    -2.152827222626    -0.193655318212     1.007825032230
         H            2.481053788337    -2.378211222626     1.503079681788     1.007825032230
         H            2.831182788337     1.671768777374     0.750755681788     1.007825032230
         H            2.321496788337     1.909040777374    -0.932451318212     1.007825032230
         H            0.361261788337    -1.037357222626     1.238645681788     1.007825032230
         H            1.637722788337    -0.121538222626     2.056236681788     1.007825032230
         H           -0.348868211663    -1.583060222626    -1.386446318212     1.007825032230
         H           -4.250060211663     0.279875777374     1.039675681788     1.007825032230
         H           -1.971022211663     2.768519777374     0.223769681788     1.007825032230
         H           -3.082552211663     2.269617777374     1.521810681788     1.007825032230
         H           -1.330168211663     2.100644777374     1.722299681788     1.007825032230
         H           -2.443403211663    -2.917184222626    -1.200481318212     1.007825032230
         H           -4.395617211663    -1.974279222626     0.028864681788     1.007825032230

  Basis Set: AUG-CC-PVTZ
    Blend: AUG-CC-PVTZ
  Basis Set: (AUG-CC-PVTZ AUX)
    Blend: AUG-CC-PVTZ-JKFIT
	 Reference Energy          =    -631.7004836050194854 [Eh]
	 Singles Energy            =      -0.0000000000000000 [Eh]
	 Same-Spin Energy          =      -0.6884634448632634 [Eh]
	 Opposite-Spin Energy      =      -2.2135386244560951 [Eh]
	 Correlation Energy        =      -2.9020020693193587 [Eh]
	 Total Energy              =    -634.6024856743388227 [Eh]

	 ================> DF-SCS-MP2 Energies <==================
	-----------------------------------------------------------
	 SCS Same-Spin Scale       =       0.3333333333333333 [-]
	 SCS Opposite-Spin Scale   =       1.2000000000000000 [-]
	 SCS Same-Spin Energy      =      -0.2294878149544211 [Eh]
	 SCS Opposite-Spin Energy  =      -2.6562463493473141 [Eh]
	 SCS Correlation Energy    =      -2.8857341643017351 [Eh]
	 SCS Total Energy          =    -634.5862177693212516 [Eh]
	-----------------------------------------------------------

  Dipole Moment: [D]
     X:     1.4483      Y:    -2.5210      Z:     2.2873     Total:     3.6993

*** Psi4 exiting successfully. Buy a developer a beer!
