                               Psi4 1.4a3.dev225

  ==> Input File <==

--------------------------------------------------------------------------
#psi4
#
memory 32 gb

molecule  {
0 1
  O        0.0109280     1.9504830    -1.2088660
  N        1.2104930     0.4628600     0.0596820
  C        3.6816010    -0.9509880     0.4072830
  C        3.5342200     0.1692850    -0.6230390
  C        2.3335540    -1.6180450     0.6838790
  C        2.4642000     1.1676880    -0.1911000
  C        1.2914730    -0.5760260     1.0805660
  C        0.0527250     0.9288280    -0.5097470
  C       -1.1808260     0.1020470    -0.2945890
  C       -2.2823960     0.6556420     0.3835130
  C       -1.2622800    -1.1716740    -0.8705440
  C       -3.4454200    -0.1153760     0.4879690
  C       -2.2065840     2.0368470     0.9809810
  C       -2.4366510    -1.9182050    -0.7675160
  C       -3.5304630    -1.3875060    -0.0828830
  H        4.4130950    -1.6928310     0.0671840
  H        4.0710030    -0.5292960     1.3442740
  H        4.4878230     0.6919580    -0.7653020
  H        3.2457620    -0.2529490    -1.5933530
  H        1.9831950    -2.1398170    -0.2152240
  H        2.4267450    -2.3652010     1.4815110
  H        2.7768740     1.6847790     0.7291870
  H        2.2671880     1.9220510    -0.9540200
  H        0.3069530    -1.0243470     1.2170770
  H        1.5834140    -0.1085280     2.0346680
  H       -0.4031770    -1.5700500    -1.4080150
  H       -4.3043690     0.2928860     1.0181070
  H       -2.0253310     2.7815300     0.2022010
  H       -3.1368610     2.2826280     1.5002420
  H       -1.2343689     2.1276793     1.8321498
  H       -2.4977120    -2.9041740    -1.2220500
  H       -4.4499260    -1.9612690     0.0072960
units angstrom
no_reorient  #important for SAPT in psi4, default
symmetry c1  #important for SAPT in psi4, default
}

set PROPERTIES_ORIGIN ["COM"]
properties('MP2/aug-cc-pvtz', properties = ['dipole'])
--------------------------------------------------------------------------

    Molecular point group: c1
  Charge       = 0
  Multiplicity = 1
  Basis Set: AUG-CC-PVTZ
    Blend: AUG-CC-PVTZ
  Basis Set: (AUG-CC-PVTZ AUX)
    Blend: AUG-CC-PVTZ-JKFIT

    Orbital Energies [Eh]
    ---------------------

    Doubly Occupied:

       1A    -20.510656     2A    -15.583647     3A    -11.349556
       4A    -11.266834     5A    -11.254357     6A    -11.253794
       7A    -11.247211     8A    -11.246014     9A    -11.243634
      10A    -11.243308    11A    -11.240321    12A    -11.238739
      13A    -11.230485    14A    -11.228158    15A    -11.225492
      16A     -1.366848    17A     -1.249346    18A     -1.162338
      19A     -1.083479    20A     -1.049521    21A     -1.037489
      22A     -1.023586    23A     -0.937809    24A     -0.915409
      25A     -0.867131    26A     -0.844454    27A     -0.814522
      28A     -0.790086    29A     -0.742500    30A     -0.712116
      31A     -0.666809    32A     -0.653550    33A     -0.648002
      34A     -0.627725    35A     -0.620875    36A     -0.614958
      37A     -0.596491    38A     -0.587668    39A     -0.576020
      40A     -0.560829    41A     -0.559327    42A     -0.545695
      43A     -0.537658    44A     -0.521843    45A     -0.504765
      46A     -0.499014    47A     -0.491088    48A     -0.484719
      49A     -0.478605    50A     -0.469315    51A     -0.461366
      52A     -0.417081    53A     -0.365987    54A     -0.340865
      55A     -0.329708

  @DF-RHF Final Energy:  -631.71089130316307

   => Energetics <=

    Nuclear Repulsion Energy =            999.2659849965358489
    One-Electron Energy =               -2841.7161437452837163
    Two-Electron Energy =                1210.7392674455848010
    Total Energy =                       -631.7108913031631801
  Basis Set: (AUG-CC-PVTZ AUX)
    Blend: AUG-CC-PVTZ-RI
    Molecular point group: c1

    Geometry (in Angstrom), charge = 0, multiplicity = 1:

       Center              X                  Y                   Z               Mass
    ------------   -----------------  -----------------  -----------------  -----------------
         O            0.055884320382     1.936881485881    -1.184421264814    15.994914619570
         N            1.255449320382     0.449258485881     0.084126735186    14.003074004430
         C            3.726557320382    -0.964589514119     0.431727735186    12.000000000000
         C            3.579176320382     0.155683485881    -0.598594264814    12.000000000000
         C            2.378510320382    -1.631646514119     0.708323735186    12.000000000000
         C            2.509156320382     1.154086485881    -0.166655264814    12.000000000000
         C            1.336429320382    -0.589627514119     1.105010735186    12.000000000000
         C            0.097681320382     0.915226485881    -0.485302264814    12.000000000000
         C           -1.135869679618     0.088445485881    -0.270144264814    12.000000000000
         C           -2.237439679618     0.642040485881     0.407957735186    12.000000000000
         C           -1.217323679618    -1.185275514119    -0.846099264814    12.000000000000
         C           -3.400463679618    -0.128977514119     0.512413735186    12.000000000000
         C           -2.161627679618     2.023245485881     1.005425735186    12.000000000000
         C           -2.391694679618    -1.931806514119    -0.743071264814    12.000000000000
         C           -3.485506679618    -1.401107514119    -0.058438264814    12.000000000000
         H            4.458051320382    -1.706432514119     0.091628735186     1.007825032230
         H            4.115959320382    -0.542897514119     1.368718735186     1.007825032230
         H            4.532779320382     0.678356485881    -0.740857264814     1.007825032230
         H            3.290718320382    -0.266550514119    -1.568908264814     1.007825032230
         H            2.028151320382    -2.153418514119    -0.190779264814     1.007825032230
         H            2.471701320382    -2.378802514119     1.505955735186     1.007825032230
         H            2.821830320382     1.671177485881     0.753631735186     1.007825032230
         H            2.312144320382     1.908449485881    -0.929575264814     1.007825032230
         H            0.351909320382    -1.037948514119     1.241521735186     1.007825032230
         H            1.628370320382    -0.122129514119     2.059112735186     1.007825032230
         H           -0.358220679618    -1.583651514119    -1.383570264814     1.007825032230
         H           -4.259412679618     0.279284485881     1.042551735186     1.007825032230
         H           -1.980374679618     2.767928485881     0.226645735186     1.007825032230
         H           -3.091904679618     2.269026485881     1.524686735186     1.007825032230
         H           -1.189412579618     2.114077785881     1.856594535186     1.007825032230
         H           -2.452755679618    -2.917775514119    -1.197605264814     1.007825032230
         H           -4.404969679618    -1.974870514119     0.031740735186     1.007825032230

  Basis Set: AUG-CC-PVTZ
    Blend: AUG-CC-PVTZ
  Basis Set: (AUG-CC-PVTZ AUX)
    Blend: AUG-CC-PVTZ-JKFIT
	 Reference Energy          =    -631.7108913031630664 [Eh]
	 Singles Energy            =      -0.0000000000000000 [Eh]
	 Same-Spin Energy          =      -0.6890827881239887 [Eh]
	 Opposite-Spin Energy      =      -2.2138508837435182 [Eh]
	 Correlation Energy        =      -2.9029336718675069 [Eh]
	 Total Energy              =    -634.6138249750305249 [Eh]

	 ================> DF-SCS-MP2 Energies <==================
	-----------------------------------------------------------
	 SCS Same-Spin Scale       =       0.3333333333333333 [-]
	 SCS Opposite-Spin Scale   =       1.2000000000000000 [-]
	 SCS Same-Spin Energy      =      -0.2296942627079962 [Eh]
	 SCS Opposite-Spin Energy  =      -2.6566210604922218 [Eh]
	 SCS Correlation Energy    =      -2.8863153232002179 [Eh]
	 SCS Total Energy          =    -634.5972066263632314 [Eh]
	-----------------------------------------------------------

  Dipole Moment: [D]
     X:     1.3213      Y:    -2.5846      Z:     2.2066     Total:     3.6462

*** Psi4 exiting successfully. Buy a developer a beer!
