                               Psi4 1.4a3.dev225

  ==> Input File <==

--------------------------------------------------------------------------
#psi4
#
memory 32 gb

molecule  {
0 1
  O        0.0109280     1.9504830    -1.2088660
  N        1.2104930     0.4628600     0.0596820
  C        3.6816010    -0.9509880     0.4072830
  C        3.5342200     0.1692850    -0.6230390
  C        2.3235163    -1.5943244     0.6908768
  C        2.4642000     1.1676880    -0.1911000
  C        1.2914730    -0.5760260     1.0805660
  C        0.0527250     0.9288280    -0.5097470
  C       -1.1808260     0.1020470    -0.2945890
  C       -2.2823960     0.6556420     0.3835130
  C       -1.2622800    -1.1716740    -0.8705440
  C       -3.4454200    -0.1153760     0.4879690
  C       -2.2065840     2.0368470     0.9809810
  C       -2.4366510    -1.9182050    -0.7675160
  C       -3.5304630    -1.3875060    -0.0828830
  H        4.4130950    -1.6928310     0.0671840
  H        4.0710030    -0.5292960     1.3442740
  H        4.4878230     0.6919580    -0.7653020
  H        3.2457620    -0.2529490    -1.5933530
  H        1.9831950    -2.1398170    -0.2152240
  H        2.4267450    -2.3652010     1.4815110
  H        2.7768740     1.6847790     0.7291870
  H        2.2671880     1.9220510    -0.9540200
  H        0.3069530    -1.0243470     1.2170770
  H        1.5834140    -0.1085280     2.0346680
  H       -0.4031770    -1.5700500    -1.4080150
  H       -4.3043690     0.2928860     1.0181070
  H       -2.0253310     2.7815300     0.2022010
  H       -3.1368610     2.2826280     1.5002420
  H       -1.3844770     2.1136550     1.7007310
  H       -2.4977120    -2.9041740    -1.2220500
  H       -4.4499260    -1.9612690     0.0072960
units angstrom
no_reorient  #important for SAPT in psi4, default
symmetry c1  #important for SAPT in psi4, default
}

set PROPERTIES_ORIGIN ["COM"]
properties('MP2/aug-cc-pvtz', properties = ['dipole'])
--------------------------------------------------------------------------

    Molecular point group: c1
  Charge       = 0
  Multiplicity = 1
  Basis Set: AUG-CC-PVTZ
    Blend: AUG-CC-PVTZ
  Basis Set: (AUG-CC-PVTZ AUX)
    Blend: AUG-CC-PVTZ-JKFIT

    Orbital Energies [Eh]
    ---------------------

    Doubly Occupied:

       1A    -20.510862     2A    -15.583848     3A    -11.349545
       4A    -11.266443     5A    -11.254739     6A    -11.251914
       7A    -11.246367     8A    -11.245053     9A    -11.242696
      10A    -11.239162    11A    -11.237018    12A    -11.231614
      13A    -11.228527    14A    -11.225496    15A    -11.220396
      16A     -1.367107    17A     -1.250477    18A     -1.161496
      19A     -1.084499    20A     -1.050892    21A     -1.038598
      22A     -1.024292    23A     -0.943439    24A     -0.919550
      25A     -0.866453    26A     -0.843765    27A     -0.815203
      28A     -0.790657    29A     -0.742977    30A     -0.712861
      31A     -0.667186    32A     -0.653134    33A     -0.648930
      34A     -0.627778    35A     -0.620372    36A     -0.615415
      37A     -0.595980    38A     -0.587944    39A     -0.575687
      40A     -0.571643    41A     -0.560629    42A     -0.549822
      43A     -0.541916    44A     -0.525192    45A     -0.508642
      46A     -0.500151    47A     -0.491256    48A     -0.489555
      49A     -0.479350    50A     -0.468751    51A     -0.459248
      52A     -0.417047    53A     -0.367198    54A     -0.340068
      55A     -0.330055

  @DF-RHF Final Energy:  -631.72970556769633

   => Energetics <=

    Nuclear Repulsion Energy =           1000.4419838278950010
    One-Electron Energy =               -2844.0655850260236548
    Two-Electron Energy =                1211.8938956304323256
    Total Energy =                       -631.7297055676963282
  Basis Set: (AUG-CC-PVTZ AUX)
    Blend: AUG-CC-PVTZ-RI
    Molecular point group: c1

    Geometry (in Angstrom), charge = 0, multiplicity = 1:

       Center              X                  Y                   Z               Mass
    ------------   -----------------  -----------------  -----------------  -----------------
         O            0.057222053578     1.935549768218    -1.184182632833    15.994914619570
         N            1.256787053578     0.447926768218     0.084365367167    14.003074004430
         C            3.727895053578    -0.965921231782     0.431966367167    12.000000000000
         C            3.580514053578     0.154351768218    -0.598355632833    12.000000000000
         C            2.369810353578    -1.609257631782     0.715560167167    12.000000000000
         C            2.510494053578     1.152754768218    -0.166416632833    12.000000000000
         C            1.337767053578    -0.590959231782     1.105249367167    12.000000000000
         C            0.099019053578     0.913894768218    -0.485063632833    12.000000000000
         C           -1.134531946422     0.087113768218    -0.269905632833    12.000000000000
         C           -2.236101946422     0.640708768218     0.408196367167    12.000000000000
         C           -1.215985946422    -1.186607231782    -0.845860632833    12.000000000000
         C           -3.399125946422    -0.130309231782     0.512652367167    12.000000000000
         C           -2.160289946422     2.021913768218     1.005664367167    12.000000000000
         C           -2.390356946422    -1.933138231782    -0.742832632833    12.000000000000
         C           -3.484168946422    -1.402439231782    -0.058199632833    12.000000000000
         H            4.459389053578    -1.707764231782     0.091867367167     1.007825032230
         H            4.117297053578    -0.544229231782     1.368957367167     1.007825032230
         H            4.534117053578     0.677024768218    -0.740618632833     1.007825032230
         H            3.292056053578    -0.267882231782    -1.568669632833     1.007825032230
         H            2.029489053578    -2.154750231782    -0.190540632833     1.007825032230
         H            2.473039053578    -2.380134231782     1.506194367167     1.007825032230
         H            2.823168053578     1.669845768218     0.753870367167     1.007825032230
         H            2.313482053578     1.907117768218    -0.929336632833     1.007825032230
         H            0.353247053578    -1.039280231782     1.241760367167     1.007825032230
         H            1.629708053578    -0.123461231782     2.059351367167     1.007825032230
         H           -0.356882946422    -1.584983231782    -1.383331632833     1.007825032230
         H           -4.258074946422     0.277952768218     1.042790367167     1.007825032230
         H           -1.979036946422     2.766596768218     0.226884367167     1.007825032230
         H           -3.090566946422     2.267694768218     1.524925367167     1.007825032230
         H           -1.338182946422     2.098721768218     1.725414367167     1.007825032230
         H           -2.451417946422    -2.919107231782    -1.197366632833     1.007825032230
         H           -4.403631946422    -1.976202231782     0.031979367167     1.007825032230

  Basis Set: AUG-CC-PVTZ
    Blend: AUG-CC-PVTZ
  Basis Set: (AUG-CC-PVTZ AUX)
    Blend: AUG-CC-PVTZ-JKFIT
	 Reference Energy          =    -631.7297055676963282 [Eh]
	 Singles Energy            =      -0.0000000000000000 [Eh]
	 Same-Spin Energy          =      -0.6891955098898965 [Eh]
	 Opposite-Spin Energy      =      -2.2124272287871078 [Eh]
	 Correlation Energy        =      -2.9016227386770046 [Eh]
	 Total Energy              =    -634.6313283063733479 [Eh]

	 ================> DF-SCS-MP2 Energies <==================
	-----------------------------------------------------------
	 SCS Same-Spin Scale       =       0.3333333333333333 [-]
	 SCS Opposite-Spin Scale   =       1.2000000000000000 [-]
	 SCS Same-Spin Energy      =      -0.2297318366299655 [Eh]
	 SCS Opposite-Spin Energy  =      -2.6549126745445295 [Eh]
	 SCS Correlation Energy    =      -2.8846445111744949 [Eh]
	 SCS Total Energy          =    -634.6143500788708707 [Eh]
	-----------------------------------------------------------

  Dipole Moment: [D]
     X:     1.4044      Y:    -2.5160      Z:     2.3050     Total:     3.6899

*** Psi4 exiting successfully. Buy a developer a beer!
