                               Psi4 1.4a3.dev225

  ==> Input File <==

--------------------------------------------------------------------------
#psi4
#
memory 32 gb

molecule  {
0 1
  O        0.0109280     1.9504830    -1.2088660
  N        1.2104930     0.4628600     0.0596820
  C        3.6816010    -0.9509880     0.4072830
  C        3.5342200     0.1692850    -0.6230390
  C        2.3335540    -1.6180450     0.6838790
  C        2.4642000     1.1676880    -0.1911000
  C        1.2914730    -0.5760260     1.0805660
  C        0.0527250     0.9288280    -0.5097470
  C       -1.1808260     0.1020470    -0.2945890
  C       -2.2823960     0.6556420     0.3835130
  C       -1.2622800    -1.1716740    -0.8705440
  C       -3.4454200    -0.1153760     0.4879690
  C       -2.1965213     2.2201767     1.0602840
  C       -2.4366510    -1.9182050    -0.7675160
  C       -3.5304630    -1.3875060    -0.0828830
  H        4.4130950    -1.6928310     0.0671840
  H        4.0710030    -0.5292960     1.3442740
  H        4.4878230     0.6919580    -0.7653020
  H        3.2457620    -0.2529490    -1.5933530
  H        1.9831950    -2.1398170    -0.2152240
  H        2.4267450    -2.3652010     1.4815110
  H        2.7768740     1.6847790     0.7291870
  H        2.2671880     1.9220510    -0.9540200
  H        0.3069530    -1.0243470     1.2170770
  H        1.5834140    -0.1085280     2.0346680
  H       -0.4031770    -1.5700500    -1.4080150
  H       -4.3043690     0.2928860     1.0181070
  H       -2.0253310     2.7815300     0.2022010
  H       -3.1368610     2.2826280     1.5002420
  H       -1.3844770     2.1136550     1.7007310
  H       -2.4977120    -2.9041740    -1.2220500
  H       -4.4499260    -1.9612690     0.0072960
units angstrom
no_reorient  #important for SAPT in psi4, default
symmetry c1  #important for SAPT in psi4, default
}

set PROPERTIES_ORIGIN ["COM"]
properties('MP2/aug-cc-pvtz', properties = ['dipole'])
--------------------------------------------------------------------------

    Molecular point group: c1
  Charge       = 0
  Multiplicity = 1
  Basis Set: AUG-CC-PVTZ
    Blend: AUG-CC-PVTZ
  Basis Set: (AUG-CC-PVTZ AUX)
    Blend: AUG-CC-PVTZ-JKFIT

    Orbital Energies [Eh]
    ---------------------

    Doubly Occupied:

       1A    -20.510889     2A    -15.583822     3A    -11.349065
       4A    -11.266990     5A    -11.256520     6A    -11.254624
       7A    -11.245711     8A    -11.244528     9A    -11.242055
      10A    -11.238532    11A    -11.236891    12A    -11.230552
      13A    -11.228272    14A    -11.225642    15A    -11.222137
      16A     -1.366901    17A     -1.249542    18A     -1.156408
      19A     -1.083497    20A     -1.039861    21A     -1.031987
      22A     -1.022308    23A     -0.946318    24A     -0.921159
      25A     -0.867295    26A     -0.842409    27A     -0.815760
      28A     -0.790977    29A     -0.742330    30A     -0.711738
      31A     -0.663127    32A     -0.650427    33A     -0.647156
      34A     -0.627121    35A     -0.619081    36A     -0.614352
      37A     -0.598603    38A     -0.593291    39A     -0.586047
      40A     -0.576815    41A     -0.561463    42A     -0.554889
      43A     -0.544426    44A     -0.527162    45A     -0.507010
      46A     -0.498999    47A     -0.495132    48A     -0.479952
      49A     -0.469812    50A     -0.461703    51A     -0.452000
      52A     -0.416067    53A     -0.366436    54A     -0.339256
      55A     -0.332268

  @DF-RHF Final Energy:  -631.70398609271388

   => Energetics <=

    Nuclear Repulsion Energy =            996.3077718622811290
    One-Electron Energy =               -2835.8088814522361645
    Two-Electron Energy =                1207.7971234972410457
    Total Energy =                       -631.7039860927138761
  Basis Set: (AUG-CC-PVTZ AUX)
    Blend: AUG-CC-PVTZ-RI
    Molecular point group: c1

    Geometry (in Angstrom), charge = 0, multiplicity = 1:

       Center              X                  Y                   Z               Mass
    ------------   -----------------  -----------------  -----------------  -----------------
         O            0.056034618951     1.926120832869    -1.188454075101    15.994914619570
         N            1.255599618951     0.438497832869     0.080093924899    14.003074004430
         C            3.726707618951    -0.975350167131     0.427694924899    12.000000000000
         C            3.579326618951     0.144922832869    -0.602627075101    12.000000000000
         C            2.378660618951    -1.642407167131     0.704290924899    12.000000000000
         C            2.509306618951     1.143325832869    -0.170688075101    12.000000000000
         C            1.336579618951    -0.600388167131     1.100977924899    12.000000000000
         C            0.097831618951     0.904465832869    -0.489335075101    12.000000000000
         C           -1.135719381049     0.077684832869    -0.274177075101    12.000000000000
         C           -2.237289381049     0.631279832869     0.403924924899    12.000000000000
         C           -1.217173381049    -1.196036167131    -0.850132075101    12.000000000000
         C           -3.400313381049    -0.139738167131     0.508380924899    12.000000000000
         C           -2.151414681049     2.195814532869     1.080695924899    12.000000000000
         C           -2.391544381049    -1.942567167131    -0.747104075101    12.000000000000
         C           -3.485356381049    -1.411868167131    -0.062471075101    12.000000000000
         H            4.458201618951    -1.717193167131     0.087595924899     1.007825032230
         H            4.116109618951    -0.553658167131     1.364685924899     1.007825032230
         H            4.532929618951     0.667595832869    -0.744890075101     1.007825032230
         H            3.290868618951    -0.277311167131    -1.572941075101     1.007825032230
         H            2.028301618951    -2.164179167131    -0.194812075101     1.007825032230
         H            2.471851618951    -2.389563167131     1.501922924899     1.007825032230
         H            2.821980618951     1.660416832869     0.749598924899     1.007825032230
         H            2.312294618951     1.897688832869    -0.933608075101     1.007825032230
         H            0.352059618951    -1.048709167131     1.237488924899     1.007825032230
         H            1.628520618951    -0.132890167131     2.055079924899     1.007825032230
         H           -0.358070381049    -1.594412167131    -1.387603075101     1.007825032230
         H           -4.259262381049     0.268523832869     1.038518924899     1.007825032230
         H           -1.980224381049     2.757167832869     0.222612924899     1.007825032230
         H           -3.091754381049     2.258265832869     1.520653924899     1.007825032230
         H           -1.339370381049     2.089292832869     1.721142924899     1.007825032230
         H           -2.452605381049    -2.928536167131    -1.201638075101     1.007825032230
         H           -4.404819381049    -1.985631167131     0.027707924899     1.007825032230

  Basis Set: AUG-CC-PVTZ
    Blend: AUG-CC-PVTZ
  Basis Set: (AUG-CC-PVTZ AUX)
    Blend: AUG-CC-PVTZ-JKFIT
	 Reference Energy          =    -631.7039860927138761 [Eh]
	 Singles Energy            =      -0.0000000000000000 [Eh]
	 Same-Spin Energy          =      -0.6886303723767695 [Eh]
	 Opposite-Spin Energy      =      -2.2130784961641279 [Eh]
	 Correlation Energy        =      -2.9017088685408972 [Eh]
	 Total Energy              =    -634.6056949612548124 [Eh]

	 ================> DF-SCS-MP2 Energies <==================
	-----------------------------------------------------------
	 SCS Same-Spin Scale       =       0.3333333333333333 [-]
	 SCS Opposite-Spin Scale   =       1.2000000000000000 [-]
	 SCS Same-Spin Energy      =      -0.2295434574589232 [Eh]
	 SCS Opposite-Spin Energy  =      -2.6556941953969533 [Eh]
	 SCS Correlation Energy    =      -2.8852376528558765 [Eh]
	 SCS Total Energy          =    -634.5892237455697114 [Eh]
	-----------------------------------------------------------

  Dipole Moment: [D]
     X:     1.3908      Y:    -2.6023      Z:     2.2896     Total:     3.7348

*** Psi4 exiting successfully. Buy a developer a beer!
