                               Psi4 1.4a3.dev225

  ==> Input File <==

--------------------------------------------------------------------------
#psi4
#
memory 32 gb

molecule  {
0 1
  O        0.0109280     1.9504830    -1.2088660
  N        1.2104930     0.4628600     0.0596820
  C        3.6816010    -0.9509880     0.4072830
  C        3.5342200     0.1692850    -0.6230390
  C        2.3335540    -1.6180450     0.6838790
  C        2.4642000     1.1676880    -0.1911000
  C        1.2914730    -0.5760260     1.0805660
  C        0.0527250     0.9288280    -0.5097470
  C       -1.1808260     0.1020470    -0.2945890
  C       -2.2823960     0.6556420     0.3835130
  C       -1.2622800    -1.1716740    -0.8705440
  C       -3.4454200    -0.1153760     0.4879690
  C       -2.2065840     2.0368470     0.9809810
  C       -2.4366510    -1.9182050    -0.7675160
  C       -3.5304630    -1.3875060    -0.0828830
  H        4.4130950    -1.6928310     0.0671840
  H        4.0710030    -0.5292960     1.3442740
  H        4.4878230     0.6919580    -0.7653020
  H        3.2457620    -0.2529490    -1.5933530
  H        1.9831950    -2.1398170    -0.2152240
  H        2.4267450    -2.3652010     1.4815110
  H        2.7768740     1.6847790     0.7291870
  H        2.2671880     1.9220510    -0.9540200
  H        0.3972453    -0.9832306     1.2045573
  H        1.5834140    -0.1085280     2.0346680
  H       -0.4031770    -1.5700500    -1.4080150
  H       -4.3043690     0.2928860     1.0181070
  H       -2.0253310     2.7815300     0.2022010
  H       -3.1368610     2.2826280     1.5002420
  H       -1.3844770     2.1136550     1.7007310
  H       -2.4977120    -2.9041740    -1.2220500
  H       -4.4499260    -1.9612690     0.0072960
units angstrom
no_reorient  #important for SAPT in psi4, default
symmetry c1  #important for SAPT in psi4, default
}

set PROPERTIES_ORIGIN ["COM"]
properties('MP2/aug-cc-pvtz', properties = ['dipole'])
--------------------------------------------------------------------------

    Molecular point group: c1
  Charge       = 0
  Multiplicity = 1
  Basis Set: AUG-CC-PVTZ
    Blend: AUG-CC-PVTZ
  Basis Set: (AUG-CC-PVTZ AUX)
    Blend: AUG-CC-PVTZ-JKFIT

    Orbital Energies [Eh]
    ---------------------

    Doubly Occupied:

       1A    -20.510580     2A    -15.583263     3A    -11.349322
       4A    -11.255945     5A    -11.254013     6A    -11.252089
       7A    -11.246587     8A    -11.245153     9A    -11.242821
      10A    -11.239250    11A    -11.237068    12A    -11.230256
      13A    -11.227964    14A    -11.225345    15A    -11.220458
      16A     -1.366839    17A     -1.250030    18A     -1.161525
      19A     -1.083354    20A     -1.050991    21A     -1.039727
      22A     -1.024995    23A     -0.943612    24A     -0.920627
      25A     -0.871972    26A     -0.844157    27A     -0.815386
      28A     -0.790910    29A     -0.746075    30A     -0.715507
      31A     -0.668410    32A     -0.653323    33A     -0.648412
      34A     -0.632095    35A     -0.621783    36A     -0.615027
      37A     -0.596965    38A     -0.588557    39A     -0.575768
      40A     -0.571815    41A     -0.562706    42A     -0.549353
      43A     -0.541695    44A     -0.524628    45A     -0.508060
      46A     -0.501853    47A     -0.492073    48A     -0.489845
      49A     -0.478325    50A     -0.471775    51A     -0.462422
      52A     -0.416825    53A     -0.365854    54A     -0.340736
      55A     -0.330181

  @DF-RHF Final Energy:  -631.72522669695991

   => Energetics <=

    Nuclear Repulsion Energy =           1000.3965800144422928
    One-Electron Energy =               -2843.9349941542363922
    Two-Electron Energy =                1211.8131874428340780
    Total Energy =                       -631.7252266969599077
  Basis Set: (AUG-CC-PVTZ AUX)
    Blend: AUG-CC-PVTZ-RI
    Molecular point group: c1

    Geometry (in Angstrom), charge = 0, multiplicity = 1:

       Center              X                  Y                   Z               Mass
    ------------   -----------------  -----------------  -----------------  -----------------
         O            0.056181093678     1.936747069693    -1.183707120674    15.994914619570
         N            1.255746093678     0.449124069693     0.084840879326    14.003074004430
         C            3.726854093678    -0.964723930307     0.432441879326    12.000000000000
         C            3.579473093678     0.155549069693    -0.597880120674    12.000000000000
         C            2.378807093678    -1.631780930307     0.709037879326    12.000000000000
         C            2.509453093678     1.153952069693    -0.165941120674    12.000000000000
         C            1.336726093678    -0.589761930307     1.105724879326    12.000000000000
         C            0.097978093678     0.915092069693    -0.484588120674    12.000000000000
         C           -1.135572906322     0.088311069693    -0.269430120674    12.000000000000
         C           -2.237142906322     0.641906069693     0.408671879326    12.000000000000
         C           -1.217026906322    -1.185409930307    -0.845385120674    12.000000000000
         C           -3.400166906322    -0.129111930307     0.513127879326    12.000000000000
         C           -2.161330906322     2.023111069693     1.006139879326    12.000000000000
         C           -2.391397906322    -1.931940930307    -0.742357120674    12.000000000000
         C           -3.485209906322    -1.401241930307    -0.057724120674    12.000000000000
         H            4.458348093678    -1.706566930307     0.092342879326     1.007825032230
         H            4.116256093678    -0.543031930307     1.369432879326     1.007825032230
         H            4.533076093678     0.678222069693    -0.740143120674     1.007825032230
         H            3.291015093678    -0.266684930307    -1.568194120674     1.007825032230
         H            2.028448093678    -2.153552930307    -0.190065120674     1.007825032230
         H            2.471998093678    -2.378936930307     1.506669879326     1.007825032230
         H            2.822127093678     1.671043069693     0.754345879326     1.007825032230
         H            2.312441093678     1.908315069693    -0.928861120674     1.007825032230
         H            0.442498393678    -0.996966530307     1.229716179326     1.007825032230
         H            1.628667093678    -0.122263930307     2.059826879326     1.007825032230
         H           -0.357923906322    -1.583785930307    -1.382856120674     1.007825032230
         H           -4.259115906322     0.279150069693     1.043265879326     1.007825032230
         H           -1.980077906322     2.767794069693     0.227359879326     1.007825032230
         H           -3.091607906322     2.268892069693     1.525400879326     1.007825032230
         H           -1.339223906322     2.099919069693     1.725889879326     1.007825032230
         H           -2.452458906322    -2.917909930307    -1.196891120674     1.007825032230
         H           -4.404672906322    -1.975004930307     0.032454879326     1.007825032230

  Basis Set: AUG-CC-PVTZ
    Blend: AUG-CC-PVTZ
  Basis Set: (AUG-CC-PVTZ AUX)
    Blend: AUG-CC-PVTZ-JKFIT
	 Reference Energy          =    -631.7252266969599077 [Eh]
	 Singles Energy            =      -0.0000000000000000 [Eh]
	 Same-Spin Energy          =      -0.6886092037460685 [Eh]
	 Opposite-Spin Energy      =      -2.2113084067655264 [Eh]
	 Correlation Energy        =      -2.8999176105115949 [Eh]
	 Total Energy              =    -634.6251443074714871 [Eh]

	 ================> DF-SCS-MP2 Energies <==================
	-----------------------------------------------------------
	 SCS Same-Spin Scale       =       0.3333333333333333 [-]
	 SCS Opposite-Spin Scale   =       1.2000000000000000 [-]
	 SCS Same-Spin Energy      =      -0.2295364012486895 [Eh]
	 SCS Opposite-Spin Energy  =      -2.6535700881186317 [Eh]
	 SCS Correlation Energy    =      -2.8831064893673211 [Eh]
	 SCS Total Energy          =    -634.6083331863271724 [Eh]
	-----------------------------------------------------------

  Dipole Moment: [D]
     X:     1.3845      Y:    -2.5324      Z:     2.3252     Total:     3.7063

*** Psi4 exiting successfully. Buy a developer a beer!
