                               Psi4 1.4a3.dev225

  ==> Input File <==

--------------------------------------------------------------------------
#psi4
#
memory 32 gb

molecule  {
0 1
  O        0.0109280     1.9504830    -1.2088660
  N        1.2104930     0.4628600     0.0596820
  C        3.6816010    -0.9509880     0.4072830
  C        3.5342200     0.1692850    -0.6230390
  C        2.3335540    -1.6180450     0.6838790
  C        2.4642000     1.1676880    -0.1911000
  C        1.2914730    -0.5760260     1.0805660
  C        0.0527250     0.9288280    -0.5097470
  C       -1.1808260     0.1020470    -0.2945890
  C       -2.2823960     0.6556420     0.3835130
  C       -1.2622800    -1.1716740    -0.8705440
  C       -3.4454200    -0.1153760     0.4879690
  C       -2.2065840     2.0368470     0.9809810
  C       -2.4366510    -1.9182050    -0.7675160
  C       -3.5304630    -1.3875060    -0.0828830
  H        4.4130950    -1.6928310     0.0671840
  H        4.0710030    -0.5292960     1.3442740
  H        4.4878230     0.6919580    -0.7653020
  H        3.1931627    -0.3299419    -1.7702863
  H        1.9831950    -2.1398170    -0.2152240
  H        2.4267450    -2.3652010     1.4815110
  H        2.7768740     1.6847790     0.7291870
  H        2.2671880     1.9220510    -0.9540200
  H        0.3069530    -1.0243470     1.2170770
  H        1.5834140    -0.1085280     2.0346680
  H       -0.4031770    -1.5700500    -1.4080150
  H       -4.3043690     0.2928860     1.0181070
  H       -2.0253310     2.7815300     0.2022010
  H       -3.1368610     2.2826280     1.5002420
  H       -1.3844770     2.1136550     1.7007310
  H       -2.4977120    -2.9041740    -1.2220500
  H       -4.4499260    -1.9612690     0.0072960
units angstrom
no_reorient  #important for SAPT in psi4, default
symmetry c1  #important for SAPT in psi4, default
}

set PROPERTIES_ORIGIN ["COM"]
properties('MP2/aug-cc-pvtz', properties = ['dipole'])
--------------------------------------------------------------------------

    Molecular point group: c1
  Charge       = 0
  Multiplicity = 1
  Basis Set: AUG-CC-PVTZ
    Blend: AUG-CC-PVTZ
  Basis Set: (AUG-CC-PVTZ AUX)
    Blend: AUG-CC-PVTZ-JKFIT

    Orbital Energies [Eh]
    ---------------------

    Doubly Occupied:

       1A    -20.510965     2A    -15.584291     3A    -11.349711
       4A    -11.267605     5A    -11.257432     6A    -11.251912
       7A    -11.249121     8A    -11.246310     9A    -11.245027
      10A    -11.242664    11A    -11.239105    12A    -11.236994
      13A    -11.231395    14A    -11.230778    15A    -11.220468
      16A     -1.367187    17A     -1.250000    18A     -1.161451
      19A     -1.082574    20A     -1.050873    21A     -1.037096
      22A     -1.021660    23A     -0.943410    24A     -0.919744
      25A     -0.863669    26A     -0.844594    27A     -0.814542
      28A     -0.785457    29A     -0.739996    30A     -0.712729
      31A     -0.666971    32A     -0.652128    33A     -0.648552
      34A     -0.626283    35A     -0.617654    36A     -0.615170
      37A     -0.594962    38A     -0.586633    39A     -0.575699
      40A     -0.571992    41A     -0.561247    42A     -0.548730
      43A     -0.541813    44A     -0.524667    45A     -0.507561
      46A     -0.497855    47A     -0.491089    48A     -0.488194
      49A     -0.475721    50A     -0.464521    51A     -0.454671
      52A     -0.417184    53A     -0.367055    54A     -0.340006
      55A     -0.330044

  @DF-RHF Final Energy:  -631.71112962788686

   => Energetics <=

    Nuclear Repulsion Energy =            999.1325080908795826
    One-Electron Energy =               -2841.4369537846991989
    Two-Electron Energy =                1210.5933160659326404
    Total Energy =                       -631.7111296278869759
  Basis Set: (AUG-CC-PVTZ AUX)
    Blend: AUG-CC-PVTZ-RI
    Molecular point group: c1

    Geometry (in Angstrom), charge = 0, multiplicity = 1:

       Center              X                  Y                   Z               Mass
    ------------   -----------------  -----------------  -----------------  -----------------
         O            0.056890043672     1.937333063465    -1.182891390282    15.994914619570
         N            1.256455043672     0.449710063465     0.085656609718    14.003074004430
         C            3.727563043672    -0.964137936535     0.433257609718    12.000000000000
         C            3.580182043672     0.156135063465    -0.597064390282    12.000000000000
         C            2.379516043672    -1.631194936535     0.709853609718    12.000000000000
         C            2.510162043672     1.154538063465    -0.165125390282    12.000000000000
         C            1.337435043672    -0.589175936535     1.106540609718    12.000000000000
         C            0.098687043672     0.915678063465    -0.483772390282    12.000000000000
         C           -1.134863956328     0.088897063465    -0.268614390282    12.000000000000
         C           -2.236433956328     0.642492063465     0.409487609718    12.000000000000
         C           -1.216317956328    -1.184823936535    -0.844569390282    12.000000000000
         C           -3.399457956328    -0.128525936535     0.513943609718    12.000000000000
         C           -2.160621956328     2.023697063465     1.006955609718    12.000000000000
         C           -2.390688956328    -1.931354936535    -0.741541390282    12.000000000000
         C           -3.484500956328    -1.400655936535    -0.056908390282    12.000000000000
         H            4.459057043672    -1.705980936535     0.093158609718     1.007825032230
         H            4.116965043672    -0.542445936535     1.370248609718     1.007825032230
         H            4.533785043672     0.678808063465    -0.739327390282     1.007825032230
         H            3.239124743672    -0.343091836535    -1.744311690282     1.007825032230
         H            2.029157043672    -2.152966936535    -0.189249390282     1.007825032230
         H            2.472707043672    -2.378350936535     1.507485609718     1.007825032230
         H            2.822836043672     1.671629063465     0.755161609718     1.007825032230
         H            2.313150043672     1.908901063465    -0.928045390282     1.007825032230
         H            0.352915043672    -1.037496936535     1.243051609718     1.007825032230
         H            1.629376043672    -0.121677936535     2.060642609718     1.007825032230
         H           -0.357214956328    -1.583199936535    -1.382040390282     1.007825032230
         H           -4.258406956328     0.279736063465     1.044081609718     1.007825032230
         H           -1.979368956328     2.768380063465     0.228175609718     1.007825032230
         H           -3.090898956328     2.269478063465     1.526216609718     1.007825032230
         H           -1.338514956328     2.100505063465     1.726705609718     1.007825032230
         H           -2.451749956328    -2.917323936535    -1.196075390282     1.007825032230
         H           -4.403963956328    -1.974418936535     0.033270609718     1.007825032230

  Basis Set: AUG-CC-PVTZ
    Blend: AUG-CC-PVTZ
  Basis Set: (AUG-CC-PVTZ AUX)
    Blend: AUG-CC-PVTZ-JKFIT
	 Reference Energy          =    -631.7111296278868622 [Eh]
	 Singles Energy            =      -0.0000000000000000 [Eh]
	 Same-Spin Energy          =      -0.6890812518591776 [Eh]
	 Opposite-Spin Energy      =      -2.2138763710069385 [Eh]
	 Correlation Energy        =      -2.9029576228661158 [Eh]
	 Total Energy              =    -634.6140872507529593 [Eh]

	 ================> DF-SCS-MP2 Energies <==================
	-----------------------------------------------------------
	 SCS Same-Spin Scale       =       0.3333333333333333 [-]
	 SCS Opposite-Spin Scale   =       1.2000000000000000 [-]
	 SCS Same-Spin Energy      =      -0.2296937506197259 [Eh]
	 SCS Opposite-Spin Energy  =      -2.6566516452083260 [Eh]
	 SCS Correlation Energy    =      -2.8863453958280516 [Eh]
	 SCS Total Energy          =    -634.5974750237148783 [Eh]
	-----------------------------------------------------------

  Dipole Moment: [D]
     X:     1.4111      Y:    -2.4750      Z:     2.4496     Total:     3.7573

*** Psi4 exiting successfully. Buy a developer a beer!
