                               Psi4 1.4a3.dev225

  ==> Input File <==

--------------------------------------------------------------------------
#psi4
#
memory 32 gb

molecule  {
0 1
  O        0.0109280     1.9504830    -1.2088660
  N        1.2104930     0.4628600     0.0596820
  C        3.6816010    -0.9509880     0.4072830
  C        3.5342200     0.1692850    -0.6230390
  C        2.3335540    -1.6180450     0.6838790
  C        2.4642000     1.1676880    -0.1911000
  C        1.2914730    -0.5760260     1.0805660
  C        0.0527250     0.9288280    -0.5097470
  C       -1.1808260     0.1020470    -0.2945890
  C       -2.2823960     0.6556420     0.3835130
  C       -1.2622800    -1.1716740    -0.8705440
  C       -3.4454200    -0.1153760     0.4879690
  C       -2.2065840     2.0368470     0.9809810
  C       -2.4366510    -1.9182050    -0.7675160
  C       -3.5304630    -1.3875060    -0.0828830
  H        4.4130950    -1.6928310     0.0671840
  H        4.0710030    -0.5292960     1.3442740
  H        4.4878230     0.6919580    -0.7653020
  H        3.2457620    -0.2529490    -1.5933530
  H        1.9838331    -2.1064608    -0.2340148
  H        2.4267450    -2.3652010     1.4815110
  H        2.7768740     1.6847790     0.7291870
  H        2.2671880     1.9220510    -0.9540200
  H        0.3069530    -1.0243470     1.2170770
  H        1.5834140    -0.1085280     2.0346680
  H       -0.4031770    -1.5700500    -1.4080150
  H       -4.3043690     0.2928860     1.0181070
  H       -2.0253310     2.7815300     0.2022010
  H       -3.1368610     2.2826280     1.5002420
  H       -1.3844770     2.1136550     1.7007310
  H       -2.4977120    -2.9041740    -1.2220500
  H       -4.4499260    -1.9612690     0.0072960
units angstrom
no_reorient  #important for SAPT in psi4, default
symmetry c1  #important for SAPT in psi4, default
}

set PROPERTIES_ORIGIN ["COM"]
properties('MP2/aug-cc-pvtz', properties = ['dipole'])
--------------------------------------------------------------------------

    Molecular point group: c1
  Charge       = 0
  Multiplicity = 1
  Basis Set: AUG-CC-PVTZ
    Blend: AUG-CC-PVTZ
  Basis Set: (AUG-CC-PVTZ AUX)
    Blend: AUG-CC-PVTZ-JKFIT

    Orbital Energies [Eh]
    ---------------------

    Doubly Occupied:

       1A    -20.510845     2A    -15.583969     3A    -11.349515
       4A    -11.266872     5A    -11.254665     6A    -11.251864
       7A    -11.246374     8A    -11.245045     9A    -11.242660
      10A    -11.239155    11A    -11.236992    12A    -11.230735
      13A    -11.228120    14A    -11.225738    15A    -11.220348
      16A     -1.367055    17A     -1.249675    18A     -1.161451
      19A     -1.083805    20A     -1.050820    21A     -1.037365
      22A     -1.023211    23A     -0.943182    24A     -0.918820
      25A     -0.867255    26A     -0.843959    27A     -0.815235
      28A     -0.790856    29A     -0.742961    30A     -0.712504
      31A     -0.666765    32A     -0.652990    33A     -0.648096
      34A     -0.627988    35A     -0.620850    36A     -0.614942
      37A     -0.596855    38A     -0.588183    39A     -0.575646
      40A     -0.571947    41A     -0.560153    42A     -0.547763
      43A     -0.541649    44A     -0.524796    45A     -0.507969
      46A     -0.501935    47A     -0.491605    48A     -0.489257
      49A     -0.478498    50A     -0.469572    51A     -0.461493
      52A     -0.416980    53A     -0.366265    54A     -0.340015
      55A     -0.330013

  @DF-RHF Final Energy:  -631.73048097124104

   => Energetics <=

    Nuclear Repulsion Energy =           1000.0570018665563339
    One-Electron Energy =               -2843.3084156067770891
    Two-Electron Energy =                1211.5209327689797192
    Total Energy =                       -631.7304809712411497
  Basis Set: (AUG-CC-PVTZ AUX)
    Blend: AUG-CC-PVTZ-RI
    Molecular point group: c1

    Geometry (in Angstrom), charge = 0, multiplicity = 1:

       Center              X                  Y                   Z               Mass
    ------------   -----------------  -----------------  -----------------  -----------------
         O            0.056625908801     1.936785571563    -1.183676006904    15.994914619570
         N            1.256190908801     0.449162571563     0.084871993096    14.003074004430
         C            3.727298908801    -0.964685428437     0.432472993096    12.000000000000
         C            3.579917908801     0.155587571563    -0.597849006904    12.000000000000
         C            2.379251908801    -1.631742428437     0.709068993096    12.000000000000
         C            2.509897908801     1.153990571563    -0.165910006904    12.000000000000
         C            1.337170908801    -0.589723428437     1.105755993096    12.000000000000
         C            0.098422908801     0.915130571563    -0.484557006904    12.000000000000
         C           -1.135128091199     0.088349571563    -0.269399006904    12.000000000000
         C           -2.236698091199     0.641944571563     0.408702993096    12.000000000000
         C           -1.216582091199    -1.185371428437    -0.845354006904    12.000000000000
         C           -3.399722091199    -0.129073428437     0.513158993096    12.000000000000
         C           -2.160886091199     2.023149571563     1.006170993096    12.000000000000
         C           -2.390953091199    -1.931902428437    -0.742326006904    12.000000000000
         C           -3.484765091199    -1.401203428437    -0.057693006904    12.000000000000
         H            4.458792908801    -1.706528428437     0.092373993096     1.007825032230
         H            4.116700908801    -0.542993428437     1.369463993096     1.007825032230
         H            4.533520908801     0.678260571563    -0.740112006904     1.007825032230
         H            3.291459908801    -0.266646428437    -1.568163006904     1.007825032230
         H            2.029531008801    -2.120158228437    -0.208824806904     1.007825032230
         H            2.472442908801    -2.378898428437     1.506700993096     1.007825032230
         H            2.822571908801     1.671081571563     0.754376993096     1.007825032230
         H            2.312885908801     1.908353571563    -0.928830006904     1.007825032230
         H            0.352650908801    -1.038044428437     1.242266993096     1.007825032230
         H            1.629111908801    -0.122225428437     2.059857993096     1.007825032230
         H           -0.357479091199    -1.583747428437    -1.382825006904     1.007825032230
         H           -4.258671091199     0.279188571563     1.043296993096     1.007825032230
         H           -1.979633091199     2.767832571563     0.227390993096     1.007825032230
         H           -3.091163091199     2.268930571563     1.525431993096     1.007825032230
         H           -1.338779091199     2.099957571563     1.725920993096     1.007825032230
         H           -2.452014091199    -2.917871428437    -1.196860006904     1.007825032230
         H           -4.404228091199    -1.974966428437     0.032485993096     1.007825032230

  Basis Set: AUG-CC-PVTZ
    Blend: AUG-CC-PVTZ
  Basis Set: (AUG-CC-PVTZ AUX)
    Blend: AUG-CC-PVTZ-JKFIT
	 Reference Energy          =    -631.7304809712410361 [Eh]
	 Singles Energy            =      -0.0000000000000000 [Eh]
	 Same-Spin Energy          =      -0.6890647658115852 [Eh]
	 Opposite-Spin Energy      =      -2.2123527004342094 [Eh]
	 Correlation Energy        =      -2.9014174662457943 [Eh]
	 Total Energy              =    -634.6318984374868251 [Eh]

	 ================> DF-SCS-MP2 Energies <==================
	-----------------------------------------------------------
	 SCS Same-Spin Scale       =       0.3333333333333333 [-]
	 SCS Opposite-Spin Scale   =       1.2000000000000000 [-]
	 SCS Same-Spin Energy      =      -0.2296882552705284 [Eh]
	 SCS Opposite-Spin Energy  =      -2.6548232405210510 [Eh]
	 SCS Correlation Energy    =      -2.8845114957915792 [Eh]
	 SCS Total Energy          =    -634.6149924670326072 [Eh]
	-----------------------------------------------------------

  Dipole Moment: [D]
     X:     1.4033      Y:    -2.5096      Z:     2.3038     Total:     3.6844

*** Psi4 exiting successfully. Buy a developer a beer!
