                               Psi4 1.4a3.dev225

  ==> Input File <==

--------------------------------------------------------------------------
#psi4
#
memory 32 gb

molecule  {
0 1
  O        0.0109280     1.9504830    -1.2088660
  N        1.2104930     0.4628600     0.0596820
  C        3.6816010    -0.9509880     0.4072830
  C        3.5912338     0.1993946    -0.5382676
  C        2.3335540    -1.6180450     0.6838790
  C        2.4642000     1.1676880    -0.1911000
  C        1.2914730    -0.5760260     1.0805660
  C        0.0527250     0.9288280    -0.5097470
  C       -1.1808260     0.1020470    -0.2945890
  C       -2.2823960     0.6556420     0.3835130
  C       -1.2622800    -1.1716740    -0.8705440
  C       -3.4454200    -0.1153760     0.4879690
  C       -2.2065840     2.0368470     0.9809810
  C       -2.4366510    -1.9182050    -0.7675160
  C       -3.5304630    -1.3875060    -0.0828830
  H        4.4130950    -1.6928310     0.0671840
  H        4.0710030    -0.5292960     1.3442740
  H        4.4878230     0.6919580    -0.7653020
  H        3.2457620    -0.2529490    -1.5933530
  H        1.9831950    -2.1398170    -0.2152240
  H        2.4267450    -2.3652010     1.4815110
  H        2.7768740     1.6847790     0.7291870
  H        2.2671880     1.9220510    -0.9540200
  H        0.3069530    -1.0243470     1.2170770
  H        1.5834140    -0.1085280     2.0346680
  H       -0.4031770    -1.5700500    -1.4080150
  H       -4.3043690     0.2928860     1.0181070
  H       -2.0253310     2.7815300     0.2022010
  H       -3.1368610     2.2826280     1.5002420
  H       -1.3844770     2.1136550     1.7007310
  H       -2.4977120    -2.9041740    -1.2220500
  H       -4.4499260    -1.9612690     0.0072960
units angstrom
no_reorient  #important for SAPT in psi4, default
symmetry c1  #important for SAPT in psi4, default
}

set PROPERTIES_ORIGIN ["COM"]
properties('MP2/aug-cc-pvtz', properties = ['dipole'])
--------------------------------------------------------------------------

    Molecular point group: c1
  Charge       = 0
  Multiplicity = 1
  Basis Set: AUG-CC-PVTZ
    Blend: AUG-CC-PVTZ
  Basis Set: (AUG-CC-PVTZ AUX)
    Blend: AUG-CC-PVTZ-JKFIT

    Orbital Energies [Eh]
    ---------------------

    Doubly Occupied:

       1A    -20.511389     2A    -15.585380     3A    -11.350247
       4A    -11.267821     5A    -11.255947     6A    -11.252088
       7A    -11.246538     8A    -11.245260     9A    -11.242850
      10A    -11.239264    11A    -11.237126    12A    -11.232397
      13A    -11.229824    14A    -11.228031    15A    -11.220495
      16A     -1.367554    17A     -1.250132    18A     -1.161646
      19A     -1.088451    20A     -1.051029    21A     -1.037694
      22A     -1.024606    23A     -0.944026    24A     -0.920645
      25A     -0.869490    26A     -0.845979    27A     -0.815479
      28A     -0.789261    29A     -0.740385    30A     -0.713516
      31A     -0.667489    32A     -0.652929    33A     -0.649012
      34A     -0.631018    35A     -0.620758    36A     -0.615909
      37A     -0.596969    38A     -0.590945    39A     -0.576064
      40A     -0.572142    41A     -0.564275    42A     -0.552441
      43A     -0.542064    44A     -0.525108    45A     -0.508068
      46A     -0.497908    47A     -0.491898    48A     -0.489877
      49A     -0.476969    50A     -0.473544    51A     -0.447987
      52A     -0.417829    53A     -0.366298    54A     -0.340201
      55A     -0.330227

  @DF-RHF Final Energy:  -631.71899939005652

   => Energetics <=

    Nuclear Repulsion Energy =            999.7441584629654017
    One-Electron Energy =               -2842.6013518395443498
    Two-Electron Energy =                1211.1381939865223103
    Total Energy =                       -631.7189993900565241
  Basis Set: (AUG-CC-PVTZ AUX)
    Blend: AUG-CC-PVTZ-RI
    Molecular point group: c1

    Geometry (in Angstrom), charge = 0, multiplicity = 1:

       Center              X                  Y                   Z               Mass
    ------------   -----------------  -----------------  -----------------  -----------------
         O            0.053260974550     1.935172336932    -1.188777121782    15.994914619570
         N            1.252825974550     0.447549336932     0.079770878218    14.003074004430
         C            3.723933974550    -0.966298663068     0.427371878218    12.000000000000
         C            3.633566774550     0.184083936932    -0.518178721782    12.000000000000
         C            2.375886974550    -1.633355663068     0.703967878218    12.000000000000
         C            2.506532974550     1.152377336932    -0.171011121782    12.000000000000
         C            1.333805974550    -0.591336663068     1.100654878218    12.000000000000
         C            0.095057974550     0.913517336932    -0.489658121782    12.000000000000
         C           -1.138493025450     0.086736336932    -0.274500121782    12.000000000000
         C           -2.240063025450     0.640331336932     0.403601878218    12.000000000000
         C           -1.219947025450    -1.186984663068    -0.850455121782    12.000000000000
         C           -3.403087025450    -0.130686663068     0.508057878218    12.000000000000
         C           -2.164251025450     2.021536336932     1.001069878218    12.000000000000
         C           -2.394318025450    -1.933515663068    -0.747427121782    12.000000000000
         C           -3.488130025450    -1.402816663068    -0.062794121782    12.000000000000
         H            4.455427974550    -1.708141663068     0.087272878218     1.007825032230
         H            4.113335974550    -0.544606663068     1.364362878218     1.007825032230
         H            4.530155974550     0.676647336932    -0.745213121782     1.007825032230
         H            3.288094974550    -0.268259663068    -1.573264121782     1.007825032230
         H            2.025527974550    -2.155127663068    -0.195135121782     1.007825032230
         H            2.469077974550    -2.380511663068     1.501599878218     1.007825032230
         H            2.819206974550     1.669468336932     0.749275878218     1.007825032230
         H            2.309520974550     1.906740336932    -0.933931121782     1.007825032230
         H            0.349285974550    -1.039657663068     1.237165878218     1.007825032230
         H            1.625746974550    -0.123838663068     2.054756878218     1.007825032230
         H           -0.360844025450    -1.585360663068    -1.387926121782     1.007825032230
         H           -4.262036025450     0.277575336932     1.038195878218     1.007825032230
         H           -1.982998025450     2.766219336932     0.222289878218     1.007825032230
         H           -3.094528025450     2.267317336932     1.520330878218     1.007825032230
         H           -1.342144025450     2.098344336932     1.720819878218     1.007825032230
         H           -2.455379025450    -2.919484663068    -1.201961121782     1.007825032230
         H           -4.407593025450    -1.976579663068     0.027384878218     1.007825032230

  Basis Set: AUG-CC-PVTZ
    Blend: AUG-CC-PVTZ
  Basis Set: (AUG-CC-PVTZ AUX)
    Blend: AUG-CC-PVTZ-JKFIT
	 Reference Energy          =    -631.7189993900565241 [Eh]
	 Singles Energy            =      -0.0000000000000000 [Eh]
	 Same-Spin Energy          =      -0.6894001293763198 [Eh]
	 Opposite-Spin Energy      =      -2.2129885015065005 [Eh]
	 Correlation Energy        =      -2.9023886308828204 [Eh]
	 Total Energy              =    -634.6213880209393210 [Eh]

	 ================> DF-SCS-MP2 Energies <==================
	-----------------------------------------------------------
	 SCS Same-Spin Scale       =       0.3333333333333333 [-]
	 SCS Opposite-Spin Scale   =       1.2000000000000000 [-]
	 SCS Same-Spin Energy      =      -0.2298000431254399 [Eh]
	 SCS Opposite-Spin Energy  =      -2.6555862018078007 [Eh]
	 SCS Correlation Energy    =      -2.8853862449332408 [Eh]
	 SCS Total Energy          =    -634.6043856349897396 [Eh]
	-----------------------------------------------------------

  Dipole Moment: [D]
     X:     1.4002      Y:    -2.5139      Z:     2.3621     Total:     3.7228

*** Psi4 exiting successfully. Buy a developer a beer!
