                               Psi4 1.4a3.dev225

  ==> Input File <==

--------------------------------------------------------------------------
#psi4
#
memory 32 gb

molecule  {
0 1
  O        0.0109280     1.9504830    -1.2088660
  N        1.2104930     0.4628600     0.0596820
  C        3.6816010    -0.9509880     0.4072830
  C        3.5342200     0.1692850    -0.6230390
  C        2.3335540    -1.6180450     0.6838790
  C        2.4642000     1.1676880    -0.1911000
  C        1.2914730    -0.5760260     1.0805660
  C        0.0527250     0.9288280    -0.5097470
  C       -1.1808260     0.1020470    -0.2945890
  C       -2.2823960     0.6556420     0.3835130
  C       -1.2622800    -1.1716740    -0.8705440
  C       -3.4620431    -0.1263962     0.4894620
  C       -2.2065840     2.0368470     0.9809810
  C       -2.4366510    -1.9182050    -0.7675160
  C       -3.5304630    -1.3875060    -0.0828830
  H        4.4130950    -1.6928310     0.0671840
  H        4.0710030    -0.5292960     1.3442740
  H        4.4878230     0.6919580    -0.7653020
  H        3.2457620    -0.2529490    -1.5933530
  H        1.9831950    -2.1398170    -0.2152240
  H        2.4267450    -2.3652010     1.4815110
  H        2.7768740     1.6847790     0.7291870
  H        2.2671880     1.9220510    -0.9540200
  H        0.3069530    -1.0243470     1.2170770
  H        1.5834140    -0.1085280     2.0346680
  H       -0.4031770    -1.5700500    -1.4080150
  H       -4.3043690     0.2928860     1.0181070
  H       -2.0253310     2.7815300     0.2022010
  H       -3.1368610     2.2826280     1.5002420
  H       -1.3844770     2.1136550     1.7007310
  H       -2.4977120    -2.9041740    -1.2220500
  H       -4.4499260    -1.9612690     0.0072960
units angstrom
no_reorient  #important for SAPT in psi4, default
symmetry c1  #important for SAPT in psi4, default
}

set PROPERTIES_ORIGIN ["COM"]
properties('MP2/aug-cc-pvtz', properties = ['dipole'])
--------------------------------------------------------------------------

    Molecular point group: c1
  Charge       = 0
  Multiplicity = 1
  Basis Set: AUG-CC-PVTZ
    Blend: AUG-CC-PVTZ
  Basis Set: (AUG-CC-PVTZ AUX)
    Blend: AUG-CC-PVTZ-JKFIT

    Orbital Energies [Eh]
    ---------------------

    Doubly Occupied:

       1A    -20.510747     2A    -15.583870     3A    -11.349405
       4A    -11.267077     5A    -11.254620     6A    -11.254169
       7A    -11.246365     8A    -11.244759     9A    -11.241640
      10A    -11.238998    11A    -11.237264    12A    -11.230616
      13A    -11.228307    14A    -11.225664    15A    -11.220670
      16A     -1.366953    17A     -1.249568    18A     -1.160303
      19A     -1.083628    20A     -1.050108    21A     -1.037301
      22A     -1.023766    23A     -0.943634    24A     -0.918383
      25A     -0.867106    26A     -0.843232    27A     -0.816113
      28A     -0.790600    29A     -0.742744    30A     -0.712713
      31A     -0.666570    32A     -0.652863    33A     -0.648058
      34A     -0.627836    35A     -0.621582    36A     -0.615085
      37A     -0.597219    38A     -0.588032    39A     -0.575363
      40A     -0.571576    41A     -0.560102    42A     -0.547433
      43A     -0.542502    44A     -0.524865    45A     -0.506012
      46A     -0.501863    47A     -0.492489    48A     -0.489924
      49A     -0.478677    50A     -0.469612    51A     -0.461538
      52A     -0.416706    53A     -0.366210    54A     -0.341010
      55A     -0.328149

  @DF-RHF Final Energy:  -631.73016571365633

   => Energetics <=

    Nuclear Repulsion Energy =            999.6506245358596061
    One-Electron Energy =               -2842.4983750018272985
    Two-Electron Energy =                1211.1175847523113589
    Total Energy =                       -631.7301657136563335
  Basis Set: (AUG-CC-PVTZ AUX)
    Blend: AUG-CC-PVTZ-RI
    Molecular point group: c1

    Geometry (in Angstrom), charge = 0, multiplicity = 1:

       Center              X                  Y                   Z               Mass
    ------------   -----------------  -----------------  -----------------  -----------------
         O            0.057611087228     1.937602087022    -1.183857435815    15.994914619570
         N            1.257176087228     0.449979087022     0.084690564185    14.003074004430
         C            3.728284087228    -0.963868912978     0.432291564185    12.000000000000
         C            3.580903087228     0.156404087022    -0.598030435815    12.000000000000
         C            2.380237087228    -1.630925912978     0.708887564185    12.000000000000
         C            2.510883087228     1.154807087022    -0.166091435815    12.000000000000
         C            1.338156087228    -0.588906912978     1.105574564185    12.000000000000
         C            0.099408087228     0.915947087022    -0.484738435815    12.000000000000
         C           -1.134142912772     0.089166087022    -0.269580435815    12.000000000000
         C           -2.235712912772     0.642761087022     0.408521564185    12.000000000000
         C           -1.215596912772    -1.184554912978    -0.845535435815    12.000000000000
         C           -3.415360012772    -0.139277112978     0.514470564185    12.000000000000
         C           -2.159900912772     2.023966087022     1.005989564185    12.000000000000
         C           -2.389967912772    -1.931085912978    -0.742507435815    12.000000000000
         C           -3.483779912772    -1.400386912978    -0.057874435815    12.000000000000
         H            4.459778087228    -1.705711912978     0.092192564185     1.007825032230
         H            4.117686087228    -0.542176912978     1.369282564185     1.007825032230
         H            4.534506087228     0.679077087022    -0.740293435815     1.007825032230
         H            3.292445087228    -0.265829912978    -1.568344435815     1.007825032230
         H            2.029878087228    -2.152697912978    -0.190215435815     1.007825032230
         H            2.473428087228    -2.378081912978     1.506519564185     1.007825032230
         H            2.823557087228     1.671898087022     0.754195564185     1.007825032230
         H            2.313871087228     1.909170087022    -0.929011435815     1.007825032230
         H            0.353636087228    -1.037227912978     1.242085564185     1.007825032230
         H            1.630097087228    -0.121408912978     2.059676564185     1.007825032230
         H           -0.356493912772    -1.582930912978    -1.383006435815     1.007825032230
         H           -4.257685912772     0.280005087022     1.043115564185     1.007825032230
         H           -1.978647912772     2.768649087022     0.227209564185     1.007825032230
         H           -3.090177912772     2.269747087022     1.525250564185     1.007825032230
         H           -1.337793912772     2.100774087022     1.725739564185     1.007825032230
         H           -2.451028912772    -2.917054912978    -1.197041435815     1.007825032230
         H           -4.403242912772    -1.974149912978     0.032304564185     1.007825032230

  Basis Set: AUG-CC-PVTZ
    Blend: AUG-CC-PVTZ
  Basis Set: (AUG-CC-PVTZ AUX)
    Blend: AUG-CC-PVTZ-JKFIT
	 Reference Energy          =    -631.7301657136563335 [Eh]
	 Singles Energy            =      -0.0000000000000000 [Eh]
	 Same-Spin Energy          =      -0.6889913089907816 [Eh]
	 Opposite-Spin Energy      =      -2.2122618365567526 [Eh]
	 Correlation Energy        =      -2.9012531455475341 [Eh]
	 Total Energy              =    -634.6314188592039045 [Eh]

	 ================> DF-SCS-MP2 Energies <==================
	-----------------------------------------------------------
	 SCS Same-Spin Scale       =       0.3333333333333333 [-]
	 SCS Opposite-Spin Scale   =       1.2000000000000000 [-]
	 SCS Same-Spin Energy      =      -0.2296637696635939 [Eh]
	 SCS Opposite-Spin Energy  =      -2.6547142038681031 [Eh]
	 SCS Correlation Energy    =      -2.8843779735316968 [Eh]
	 SCS Total Energy          =    -634.6145436871880747 [Eh]
	-----------------------------------------------------------

  Dipole Moment: [D]
     X:     1.4018      Y:    -2.5079      Z:     2.3105     Total:     3.6869

*** Psi4 exiting successfully. Buy a developer a beer!
