                               Psi4 1.4a3.dev225

  ==> Input File <==

--------------------------------------------------------------------------
#psi4
#
memory 32 gb

molecule  {
0 1
  O        0.0109280     1.9504830    -1.2088660
  N        1.2104930     0.4628600     0.0596820
  C        3.6816010    -0.9509880     0.4072830
  C        3.5342200     0.1692850    -0.6230390
  C        2.3335540    -1.6180450     0.6838790
  C        2.4642000     1.1676880    -0.1911000
  C        1.2914730    -0.5760260     1.0805660
  C        0.0527250     0.9288280    -0.5097470
  C       -1.1808260     0.1020470    -0.2945890
  C       -2.2823960     0.6556420     0.3835130
  C       -1.2622800    -1.1716740    -0.8705440
  C       -3.4454200    -0.1153760     0.4879690
  C       -2.2065840     2.0368470     0.9809810
  C       -2.4366510    -1.9182050    -0.7675160
  C       -3.5304630    -1.3875060    -0.0828830
  H        4.4130950    -1.6928310     0.0671840
  H        4.0710030    -0.5292960     1.3442740
  H        4.4878230     0.6919580    -0.7653020
  H        3.2457620    -0.2529490    -1.5933530
  H        1.9831950    -2.1398170    -0.2152240
  H        2.4267450    -2.3652010     1.4815110
  H        2.7768740     1.6847790     0.7291870
  H        2.2671880     1.9220510    -0.9540200
  H        0.2166607    -1.0654634     1.2295967
  H        1.5834140    -0.1085280     2.0346680
  H       -0.4031770    -1.5700500    -1.4080150
  H       -4.3043690     0.2928860     1.0181070
  H       -2.0253310     2.7815300     0.2022010
  H       -3.1368610     2.2826280     1.5002420
  H       -1.3844770     2.1136550     1.7007310
  H       -2.4977120    -2.9041740    -1.2220500
  H       -4.4499260    -1.9612690     0.0072960
units angstrom
no_reorient  #important for SAPT in psi4, default
symmetry c1  #important for SAPT in psi4, default
}

set PROPERTIES_ORIGIN ["COM"]
properties('MP2/aug-cc-pvtz', properties = ['dipole'])
--------------------------------------------------------------------------

    Molecular point group: c1
  Charge       = 0
  Multiplicity = 1
  Basis Set: AUG-CC-PVTZ
    Blend: AUG-CC-PVTZ
  Basis Set: (AUG-CC-PVTZ AUX)
    Blend: AUG-CC-PVTZ-JKFIT

    Orbital Energies [Eh]
    ---------------------

    Doubly Occupied:

       1A    -20.511070     2A    -15.584723     3A    -11.349684
       4A    -11.277384     5A    -11.255416     6A    -11.251561
       7A    -11.246101     8A    -11.244867     9A    -11.242443
      10A    -11.238989    11A    -11.236857    12A    -11.231168
      13A    -11.228832    14A    -11.226122    15A    -11.220191
      16A     -1.367251    17A     -1.249562    18A     -1.161313
      19A     -1.084022    20A     -1.050618    21A     -1.036024
      22A     -1.021751    23A     -0.942891    24A     -0.917773
      25A     -0.864090    26A     -0.844130    27A     -0.815217
      28A     -0.791169    29A     -0.740658    30A     -0.709824
      31A     -0.665564    32A     -0.652591    33A     -0.648449
      34A     -0.625845    35A     -0.617704    36A     -0.615616
      37A     -0.595846    38A     -0.587562    39A     -0.575517
      40A     -0.571786    41A     -0.558169    42A     -0.544397
      43A     -0.541348    44A     -0.525063    45A     -0.508098
      46A     -0.502307    47A     -0.491208    48A     -0.488717
      49A     -0.478845    50A     -0.467834    51A     -0.458945
      52A     -0.417058    53A     -0.366744    54A     -0.339024
      55A     -0.329733

  @DF-RHF Final Energy:  -631.72321766372340

   => Energetics <=

    Nuclear Repulsion Energy =            999.6015250305672453
    One-Electron Energy =               -2842.4181503317304305
    Two-Electron Energy =                1211.0934076374396682
    Total Energy =                       -631.7232176637235170
  Basis Set: (AUG-CC-PVTZ AUX)
    Blend: AUG-CC-PVTZ-RI
    Molecular point group: c1

    Geometry (in Angstrom), charge = 0, multiplicity = 1:

       Center              X                  Y                   Z               Mass
    ------------   -----------------  -----------------  -----------------  -----------------
         O            0.057077055730     1.937155063887    -1.183831352486    15.994914619570
         N            1.256642055730     0.449532063887     0.084716647514    14.003074004430
         C            3.727750055730    -0.964315936113     0.432317647514    12.000000000000
         C            3.580369055730     0.155957063887    -0.598004352486    12.000000000000
         C            2.379703055730    -1.631372936113     0.708913647514    12.000000000000
         C            2.510349055730     1.154360063887    -0.166065352486    12.000000000000
         C            1.337622055730    -0.589353936113     1.105600647514    12.000000000000
         C            0.098874055730     0.915500063887    -0.484712352486    12.000000000000
         C           -1.134676944270     0.088719063887    -0.269554352486    12.000000000000
         C           -2.236246944270     0.642314063887     0.408547647514    12.000000000000
         C           -1.216130944270    -1.185001936113    -0.845509352486    12.000000000000
         C           -3.399270944270    -0.128703936113     0.513003647514    12.000000000000
         C           -2.160434944270     2.023519063887     1.006015647514    12.000000000000
         C           -2.390501944270    -1.931532936113    -0.742481352486    12.000000000000
         C           -3.484313944270    -1.400833936113    -0.057848352486    12.000000000000
         H            4.459244055730    -1.706158936113     0.092218647514     1.007825032230
         H            4.117152055730    -0.542623936113     1.369308647514     1.007825032230
         H            4.533972055730     0.678630063887    -0.740267352486     1.007825032230
         H            3.291911055730    -0.266276936113    -1.568318352486     1.007825032230
         H            2.029344055730    -2.153144936113    -0.190189352486     1.007825032230
         H            2.472894055730    -2.378528936113     1.506545647514     1.007825032230
         H            2.823023055730     1.671451063887     0.754221647514     1.007825032230
         H            2.313337055730     1.908723063887    -0.928985352486     1.007825032230
         H            0.262809755730    -1.078791336113     1.254631347514     1.007825032230
         H            1.629563055730    -0.121855936113     2.059702647514     1.007825032230
         H           -0.357027944270    -1.583377936113    -1.382980352486     1.007825032230
         H           -4.258219944270     0.279558063887     1.043141647514     1.007825032230
         H           -1.979181944270     2.768202063887     0.227235647514     1.007825032230
         H           -3.090711944270     2.269300063887     1.525276647514     1.007825032230
         H           -1.338327944270     2.100327063887     1.725765647514     1.007825032230
         H           -2.451562944270    -2.917501936113    -1.197015352486     1.007825032230
         H           -4.403776944270    -1.974596936113     0.032330647514     1.007825032230

  Basis Set: AUG-CC-PVTZ
    Blend: AUG-CC-PVTZ
  Basis Set: (AUG-CC-PVTZ AUX)
    Blend: AUG-CC-PVTZ-JKFIT
	 Reference Energy          =    -631.7232176637234033 [Eh]
	 Singles Energy            =      -0.0000000000000000 [Eh]
	 Same-Spin Energy          =      -0.6895075397810138 [Eh]
	 Opposite-Spin Energy      =      -2.2135286920752555 [Eh]
	 Correlation Energy        =      -2.9030362318562695 [Eh]
	 Total Energy              =    -634.6262538955796799 [Eh]

	 ================> DF-SCS-MP2 Energies <==================
	-----------------------------------------------------------
	 SCS Same-Spin Scale       =       0.3333333333333333 [-]
	 SCS Opposite-Spin Scale   =       1.2000000000000000 [-]
	 SCS Same-Spin Energy      =      -0.2298358465936712 [Eh]
	 SCS Opposite-Spin Energy  =      -2.6562344304903065 [Eh]
	 SCS Correlation Energy    =      -2.8860702770839777 [Eh]
	 SCS Total Energy          =    -634.6092879408073486 [Eh]
	-----------------------------------------------------------

  Dipole Moment: [D]
     X:     1.4326      Y:    -2.5014      Z:     2.2757     Total:     3.6726

*** Psi4 exiting successfully. Buy a developer a beer!
