                               Psi4 1.4a3.dev225

  ==> Input File <==

--------------------------------------------------------------------------
#psi4
#
memory 32 gb

molecule  {
0 1
  O        0.0109280     1.9504830    -1.2088660
  N        1.2104930     0.4628600     0.0596820
  C        3.6816010    -0.9509880     0.4072830
  C        3.5342200     0.1692850    -0.6230390
  C        2.3335540    -1.6180450     0.6838790
  C        2.4642000     1.1676880    -0.1911000
  C        1.2914730    -0.5760260     1.0805660
  C        0.0527250     0.9288280    -0.5097470
  C       -1.1808260     0.1020470    -0.2945890
  C       -2.2823960     0.6556420     0.3835130
  C       -1.2680971    -1.2626373    -0.9116760
  C       -3.4454200    -0.1153760     0.4879690
  C       -2.2065840     2.0368470     0.9809810
  C       -2.4366510    -1.9182050    -0.7675160
  C       -3.5304630    -1.3875060    -0.0828830
  H        4.4130950    -1.6928310     0.0671840
  H        4.0710030    -0.5292960     1.3442740
  H        4.4878230     0.6919580    -0.7653020
  H        3.2457620    -0.2529490    -1.5933530
  H        1.9831950    -2.1398170    -0.2152240
  H        2.4267450    -2.3652010     1.4815110
  H        2.7768740     1.6847790     0.7291870
  H        2.2671880     1.9220510    -0.9540200
  H        0.3069530    -1.0243470     1.2170770
  H        1.5834140    -0.1085280     2.0346680
  H       -0.4031770    -1.5700500    -1.4080150
  H       -4.3043690     0.2928860     1.0181070
  H       -2.0253310     2.7815300     0.2022010
  H       -3.1368610     2.2826280     1.5002420
  H       -1.3844770     2.1136550     1.7007310
  H       -2.4977120    -2.9041740    -1.2220500
  H       -4.4499260    -1.9612690     0.0072960
units angstrom
no_reorient  #important for SAPT in psi4, default
symmetry c1  #important for SAPT in psi4, default
}

set PROPERTIES_ORIGIN ["COM"]
properties('MP2/aug-cc-pvtz', properties = ['dipole'])
--------------------------------------------------------------------------

    Molecular point group: c1
  Charge       = 0
  Multiplicity = 1
  Basis Set: AUG-CC-PVTZ
    Blend: AUG-CC-PVTZ
  Basis Set: (AUG-CC-PVTZ AUX)
    Blend: AUG-CC-PVTZ-JKFIT

    Orbital Energies [Eh]
    ---------------------

    Doubly Occupied:

       1A    -20.510369     2A    -15.583662     3A    -11.349209
       4A    -11.266939     5A    -11.254513     6A    -11.252968
       7A    -11.251008     8A    -11.246844     9A    -11.243106
      10A    -11.239251    11A    -11.235647    12A    -11.230752
      13A    -11.228368    14A    -11.225709    15A    -11.220158
      16A     -1.366421    17A     -1.249282    18A     -1.157040
      19A     -1.083501    20A     -1.056105    21A     -1.034913
      22A     -1.017571    23A     -0.946239    24A     -0.916623
      25A     -0.868296    26A     -0.848221    27A     -0.814899
      28A     -0.788606    29A     -0.740811    30A     -0.710017
      31A     -0.674327    32A     -0.652471    33A     -0.648541
      34A     -0.629159    35A     -0.618180    36A     -0.615560
      37A     -0.594641    38A     -0.588114    39A     -0.578416
      40A     -0.571031    41A     -0.559821    42A     -0.548311
      43A     -0.542491    44A     -0.524632    45A     -0.511743
      46A     -0.501439    47A     -0.490203    48A     -0.484609
      49A     -0.475829    50A     -0.469255    51A     -0.461546
      52A     -0.415976    53A     -0.366084    54A     -0.342394
      55A     -0.325523

  @DF-RHF Final Energy:  -631.71864180045895

   => Energetics <=

    Nuclear Repulsion Energy =            998.3325306978468916
    One-Electron Energy =               -2839.8476656103271125
    Two-Electron Energy =                1209.7964931120213805
    Total Energy =                       -631.7186418004589541
  Basis Set: (AUG-CC-PVTZ AUX)
    Blend: AUG-CC-PVTZ-RI
    Molecular point group: c1

    Geometry (in Angstrom), charge = 0, multiplicity = 1:

       Center              X                  Y                   Z               Mass
    ------------   -----------------  -----------------  -----------------  -----------------
         O            0.056972720898     1.942324739562    -1.181339356525    15.994914619570
         N            1.256537720898     0.454701739562     0.087208643475    14.003074004430
         C            3.727645720898    -0.959146260438     0.434809643475    12.000000000000
         C            3.580264720898     0.161126739562    -0.595512356525    12.000000000000
         C            2.379598720898    -1.626203260438     0.711405643475    12.000000000000
         C            2.510244720898     1.159529739562    -0.163573356525    12.000000000000
         C            1.337517720898    -0.584184260438     1.108092643475    12.000000000000
         C            0.098769720898     0.920669739562    -0.482220356525    12.000000000000
         C           -1.134781279102     0.093888739562    -0.267062356525    12.000000000000
         C           -2.236351279102     0.647483739562     0.411039643475    12.000000000000
         C           -1.222052379102    -1.270795560438    -0.884149356525    12.000000000000
         C           -3.399375279102    -0.123534260438     0.515495643475    12.000000000000
         C           -2.160539279102     2.028688739562     1.008507643475    12.000000000000
         C           -2.390606279102    -1.926363260438    -0.739989356525    12.000000000000
         C           -3.484418279102    -1.395664260438    -0.055356356525    12.000000000000
         H            4.459139720898    -1.700989260438     0.094710643475     1.007825032230
         H            4.117047720898    -0.537454260438     1.371800643475     1.007825032230
         H            4.533867720898     0.683799739562    -0.737775356525     1.007825032230
         H            3.291806720898    -0.261107260438    -1.565826356525     1.007825032230
         H            2.029239720898    -2.147975260438    -0.187697356525     1.007825032230
         H            2.472789720898    -2.373359260438     1.509037643475     1.007825032230
         H            2.822918720898     1.676620739562     0.756713643475     1.007825032230
         H            2.313232720898     1.913892739562    -0.926493356525     1.007825032230
         H            0.352997720898    -1.032505260438     1.244603643475     1.007825032230
         H            1.629458720898    -0.116686260438     2.062194643475     1.007825032230
         H           -0.357132279102    -1.578208260438    -1.380488356525     1.007825032230
         H           -4.258324279102     0.284727739562     1.045633643475     1.007825032230
         H           -1.979286279102     2.773371739562     0.229727643475     1.007825032230
         H           -3.090816279102     2.274469739562     1.527768643475     1.007825032230
         H           -1.338432279102     2.105496739562     1.728257643475     1.007825032230
         H           -2.451667279102    -2.912332260438    -1.194523356525     1.007825032230
         H           -4.403881279102    -1.969427260438     0.034822643475     1.007825032230

  Basis Set: AUG-CC-PVTZ
    Blend: AUG-CC-PVTZ
  Basis Set: (AUG-CC-PVTZ AUX)
    Blend: AUG-CC-PVTZ-JKFIT
	 Reference Energy          =    -631.7186418004589541 [Eh]
	 Singles Energy            =      -0.0000000000000000 [Eh]
	 Same-Spin Energy          =      -0.6890426606218728 [Eh]
	 Opposite-Spin Energy      =      -2.2131749252037438 [Eh]
	 Correlation Energy        =      -2.9022175858256167 [Eh]
	 Total Energy              =    -634.6208593862845646 [Eh]

	 ================> DF-SCS-MP2 Energies <==================
	-----------------------------------------------------------
	 SCS Same-Spin Scale       =       0.3333333333333333 [-]
	 SCS Opposite-Spin Scale   =       1.2000000000000000 [-]
	 SCS Same-Spin Energy      =      -0.2296808868739576 [Eh]
	 SCS Opposite-Spin Energy  =      -2.6558099102444923 [Eh]
	 SCS Correlation Energy    =      -2.8854907971184498 [Eh]
	 SCS Total Energy          =    -634.6041325975774043 [Eh]
	-----------------------------------------------------------

  Dipole Moment: [D]
     X:     1.4062      Y:    -2.5092      Z:     2.3076     Total:     3.6876

*** Psi4 exiting successfully. Buy a developer a beer!
