                               Psi4 1.4a3.dev225

  ==> Input File <==

--------------------------------------------------------------------------
#psi4
#
memory 32 gb

molecule  {
0 1
  O        0.0109280     1.9504830    -1.2088660
  N        1.2104930     0.4628600     0.0596820
  C        3.6816010    -0.9509880     0.4072830
  C        3.5342200     0.1692850    -0.6230390
  C        2.3335540    -1.6180450     0.6838790
  C        2.4642000     1.1676880    -0.1911000
  C        1.2914730    -0.5760260     1.0805660
  C        0.0527250     0.9288280    -0.5097470
  C       -1.1808260     0.1020470    -0.2945890
  C       -2.2823960     0.6556420     0.3835130
  C       -1.2622800    -1.1716740    -0.8705440
  C       -3.4454200    -0.1153760     0.4879690
  C       -2.2065840     2.0368470     0.9809810
  C       -2.4366510    -1.9182050    -0.7675160
  C       -3.5304630    -1.3875060    -0.0828830
  H        4.4130950    -1.6928310     0.0671840
  H        4.0710030    -0.5292960     1.3442740
  H        4.4878230     0.6919580    -0.7653020
  H        3.2457620    -0.2529490    -1.5933530
  H        1.9829838    -2.1725375    -0.1953378
  H        2.4267450    -2.3652010     1.4815110
  H        2.7768740     1.6847790     0.7291870
  H        2.2671880     1.9220510    -0.9540200
  H        0.3069530    -1.0243470     1.2170770
  H        1.5834140    -0.1085280     2.0346680
  H       -0.4031770    -1.5700500    -1.4080150
  H       -4.3043690     0.2928860     1.0181070
  H       -2.0253310     2.7815300     0.2022010
  H       -3.1368610     2.2826280     1.5002420
  H       -1.3844770     2.1136550     1.7007310
  H       -2.4977120    -2.9041740    -1.2220500
  H       -4.4499260    -1.9612690     0.0072960
units angstrom
no_reorient  #important for SAPT in psi4, default
symmetry c1  #important for SAPT in psi4, default
}

set PROPERTIES_ORIGIN ["COM"]
properties('MP2/aug-cc-pvtz', properties = ['dipole'])
--------------------------------------------------------------------------

    Molecular point group: c1
  Charge       = 0
  Multiplicity = 1
  Basis Set: AUG-CC-PVTZ
    Blend: AUG-CC-PVTZ
  Basis Set: (AUG-CC-PVTZ AUX)
    Blend: AUG-CC-PVTZ-JKFIT

    Orbital Energies [Eh]
    ---------------------

    Doubly Occupied:

       1A    -20.510738     2A    -15.583848     3A    -11.349415
       4A    -11.267282     5A    -11.254610     6A    -11.251829
       7A    -11.246307     8A    -11.244985     9A    -11.242631
      10A    -11.239120    11A    -11.236959    12A    -11.230539
      13A    -11.228533    14A    -11.225627    15A    -11.220326
      16A     -1.366952    17A     -1.249523    18A     -1.161407
      19A     -1.083438    20A     -1.050780    21A     -1.037240
      22A     -1.023161    23A     -0.943154    24A     -0.918810
      25A     -0.867640    26A     -0.844281    27A     -0.815364
      28A     -0.791155    29A     -0.742440    30A     -0.712244
      31A     -0.666778    32A     -0.652815    33A     -0.648603
      34A     -0.627743    35A     -0.620098    36A     -0.615590
      37A     -0.595911    38A     -0.587951    39A     -0.575666
      40A     -0.571656    41A     -0.560369    42A     -0.547212
      43A     -0.541566    44A     -0.524837    45A     -0.508130
      46A     -0.501996    47A     -0.491405    48A     -0.489445
      49A     -0.478556    50A     -0.469731    51A     -0.461424
      52A     -0.416893    53A     -0.366205    54A     -0.339972
      55A     -0.329984

  @DF-RHF Final Energy:  -631.73059638989287

   => Energetics <=

    Nuclear Repulsion Energy =            999.8880580950016110
    One-Electron Energy =               -2842.9755601145384389
    Two-Electron Energy =                1211.3569056296437338
    Total Energy =                       -631.7305963898929804
  Basis Set: (AUG-CC-PVTZ AUX)
    Blend: AUG-CC-PVTZ-RI
    Molecular point group: c1

    Geometry (in Angstrom), charge = 0, multiplicity = 1:

       Center              X                  Y                   Z               Mass
    ------------   -----------------  -----------------  -----------------  -----------------
         O            0.056630122563     1.937113408021    -1.183867901032    15.994914619570
         N            1.256195122563     0.449490408021     0.084680098968    14.003074004430
         C            3.727303122563    -0.964357591979     0.432281098968    12.000000000000
         C            3.579922122563     0.155915408021    -0.598040901032    12.000000000000
         C            2.379256122563    -1.631414591979     0.708877098968    12.000000000000
         C            2.509902122563     1.154318408021    -0.166101901032    12.000000000000
         C            1.337175122563    -0.589395591979     1.105564098968    12.000000000000
         C            0.098427122563     0.915458408021    -0.484748901032    12.000000000000
         C           -1.135123877437     0.088677408021    -0.269590901032    12.000000000000
         C           -2.236693877437     0.642272408021     0.408511098968    12.000000000000
         C           -1.216577877437    -1.185043591979    -0.845545901032    12.000000000000
         C           -3.399717877437    -0.128745591979     0.512967098968    12.000000000000
         C           -2.160881877437     2.023477408021     1.005979098968    12.000000000000
         C           -2.390948877437    -1.931574591979    -0.742517901032    12.000000000000
         C           -3.484760877437    -1.400875591979    -0.057884901032    12.000000000000
         H            4.458797122563    -1.706200591979     0.092182098968     1.007825032230
         H            4.116705122563    -0.542665591979     1.369272098968     1.007825032230
         H            4.533525122563     0.678588408021    -0.740303901032     1.007825032230
         H            3.291464122563    -0.266318591979    -1.568354901032     1.007825032230
         H            2.028685922563    -2.185907091979    -0.170339701032     1.007825032230
         H            2.472447122563    -2.378570591979     1.506509098968     1.007825032230
         H            2.822576122563     1.671409408021     0.754185098968     1.007825032230
         H            2.312890122563     1.908681408021    -0.929021901032     1.007825032230
         H            0.352655122563    -1.037716591979     1.242075098968     1.007825032230
         H            1.629116122563    -0.121897591979     2.059666098968     1.007825032230
         H           -0.357474877437    -1.583419591979    -1.383016901032     1.007825032230
         H           -4.258666877437     0.279516408021     1.043105098968     1.007825032230
         H           -1.979628877437     2.768160408021     0.227199098968     1.007825032230
         H           -3.091158877437     2.269258408021     1.525240098968     1.007825032230
         H           -1.338774877437     2.100285408021     1.725729098968     1.007825032230
         H           -2.452009877437    -2.917543591979    -1.197051901032     1.007825032230
         H           -4.404223877437    -1.974638591979     0.032294098968     1.007825032230

  Basis Set: AUG-CC-PVTZ
    Blend: AUG-CC-PVTZ
  Basis Set: (AUG-CC-PVTZ AUX)
    Blend: AUG-CC-PVTZ-JKFIT
	 Reference Energy          =    -631.7305963898928667 [Eh]
	 Singles Energy            =      -0.0000000000000000 [Eh]
	 Same-Spin Energy          =      -0.6889865291847417 [Eh]
	 Opposite-Spin Energy      =      -2.2121993071956538 [Eh]
	 Correlation Energy        =      -2.9011858363803955 [Eh]
	 Total Energy              =    -634.6317822262732307 [Eh]

	 ================> DF-SCS-MP2 Energies <==================
	-----------------------------------------------------------
	 SCS Same-Spin Scale       =       0.3333333333333333 [-]
	 SCS Opposite-Spin Scale   =       1.2000000000000000 [-]
	 SCS Same-Spin Energy      =      -0.2296621763949139 [Eh]
	 SCS Opposite-Spin Energy  =      -2.6546391686347843 [Eh]
	 SCS Correlation Energy    =      -2.8843013450296984 [Eh]
	 SCS Total Energy          =    -634.6148977349225788 [Eh]
	-----------------------------------------------------------

  Dipole Moment: [D]
     X:     1.4063      Y:    -2.5302      Z:     2.3050     Total:     3.7003

*** Psi4 exiting successfully. Buy a developer a beer!
