                               Psi4 1.4a3.dev225

  ==> Input File <==

--------------------------------------------------------------------------
#psi4
#
memory 32 gb

molecule  {
0 1
  O        0.0109280     1.9504830    -1.2088660
  N        1.2104930     0.4628600     0.0596820
  C        3.6816010    -0.9509880     0.4072830
  C        3.5342200     0.1692850    -0.6230390
  C        2.3335540    -1.6180450     0.6838790
  C        2.4642000     1.1676880    -0.1911000
  C        1.2914730    -0.5760260     1.0805660
  C        0.0527250     0.9288280    -0.5097470
  C       -1.1808260     0.1020470    -0.2945890
  C       -2.2823960     0.6556420     0.3835130
  C       -1.2622800    -1.1716740    -0.8705440
  C       -3.4454200    -0.1153760     0.4879690
  C       -2.2065840     2.0368470     0.9809810
  C       -2.4366510    -1.9182050    -0.7675160
  C       -3.5304630    -1.3875060    -0.0828830
  H        4.4130950    -1.6928310     0.0671840
  H        4.0710030    -0.5292960     1.3442740
  H        4.4878230     0.6919580    -0.7653020
  H        3.2457620    -0.2529490    -1.5933530
  H        1.9831950    -2.1398170    -0.2152240
  H        2.4267450    -2.3652010     1.4815110
  H        2.7768740     1.6847790     0.7291870
  H        2.2671880     1.9220510    -0.9540200
  H        0.3069530    -1.0243470     1.2170770
  H        1.5834140    -0.1085280     2.0346680
  H       -0.4031770    -1.5700500    -1.4080150
  H       -4.3043690     0.2928860     1.0181070
  H       -2.1219411     2.7449401     0.1531263
  H       -3.1368610     2.2826280     1.5002420
  H       -1.3844770     2.1136550     1.7007310
  H       -2.4977120    -2.9041740    -1.2220500
  H       -4.4499260    -1.9612690     0.0072960
units angstrom
no_reorient  #important for SAPT in psi4, default
symmetry c1  #important for SAPT in psi4, default
}

set PROPERTIES_ORIGIN ["COM"]
properties('MP2/aug-cc-pvtz', properties = ['dipole'])
--------------------------------------------------------------------------

    Molecular point group: c1
  Charge       = 0
  Multiplicity = 1
  Basis Set: AUG-CC-PVTZ
    Blend: AUG-CC-PVTZ
  Basis Set: (AUG-CC-PVTZ AUX)
    Blend: AUG-CC-PVTZ-JKFIT

    Orbital Energies [Eh]
    ---------------------

    Doubly Occupied:

       1A    -20.510489     2A    -15.583667     3A    -11.349154
       4A    -11.266986     5A    -11.254456     6A    -11.251306
       7A    -11.246174     8A    -11.244770     9A    -11.242446
      10A    -11.238882    11A    -11.236537    12A    -11.230549
      13A    -11.228227    14A    -11.225552    15A    -11.220735
      16A     -1.366647    17A     -1.249374    18A     -1.161322
      19A     -1.083478    20A     -1.051098    21A     -1.037179
      22A     -1.023016    23A     -0.943207    24A     -0.918614
      25A     -0.867248    26A     -0.843863    27A     -0.815018
      28A     -0.790579    29A     -0.742411    30A     -0.712027
      31A     -0.666238    32A     -0.652612    33A     -0.647739
      34A     -0.627637    35A     -0.620260    36A     -0.614871
      37A     -0.596641    38A     -0.589021    39A     -0.580742
      40A     -0.572854    41A     -0.560108    42A     -0.547602
      43A     -0.537897    44A     -0.524362    45A     -0.506399
      46A     -0.501807    47A     -0.491965    48A     -0.488674
      49A     -0.478109    50A     -0.469508    51A     -0.461420
      52A     -0.416470    53A     -0.366019    54A     -0.339815
      55A     -0.330091

  @DF-RHF Final Energy:  -631.72947023289339

   => Energetics <=

    Nuclear Repulsion Energy =            999.9597747086683057
    One-Electron Energy =               -2843.1307461940759822
    Two-Electron Energy =                1211.4415012525143993
    Total Energy =                       -631.7294702328933909
  Basis Set: (AUG-CC-PVTZ AUX)
    Blend: AUG-CC-PVTZ-RI
    Molecular point group: c1

    Geometry (in Angstrom), charge = 0, multiplicity = 1:

       Center              X                  Y                   Z               Mass
    ------------   -----------------  -----------------  -----------------  -----------------
         O            0.057108401199     1.937132605869    -1.183525754750    15.994914619570
         N            1.256673401199     0.449509605869     0.085022245250    14.003074004430
         C            3.727781401199    -0.964338394131     0.432623245250    12.000000000000
         C            3.580400401199     0.155934605869    -0.597698754750    12.000000000000
         C            2.379734401199    -1.631395394131     0.709219245250    12.000000000000
         C            2.510380401199     1.154337605869    -0.165759754750    12.000000000000
         C            1.337653401199    -0.589376394131     1.105906245250    12.000000000000
         C            0.098905401199     0.915477605869    -0.484406754750    12.000000000000
         C           -1.134645598801     0.088696605869    -0.269248754750    12.000000000000
         C           -2.236215598801     0.642291605869     0.408853245250    12.000000000000
         C           -1.216099598801    -1.185024394131    -0.845203754750    12.000000000000
         C           -3.399239598801    -0.128726394131     0.513309245250    12.000000000000
         C           -2.160403598801     2.023496605869     1.006321245250    12.000000000000
         C           -2.390470598801    -1.931555394131    -0.742175754750    12.000000000000
         C           -3.484282598801    -1.400856394131    -0.057542754750    12.000000000000
         H            4.459275401199    -1.706181394131     0.092524245250     1.007825032230
         H            4.117183401199    -0.542646394131     1.369614245250     1.007825032230
         H            4.534003401199     0.678607605869    -0.739961754750     1.007825032230
         H            3.291942401199    -0.266299394131    -1.568012754750     1.007825032230
         H            2.029375401199    -2.153167394131    -0.189883754750     1.007825032230
         H            2.472925401199    -2.378551394131     1.506851245250     1.007825032230
         H            2.823054401199     1.671428605869     0.754527245250     1.007825032230
         H            2.313368401199     1.908700605869    -0.928679754750     1.007825032230
         H            0.353133401199    -1.037697394131     1.242417245250     1.007825032230
         H            1.629594401199    -0.121878394131     2.060008245250     1.007825032230
         H           -0.356996598801    -1.583400394131    -1.382674754750     1.007825032230
         H           -4.258188598801     0.279535605869     1.043447245250     1.007825032230
         H           -2.075760698801     2.731589705869     0.178466545250     1.007825032230
         H           -3.090680598801     2.269277605869     1.525582245250     1.007825032230
         H           -1.338296598801     2.100304605869     1.726071245250     1.007825032230
         H           -2.451531598801    -2.917524394131    -1.196709754750     1.007825032230
         H           -4.403745598801    -1.974619394131     0.032636245250     1.007825032230

  Basis Set: AUG-CC-PVTZ
    Blend: AUG-CC-PVTZ
  Basis Set: (AUG-CC-PVTZ AUX)
    Blend: AUG-CC-PVTZ-JKFIT
	 Reference Energy          =    -631.7294702328933909 [Eh]
	 Singles Energy            =      -0.0000000000000000 [Eh]
	 Same-Spin Energy          =      -0.6890424320924088 [Eh]
	 Opposite-Spin Energy      =      -2.2123897144967772 [Eh]
	 Correlation Energy        =      -2.9014321465891859 [Eh]
	 Total Energy              =    -634.6309023794825634 [Eh]

	 ================> DF-SCS-MP2 Energies <==================
	-----------------------------------------------------------
	 SCS Same-Spin Scale       =       0.3333333333333333 [-]
	 SCS Opposite-Spin Scale   =       1.2000000000000000 [-]
	 SCS Same-Spin Energy      =      -0.2296808106974696 [Eh]
	 SCS Opposite-Spin Energy  =      -2.6548676573961325 [Eh]
	 SCS Correlation Energy    =      -2.8845484680936022 [Eh]
	 SCS Total Energy          =    -634.6140187009870033 [Eh]
	-----------------------------------------------------------

  Dipole Moment: [D]
     X:     1.3611      Y:    -2.5145      Z:     2.3022     Total:     3.6709

*** Psi4 exiting successfully. Buy a developer a beer!
