                               Psi4 1.4a3.dev225

  ==> Input File <==

--------------------------------------------------------------------------
#psi4
#
memory 32 gb

molecule  {
0 1
  O        0.0109280     1.9504830    -1.2088660
  N        1.2104930     0.4628600     0.0596820
  C        3.6816010    -0.9509880     0.4072830
  C        3.5342200     0.1692850    -0.6230390
  C        2.3335540    -1.6180450     0.6838790
  C        2.4642000     1.1676880    -0.1911000
  C        1.2914730    -0.5760260     1.0805660
  C        0.0527250     0.9288280    -0.5097470
  C       -1.1808260     0.1020470    -0.2945890
  C       -2.2823960     0.6556420     0.3835130
  C       -1.2622800    -1.1716740    -0.8705440
  C       -3.4454200    -0.1153760     0.4879690
  C       -2.2065840     2.0368470     0.9809810
  C       -2.4366510    -1.9182050    -0.7675160
  C       -3.5304630    -1.3875060    -0.0828830
  H        4.4130950    -1.6928310     0.0671840
  H        4.0710030    -0.5292960     1.3442740
  H        4.4878230     0.6919580    -0.7653020
  H        3.2457620    -0.2529490    -1.5933530
  H        1.9830360    -2.1562592    -0.2054164
  H        2.4267450    -2.3652010     1.4815110
  H        2.7768740     1.6847790     0.7291870
  H        2.2671880     1.9220510    -0.9540200
  H        0.3069530    -1.0243470     1.2170770
  H        1.5834140    -0.1085280     2.0346680
  H       -0.4031770    -1.5700500    -1.4080150
  H       -4.3043690     0.2928860     1.0181070
  H       -2.0253310     2.7815300     0.2022010
  H       -3.1368610     2.2826280     1.5002420
  H       -1.3844770     2.1136550     1.7007310
  H       -2.4977120    -2.9041740    -1.2220500
  H       -4.4499260    -1.9612690     0.0072960
units angstrom
no_reorient  #important for SAPT in psi4, default
symmetry c1  #important for SAPT in psi4, default
}

set PROPERTIES_ORIGIN ["COM"]
properties('MP2/aug-cc-pvtz', properties = ['dipole'])
--------------------------------------------------------------------------

    Molecular point group: c1
  Charge       = 0
  Multiplicity = 1
  Basis Set: AUG-CC-PVTZ
    Blend: AUG-CC-PVTZ
  Basis Set: (AUG-CC-PVTZ AUX)
    Blend: AUG-CC-PVTZ-JKFIT

    Orbital Energies [Eh]
    ---------------------

    Doubly Occupied:

       1A    -20.510764     2A    -15.583877     3A    -11.349439
       4A    -11.267177     5A    -11.254623     6A    -11.251838
       7A    -11.246325     8A    -11.245001     9A    -11.242639
      10A    -11.239130    11A    -11.236968    12A    -11.230587
      13A    -11.228427    14A    -11.225653    15A    -11.220332
      16A     -1.366977    17A     -1.249558    18A     -1.161418
      19A     -1.083522    20A     -1.050790    21A     -1.037268
      22A     -1.023172    23A     -0.943161    24A     -0.918812
      25A     -0.867537    26A     -0.844197    27A     -0.815331
      28A     -0.791078    29A     -0.742563    30A     -0.712305
      31A     -0.666775    32A     -0.652856    33A     -0.648471
      34A     -0.627795    35A     -0.620255    36A     -0.615447
      37A     -0.596134    38A     -0.588013    39A     -0.575662
      40A     -0.571729    41A     -0.560310    42A     -0.547334
      43A     -0.541588    44A     -0.524823    45A     -0.508098
      46A     -0.502027    47A     -0.491460    48A     -0.489402
      49A     -0.478544    50A     -0.469673    51A     -0.461515
      52A     -0.416914    53A     -0.366217    54A     -0.339984
      55A     -0.329992

  @DF-RHF Final Energy:  -631.73067852227155

   => Energetics <=

    Nuclear Repulsion Energy =            999.9294770389375344
    One-Electron Energy =               -2843.0573391563643781
    Two-Electron Energy =                1211.3971835951554112
    Total Energy =                       -631.7306785222715462
  Basis Set: (AUG-CC-PVTZ AUX)
    Blend: AUG-CC-PVTZ-RI
    Molecular point group: c1

    Geometry (in Angstrom), charge = 0, multiplicity = 1:

       Center              X                  Y                   Z               Mass
    ------------   -----------------  -----------------  -----------------  -----------------
         O            0.056629863575     1.937032643997    -1.183817896529    15.994914619570
         N            1.256194863575     0.449409643997     0.084730103471    14.003074004430
         C            3.727302863575    -0.964438356003     0.432331103471    12.000000000000
         C            3.579921863575     0.155834643997    -0.597990896529    12.000000000000
         C            2.379255863575    -1.631495356003     0.708927103471    12.000000000000
         C            2.509901863575     1.154237643997    -0.166051896529    12.000000000000
         C            1.337174863575    -0.589476356003     1.105614103471    12.000000000000
         C            0.098426863575     0.915377643997    -0.484698896529    12.000000000000
         C           -1.135124136425     0.088596643997    -0.269540896529    12.000000000000
         C           -2.236694136425     0.642191643997     0.408561103471    12.000000000000
         C           -1.216578136425    -1.185124356003    -0.845495896529    12.000000000000
         C           -3.399718136425    -0.128826356003     0.513017103471    12.000000000000
         C           -2.160882136425     2.023396643997     1.006029103471    12.000000000000
         C           -2.390949136425    -1.931655356003    -0.742467896529    12.000000000000
         C           -3.484761136425    -1.400956356003    -0.057834896529    12.000000000000
         H            4.458796863575    -1.706281356003     0.092232103471     1.007825032230
         H            4.116704863575    -0.542746356003     1.369322103471     1.007825032230
         H            4.533524863575     0.678507643997    -0.740253896529     1.007825032230
         H            3.291463863575    -0.266399356003    -1.568304896529     1.007825032230
         H            2.028737863575    -2.169709556003    -0.180368296529     1.007825032230
         H            2.472446863575    -2.378651356003     1.506559103471     1.007825032230
         H            2.822575863575     1.671328643997     0.754235103471     1.007825032230
         H            2.312889863575     1.908600643997    -0.928971896529     1.007825032230
         H            0.352654863575    -1.037797356003     1.242125103471     1.007825032230
         H            1.629115863575    -0.121978356003     2.059716103471     1.007825032230
         H           -0.357475136425    -1.583500356003    -1.382966896529     1.007825032230
         H           -4.258667136425     0.279435643997     1.043155103471     1.007825032230
         H           -1.979629136425     2.768079643997     0.227249103471     1.007825032230
         H           -3.091159136425     2.269177643997     1.525290103471     1.007825032230
         H           -1.338775136425     2.100204643997     1.725779103471     1.007825032230
         H           -2.452010136425    -2.917624356003    -1.197001896529     1.007825032230
         H           -4.404224136425    -1.974719356003     0.032344103471     1.007825032230

  Basis Set: AUG-CC-PVTZ
    Blend: AUG-CC-PVTZ
  Basis Set: (AUG-CC-PVTZ AUX)
    Blend: AUG-CC-PVTZ-JKFIT
	 Reference Energy          =    -631.7306785222715462 [Eh]
	 Singles Energy            =      -0.0000000000000000 [Eh]
	 Same-Spin Energy          =      -0.6890001347161506 [Eh]
	 Opposite-Spin Energy      =      -2.2122291182704887 [Eh]
	 Correlation Energy        =      -2.9012292529866395 [Eh]
	 Total Energy              =    -634.6319077752582416 [Eh]

	 ================> DF-SCS-MP2 Energies <==================
	-----------------------------------------------------------
	 SCS Same-Spin Scale       =       0.3333333333333333 [-]
	 SCS Opposite-Spin Scale   =       1.2000000000000000 [-]
	 SCS Same-Spin Energy      =      -0.2296667115720502 [Eh]
	 SCS Opposite-Spin Energy  =      -2.6546749419245863 [Eh]
	 SCS Correlation Energy    =      -2.8843416534966364 [Eh]
	 SCS Total Energy          =    -634.6150201757682225 [Eh]
	-----------------------------------------------------------

  Dipole Moment: [D]
     X:     1.4054      Y:    -2.5250      Z:     2.3044     Total:     3.6961

*** Psi4 exiting successfully. Buy a developer a beer!
