                               Psi4 1.4a3.dev225

  ==> Input File <==

--------------------------------------------------------------------------
#psi4
#
memory 32 gb

molecule  {
0 1
  O        0.0109280     1.9504830    -1.2088660
  N        1.2104930     0.4628600     0.0596820
  C        3.6816010    -0.9509880     0.4072830
  C        3.5342200     0.1692850    -0.6230390
  C        2.3335540    -1.6180450     0.6838790
  C        2.4642000     1.1676880    -0.1911000
  C        1.2914730    -0.5760260     1.0805660
  C        0.0527250     0.9288280    -0.5097470
  C       -1.1808260     0.1020470    -0.2945890
  C       -2.3215411     0.6753144     0.4076098
  C       -1.2622800    -1.1716740    -0.8705440
  C       -3.4454200    -0.1153760     0.4879690
  C       -2.2065840     2.0368470     0.9809810
  C       -2.4366510    -1.9182050    -0.7675160
  C       -3.5304630    -1.3875060    -0.0828830
  H        4.4130950    -1.6928310     0.0671840
  H        4.0710030    -0.5292960     1.3442740
  H        4.4878230     0.6919580    -0.7653020
  H        3.2457620    -0.2529490    -1.5933530
  H        1.9831950    -2.1398170    -0.2152240
  H        2.4267450    -2.3652010     1.4815110
  H        2.7768740     1.6847790     0.7291870
  H        2.2671880     1.9220510    -0.9540200
  H        0.3069530    -1.0243470     1.2170770
  H        1.5834140    -0.1085280     2.0346680
  H       -0.4031770    -1.5700500    -1.4080150
  H       -4.3043690     0.2928860     1.0181070
  H       -2.0253310     2.7815300     0.2022010
  H       -3.1368610     2.2826280     1.5002420
  H       -1.3844770     2.1136550     1.7007310
  H       -2.4977120    -2.9041740    -1.2220500
  H       -4.4499260    -1.9612690     0.0072960
units angstrom
no_reorient  #important for SAPT in psi4, default
symmetry c1  #important for SAPT in psi4, default
}

set PROPERTIES_ORIGIN ["COM"]
properties('MP2/aug-cc-pvtz', properties = ['dipole'])
--------------------------------------------------------------------------

    Molecular point group: c1
  Charge       = 0
  Multiplicity = 1
  Basis Set: AUG-CC-PVTZ
    Blend: AUG-CC-PVTZ
  Basis Set: (AUG-CC-PVTZ AUX)
    Blend: AUG-CC-PVTZ-JKFIT

    Orbital Energies [Eh]
    ---------------------

    Doubly Occupied:

       1A    -20.510660     2A    -15.583848     3A    -11.349545
       4A    -11.266768     5A    -11.254598     6A    -11.253606
       7A    -11.249924     8A    -11.245666     9A    -11.242912
      10A    -11.239302    11A    -11.234453    12A    -11.230527
      13A    -11.228250    14A    -11.225632    15A    -11.219957
      16A     -1.366819    17A     -1.249471    18A     -1.159226
      19A     -1.083533    20A     -1.053316    21A     -1.037615
      22A     -1.022521    23A     -0.945715    24A     -0.918635
      25A     -0.867767    26A     -0.844505    27A     -0.809843
      28A     -0.792106    29A     -0.742443    30A     -0.711804
      31A     -0.667396    32A     -0.652037    33A     -0.648629
      34A     -0.627807    35A     -0.620218    36A     -0.614742
      37A     -0.595009    38A     -0.587834    39A     -0.579805
      40A     -0.573957    41A     -0.559762    42A     -0.547382
      43A     -0.541938    44A     -0.525043    45A     -0.513038
      46A     -0.502699    47A     -0.489585    48A     -0.484336
      49A     -0.477885    50A     -0.469547    51A     -0.461479
      52A     -0.417106    53A     -0.366148    54A     -0.342671
      55A     -0.325305

  @DF-RHF Final Energy:  -631.72696235036460

   => Energetics <=

    Nuclear Repulsion Energy =            999.3051768762671827
    One-Electron Energy =               -2841.7996322015787882
    Two-Electron Energy =                1210.7674929749471175
    Total Energy =                       -631.7269623503646017
  Basis Set: (AUG-CC-PVTZ AUX)
    Blend: AUG-CC-PVTZ-RI
    Molecular point group: c1

    Geometry (in Angstrom), charge = 0, multiplicity = 1:

       Center              X                  Y                   Z               Mass
    ------------   -----------------  -----------------  -----------------  -----------------
         O            0.058941578296     1.935788916338    -1.185192759232    15.994914619570
         N            1.258506578296     0.448165916338     0.083355240768    14.003074004430
         C            3.729614578296    -0.965682083662     0.430956240768    12.000000000000
         C            3.582233578296     0.154590916338    -0.599365759232    12.000000000000
         C            2.381567578296    -1.632739083662     0.707552240768    12.000000000000
         C            2.512213578296     1.152993916338    -0.167426759232    12.000000000000
         C            1.339486578296    -0.590720083662     1.104239240768    12.000000000000
         C            0.100738578296     0.914133916338    -0.486073759232    12.000000000000
         C           -1.132812421704     0.087352916338    -0.270915759232    12.000000000000
         C           -2.273527521704     0.660620316338     0.431283040768    12.000000000000
         C           -1.214266421704    -1.186368083662    -0.846870759232    12.000000000000
         C           -3.397406421704    -0.130070083662     0.511642240768    12.000000000000
         C           -2.158570421704     2.022152916338     1.004654240768    12.000000000000
         C           -2.388637421704    -1.932899083662    -0.743842759232    12.000000000000
         C           -3.482449421704    -1.402200083662    -0.059209759232    12.000000000000
         H            4.461108578296    -1.707525083662     0.090857240768     1.007825032230
         H            4.119016578296    -0.543990083662     1.367947240768     1.007825032230
         H            4.535836578296     0.677263916338    -0.741628759232     1.007825032230
         H            3.293775578296    -0.267643083662    -1.569679759232     1.007825032230
         H            2.031208578296    -2.154511083662    -0.191550759232     1.007825032230
         H            2.474758578296    -2.379895083662     1.505184240768     1.007825032230
         H            2.824887578296     1.670084916338     0.752860240768     1.007825032230
         H            2.315201578296     1.907356916338    -0.930346759232     1.007825032230
         H            0.354966578296    -1.039041083662     1.240750240768     1.007825032230
         H            1.631427578296    -0.123222083662     2.058341240768     1.007825032230
         H           -0.355163421704    -1.584744083662    -1.384341759232     1.007825032230
         H           -4.256355421704     0.278191916338     1.041780240768     1.007825032230
         H           -1.977317421704     2.766835916338     0.225874240768     1.007825032230
         H           -3.088847421704     2.267933916338     1.523915240768     1.007825032230
         H           -1.336463421704     2.098960916338     1.724404240768     1.007825032230
         H           -2.449698421704    -2.918868083662    -1.198376759232     1.007825032230
         H           -4.401912421704    -1.975963083662     0.030969240768     1.007825032230

  Basis Set: AUG-CC-PVTZ
    Blend: AUG-CC-PVTZ
  Basis Set: (AUG-CC-PVTZ AUX)
    Blend: AUG-CC-PVTZ-JKFIT
	 Reference Energy          =    -631.7269623503646017 [Eh]
	 Singles Energy            =      -0.0000000000000000 [Eh]
	 Same-Spin Energy          =      -0.6892777492723760 [Eh]
	 Opposite-Spin Energy      =      -2.2128093206488728 [Eh]
	 Correlation Energy        =      -2.9020870699212487 [Eh]
	 Total Energy              =    -634.6290494202858099 [Eh]

	 ================> DF-SCS-MP2 Energies <==================
	-----------------------------------------------------------
	 SCS Same-Spin Scale       =       0.3333333333333333 [-]
	 SCS Opposite-Spin Scale   =       1.2000000000000000 [-]
	 SCS Same-Spin Energy      =      -0.2297592497574587 [Eh]
	 SCS Opposite-Spin Energy  =      -2.6553711847786472 [Eh]
	 SCS Correlation Energy    =      -2.8851304345361060 [Eh]
	 SCS Total Energy          =    -634.6120927849007103 [Eh]
	-----------------------------------------------------------

  Dipole Moment: [D]
     X:     1.4164      Y:    -2.4878      Z:     2.3124     Total:     3.6800

*** Psi4 exiting successfully. Buy a developer a beer!
