                               Psi4 1.4a3.dev225

  ==> Input File <==

--------------------------------------------------------------------------
#psi4
#
memory 32 gb

molecule  {
0 1
  O        0.0109280     1.9504830    -1.2088660
  N        1.2104930     0.4628600     0.0596820
  C        3.6816010    -0.9509880     0.4072830
  C        3.5633965     0.1837404    -0.5808907
  C        2.3335540    -1.6180450     0.6838790
  C        2.4642000     1.1676880    -0.1911000
  C        1.2914730    -0.5760260     1.0805660
  C        0.0527250     0.9288280    -0.5097470
  C       -1.1808260     0.1020470    -0.2945890
  C       -2.2823960     0.6556420     0.3835130
  C       -1.2622800    -1.1716740    -0.8705440
  C       -3.4454200    -0.1153760     0.4879690
  C       -2.2065840     2.0368470     0.9809810
  C       -2.4366510    -1.9182050    -0.7675160
  C       -3.5304630    -1.3875060    -0.0828830
  H        4.4130950    -1.6928310     0.0671840
  H        4.0710030    -0.5292960     1.3442740
  H        4.4878230     0.6919580    -0.7653020
  H        3.2457620    -0.2529490    -1.5933530
  H        1.9831950    -2.1398170    -0.2152240
  H        2.4267450    -2.3652010     1.4815110
  H        2.7768740     1.6847790     0.7291870
  H        2.2671880     1.9220510    -0.9540200
  H        0.3069530    -1.0243470     1.2170770
  H        1.5834140    -0.1085280     2.0346680
  H       -0.4031770    -1.5700500    -1.4080150
  H       -4.3043690     0.2928860     1.0181070
  H       -2.0253310     2.7815300     0.2022010
  H       -3.1368610     2.2826280     1.5002420
  H       -1.3844770     2.1136550     1.7007310
  H       -2.4977120    -2.9041740    -1.2220500
  H       -4.4499260    -1.9612690     0.0072960
units angstrom
no_reorient  #important for SAPT in psi4, default
symmetry c1  #important for SAPT in psi4, default
}

set PROPERTIES_ORIGIN ["COM"]
properties('MP2/aug-cc-pvtz', properties = ['dipole'])
--------------------------------------------------------------------------

    Molecular point group: c1
  Charge       = 0
  Multiplicity = 1
  Basis Set: AUG-CC-PVTZ
    Blend: AUG-CC-PVTZ
  Basis Set: (AUG-CC-PVTZ AUX)
    Blend: AUG-CC-PVTZ-JKFIT

    Orbital Energies [Eh]
    ---------------------

    Doubly Occupied:

       1A    -20.511061     2A    -15.584599     3A    -11.349825
       4A    -11.267403     5A    -11.255077     6A    -11.251953
       7A    -11.246426     8A    -11.245124     9A    -11.242736
      10A    -11.239191    11A    -11.237039    12A    -11.231459
      13A    -11.228108    14A    -11.227173    15A    -11.220402
      16A     -1.367247    17A     -1.249802    18A     -1.161522
      19A     -1.085949    20A     -1.050901    21A     -1.037414
      22A     -1.023831    23A     -0.943562    24A     -0.919682
      25A     -0.868233    26A     -0.845027    27A     -0.815308
      28A     -0.789757    29A     -0.741463    30A     -0.712891
      31A     -0.667088    32A     -0.652750    33A     -0.648588
      34A     -0.629233    35A     -0.620330    36A     -0.615440
      37A     -0.596316    38A     -0.590010    39A     -0.575837
      40A     -0.571935    41A     -0.562193    42A     -0.550147
      43A     -0.541854    44A     -0.524860    45A     -0.507875
      46A     -0.499046    47A     -0.491578    48A     -0.489283
      49A     -0.475763    50A     -0.469065    51A     -0.461680
      52A     -0.417395    53A     -0.366293    54A     -0.340085
      55A     -0.330100

  @DF-RHF Final Energy:  -631.72755939287993

   => Energetics <=

    Nuclear Repulsion Energy =            999.8593667286608024
    One-Electron Energy =               -2842.8840235838274566
    Two-Electron Energy =                1211.2970974622865015
    Total Energy =                       -631.7275593928800390
  Basis Set: (AUG-CC-PVTZ AUX)
    Blend: AUG-CC-PVTZ-RI
    Molecular point group: c1

    Geometry (in Angstrom), charge = 0, multiplicity = 1:

       Center              X                  Y                   Z               Mass
    ------------   -----------------  -----------------  -----------------  -----------------
         O            0.054905467891     1.936097111520    -1.186259154735    15.994914619570
         N            1.254470467891     0.448474111520     0.082288845265    14.003074004430
         C            3.725578467891    -0.965373888480     0.429889845265    12.000000000000
         C            3.607373967891     0.169354511520    -0.558283854735    12.000000000000
         C            2.377531467891    -1.632430888480     0.706485845265    12.000000000000
         C            2.508177467891     1.153302111520    -0.168493154735    12.000000000000
         C            1.335450467891    -0.590411888480     1.103172845265    12.000000000000
         C            0.096702467891     0.914442111520    -0.487140154735    12.000000000000
         C           -1.136848532109     0.087661111520    -0.271982154735    12.000000000000
         C           -2.238418532109     0.641256111520     0.406119845265    12.000000000000
         C           -1.218302532109    -1.186059888480    -0.847937154735    12.000000000000
         C           -3.401442532109    -0.129761888480     0.510575845265    12.000000000000
         C           -2.162606532109     2.022461111520     1.003587845265    12.000000000000
         C           -2.392673532109    -1.932590888480    -0.744909154735    12.000000000000
         C           -3.486485532109    -1.401891888480    -0.060276154735    12.000000000000
         H            4.457072467891    -1.707216888480     0.089790845265     1.007825032230
         H            4.114980467891    -0.543681888480     1.366880845265     1.007825032230
         H            4.531800467891     0.677572111520    -0.742695154735     1.007825032230
         H            3.289739467891    -0.267334888480    -1.570746154735     1.007825032230
         H            2.027172467891    -2.154202888480    -0.192617154735     1.007825032230
         H            2.470722467891    -2.379586888480     1.504117845265     1.007825032230
         H            2.820851467891     1.670393111520     0.751793845265     1.007825032230
         H            2.311165467891     1.907665111520    -0.931413154735     1.007825032230
         H            0.350930467891    -1.038732888480     1.239683845265     1.007825032230
         H            1.627391467891    -0.122913888480     2.057274845265     1.007825032230
         H           -0.359199532109    -1.584435888480    -1.385408154735     1.007825032230
         H           -4.260391532109     0.278500111520     1.040713845265     1.007825032230
         H           -1.981353532109     2.767144111520     0.224807845265     1.007825032230
         H           -3.092883532109     2.268242111520     1.522848845265     1.007825032230
         H           -1.340499532109     2.099269111520     1.723337845265     1.007825032230
         H           -2.453734532109    -2.918559888480    -1.199443154735     1.007825032230
         H           -4.405948532109    -1.975654888480     0.029902845265     1.007825032230

  Basis Set: AUG-CC-PVTZ
    Blend: AUG-CC-PVTZ
  Basis Set: (AUG-CC-PVTZ AUX)
    Blend: AUG-CC-PVTZ-JKFIT
	 Reference Energy          =    -631.7275593928799253 [Eh]
	 Singles Energy            =      -0.0000000000000000 [Eh]
	 Same-Spin Energy          =      -0.6891564718393488 [Eh]
	 Opposite-Spin Energy      =      -2.2124776972066393 [Eh]
	 Correlation Energy        =      -2.9016341690459884 [Eh]
	 Total Energy              =    -634.6291935619259448 [Eh]

	 ================> DF-SCS-MP2 Energies <==================
	-----------------------------------------------------------
	 SCS Same-Spin Scale       =       0.3333333333333333 [-]
	 SCS Opposite-Spin Scale   =       1.2000000000000000 [-]
	 SCS Same-Spin Energy      =      -0.2297188239464496 [Eh]
	 SCS Opposite-Spin Energy  =      -2.6549732366479670 [Eh]
	 SCS Correlation Energy    =      -2.8846920605944164 [Eh]
	 SCS Total Energy          =    -634.6122514534743004 [Eh]
	-----------------------------------------------------------

  Dipole Moment: [D]
     X:     1.4050      Y:    -2.5174      Z:     2.3272     Total:     3.7050

*** Psi4 exiting successfully. Buy a developer a beer!
