                               Psi4 1.4a3.dev225

  ==> Input File <==

--------------------------------------------------------------------------
#psi4
#
memory 32 gb

molecule  {
0 1
  O        0.0109280     1.9504830    -1.2088660
  N        1.2104930     0.4628600     0.0596820
  C        3.6816010    -0.9509880     0.4072830
  C        3.5342200     0.1692850    -0.6230390
  C        2.3335540    -1.6180450     0.6838790
  C        2.4642000     1.1676880    -0.1911000
  C        1.2914730    -0.5760260     1.0805660
  C        0.0527250     0.9288280    -0.5097470
  C       -1.1808260     0.1020470    -0.2945890
  C       -2.2823960     0.6556420     0.3835130
  C       -1.2622800    -1.1716740    -0.8705440
  C       -3.4454200    -0.1153760     0.4879690
  C       -2.2065840     2.0368470     0.9809810
  C       -2.4366510    -1.9182050    -0.7675160
  C       -3.5304630    -1.3875060    -0.0828830
  H        4.4130950    -1.6928310     0.0671840
  H        4.0710030    -0.5292960     1.3442740
  H        4.5312984     0.7157870    -0.7717879
  H        3.2457620    -0.2529490    -1.5933530
  H        1.9831950    -2.1398170    -0.2152240
  H        2.4267450    -2.3652010     1.4815110
  H        2.7768740     1.6847790     0.7291870
  H        2.2671880     1.9220510    -0.9540200
  H        0.3069530    -1.0243470     1.2170770
  H        1.5834140    -0.1085280     2.0346680
  H       -0.4031770    -1.5700500    -1.4080150
  H       -4.3043690     0.2928860     1.0181070
  H       -2.0253310     2.7815300     0.2022010
  H       -3.1368610     2.2826280     1.5002420
  H       -1.3844770     2.1136550     1.7007310
  H       -2.4977120    -2.9041740    -1.2220500
  H       -4.4499260    -1.9612690     0.0072960
units angstrom
no_reorient  #important for SAPT in psi4, default
symmetry c1  #important for SAPT in psi4, default
}

set PROPERTIES_ORIGIN ["COM"]
properties('MP2/aug-cc-pvtz', properties = ['dipole'])
--------------------------------------------------------------------------

    Molecular point group: c1
  Charge       = 0
  Multiplicity = 1
  Basis Set: AUG-CC-PVTZ
    Blend: AUG-CC-PVTZ
  Basis Set: (AUG-CC-PVTZ AUX)
    Blend: AUG-CC-PVTZ-JKFIT

    Orbital Energies [Eh]
    ---------------------

    Doubly Occupied:

       1A    -20.511072     2A    -15.584300     3A    -11.349759
       4A    -11.267374     5A    -11.255079     6A    -11.252014
       7A    -11.246527     8A    -11.245204     9A    -11.242802
      10A    -11.239295    11A    -11.237126    12A    -11.231830
      13A    -11.231067    14A    -11.228733    15A    -11.220475
      16A     -1.367282    17A     -1.249955    18A     -1.161597
      19A     -1.083244    20A     -1.050967    21A     -1.037253
      22A     -1.022603    23A     -0.943329    24A     -0.919086
      25A     -0.865580    26A     -0.844264    27A     -0.815212
      28A     -0.789976    29A     -0.742972    30A     -0.712259
      31A     -0.666976    32A     -0.653044    33A     -0.648422
      34A     -0.626538    35A     -0.619988    36A     -0.615179
      37A     -0.596668    38A     -0.586229    39A     -0.575775
      40A     -0.571982    41A     -0.560239    42A     -0.545934
      43A     -0.541669    44A     -0.525043    45A     -0.508162
      46A     -0.502178    47A     -0.491340    48A     -0.489499
      49A     -0.478875    50A     -0.468780    51A     -0.460327
      52A     -0.417070    53A     -0.366558    54A     -0.340165
      55A     -0.330162

  @DF-RHF Final Energy:  -631.72853631577425

   => Energetics <=

    Nuclear Repulsion Energy =            999.7010723139512720
    One-Electron Energy =               -2842.5891424129172265
    Two-Electron Energy =                1211.1595337831915913
    Total Energy =                       -631.7285363157743632
  Basis Set: (AUG-CC-PVTZ AUX)
    Blend: AUG-CC-PVTZ-RI
    Molecular point group: c1

    Geometry (in Angstrom), charge = 0, multiplicity = 1:

       Center              X                  Y                   Z               Mass
    ------------   -----------------  -----------------  -----------------  -----------------
         O            0.056413373539     1.936832840320    -1.183737057090    15.994914619570
         N            1.255978373539     0.449209840320     0.084810942910    14.003074004430
         C            3.727086373539    -0.964638159680     0.432411942910    12.000000000000
         C            3.579705373539     0.155634840320    -0.597910057090    12.000000000000
         C            2.379039373539    -1.631695159680     0.709007942910    12.000000000000
         C            2.509685373539     1.154037840320    -0.165971057090    12.000000000000
         C            1.336958373539    -0.589676159680     1.105694942910    12.000000000000
         C            0.098210373539     0.915177840320    -0.484618057090    12.000000000000
         C           -1.135340626461     0.088396840320    -0.269460057090    12.000000000000
         C           -2.236910626461     0.641991840320     0.408641942910    12.000000000000
         C           -1.216794626461    -1.185324159680    -0.845415057090    12.000000000000
         C           -3.399934626461    -0.129026159680     0.513097942910    12.000000000000
         C           -2.161098626461     2.023196840320     1.006109942910    12.000000000000
         C           -2.391165626461    -1.931855159680    -0.742387057090    12.000000000000
         C           -3.484977626461    -1.401156159680    -0.057754057090    12.000000000000
         H            4.458580373539    -1.706481159680     0.092312942910     1.007825032230
         H            4.116488373539    -0.542946159680     1.369402942910     1.007825032230
         H            4.576783773539     0.702136840320    -0.746658957090     1.007825032230
         H            3.291247373539    -0.266599159680    -1.568224057090     1.007825032230
         H            2.028680373539    -2.153467159680    -0.190095057090     1.007825032230
         H            2.472230373539    -2.378851159680     1.506639942910     1.007825032230
         H            2.822359373539     1.671128840320     0.754315942910     1.007825032230
         H            2.312673373539     1.908400840320    -0.928891057090     1.007825032230
         H            0.352438373539    -1.037997159680     1.242205942910     1.007825032230
         H            1.628899373539    -0.122178159680     2.059796942910     1.007825032230
         H           -0.357691626461    -1.583700159680    -1.382886057090     1.007825032230
         H           -4.258883626461     0.279235840320     1.043235942910     1.007825032230
         H           -1.979845626461     2.767879840320     0.227329942910     1.007825032230
         H           -3.091375626461     2.268977840320     1.525370942910     1.007825032230
         H           -1.338991626461     2.100004840320     1.725859942910     1.007825032230
         H           -2.452226626461    -2.917824159680    -1.196921057090     1.007825032230
         H           -4.404440626461    -1.974919159680     0.032424942910     1.007825032230

  Basis Set: AUG-CC-PVTZ
    Blend: AUG-CC-PVTZ
  Basis Set: (AUG-CC-PVTZ AUX)
    Blend: AUG-CC-PVTZ-JKFIT
	 Reference Energy          =    -631.7285363157742495 [Eh]
	 Singles Energy            =      -0.0000000000000000 [Eh]
	 Same-Spin Energy          =      -0.6890310369875018 [Eh]
	 Opposite-Spin Energy      =      -2.2126312231013801 [Eh]
	 Correlation Energy        =      -2.9016622600888820 [Eh]
	 Total Energy              =    -634.6301985758631190 [Eh]

	 ================> DF-SCS-MP2 Energies <==================
	-----------------------------------------------------------
	 SCS Same-Spin Scale       =       0.3333333333333333 [-]
	 SCS Opposite-Spin Scale   =       1.2000000000000000 [-]
	 SCS Same-Spin Energy      =      -0.2296770123291673 [Eh]
	 SCS Opposite-Spin Energy  =      -2.6551574677216561 [Eh]
	 SCS Correlation Energy    =      -2.8848344800508232 [Eh]
	 SCS Total Energy          =    -634.6133707958250625 [Eh]
	-----------------------------------------------------------

  Dipole Moment: [D]
     X:     1.3619      Y:    -2.5369      Z:     2.3165     Total:     3.6955

*** Psi4 exiting successfully. Buy a developer a beer!
