                               Psi4 1.4a3.dev225

  ==> Input File <==

--------------------------------------------------------------------------
#psi4
#
memory 32 gb

molecule  {
0 1
  O        0.0109280     1.9504830    -1.2088660
  N        1.2104930     0.4628600     0.0596820
  C        3.6816010    -0.9509880     0.4072830
  C        3.5342200     0.1692850    -0.6230390
  C        2.3335540    -1.6180450     0.6838790
  C        2.4642000     1.1676880    -0.1911000
  C        1.2914730    -0.5760260     1.0805660
  C        0.0527250     0.9288280    -0.5097470
  C       -1.1808260     0.1020470    -0.2945890
  C       -2.2823960     0.6556420     0.3835130
  C       -1.2622800    -1.1716740    -0.8705440
  C       -3.4454200    -0.1153760     0.4879690
  C       -2.2065840     2.0368470     0.9809810
  C       -2.4366510    -1.9182050    -0.7675160
  C       -3.5304630    -1.3875060    -0.0828830
  H        4.4130950    -1.6928310     0.0671840
  H        4.0710030    -0.5292960     1.3442740
  H        4.4878230     0.6919580    -0.7653020
  H        3.2457620    -0.2529490    -1.5933530
  H        1.9831950    -2.1398170    -0.2152240
  H        2.4267450    -2.3652010     1.4815110
  H        2.7768740     1.6847790     0.7291870
  H        2.2671880     1.9220510    -0.9540200
  H        0.3069530    -1.0243470     1.2170770
  H        1.5781149    -0.1170136     2.0173500
  H       -0.4031770    -1.5700500    -1.4080150
  H       -4.3043690     0.2928860     1.0181070
  H       -2.0253310     2.7815300     0.2022010
  H       -3.1368610     2.2826280     1.5002420
  H       -1.3844770     2.1136550     1.7007310
  H       -2.4977120    -2.9041740    -1.2220500
  H       -4.4499260    -1.9612690     0.0072960
units angstrom
no_reorient  #important for SAPT in psi4, default
symmetry c1  #important for SAPT in psi4, default
}

set PROPERTIES_ORIGIN ["COM"]
properties('MP2/aug-cc-pvtz', properties = ['dipole'])
--------------------------------------------------------------------------

    Molecular point group: c1
  Charge       = 0
  Multiplicity = 1
  Basis Set: AUG-CC-PVTZ
    Blend: AUG-CC-PVTZ
  Basis Set: (AUG-CC-PVTZ AUX)
    Blend: AUG-CC-PVTZ-JKFIT

    Orbital Energies [Eh]
    ---------------------

    Doubly Occupied:

       1A    -20.510603     2A    -15.583630     3A    -11.349299
       4A    -11.264619     5A    -11.254617     6A    -11.251776
       7A    -11.246253     8A    -11.244929     9A    -11.242578
      10A    -11.239072    11A    -11.236918    12A    -11.230426
      13A    -11.228318    14A    -11.225655    15A    -11.220310
      16A     -1.366845    17A     -1.249580    18A     -1.161358
      19A     -1.083597    20A     -1.050745    21A     -1.037474
      22A     -1.023448    23A     -0.943239    24A     -0.919209
      25A     -0.867911    26A     -0.844055    27A     -0.815263
      28A     -0.791061    29A     -0.743292    30A     -0.712489
      31A     -0.666752    32A     -0.653294    33A     -0.648808
      34A     -0.627844    35A     -0.620876    36A     -0.615290
      37A     -0.596461    38A     -0.588474    39A     -0.575596
      40A     -0.571794    41A     -0.560122    42A     -0.547384
      43A     -0.541624    44A     -0.525128    45A     -0.508166
      46A     -0.502669    47A     -0.491526    48A     -0.489325
      49A     -0.478470    50A     -0.469665    51A     -0.461500
      52A     -0.416822    53A     -0.366265    54A     -0.339916
      55A     -0.329934

  @DF-RHF Final Energy:  -631.73078702438090

   => Energetics <=

    Nuclear Repulsion Energy =           1000.0858538268299753
    One-Electron Energy =               -2843.3687371953501497
    Two-Electron Energy =                1211.5520963441394997
    Total Energy =                       -631.7307870243807884
  Basis Set: (AUG-CC-PVTZ AUX)
    Blend: AUG-CC-PVTZ-RI
    Molecular point group: c1

    Geometry (in Angstrom), charge = 0, multiplicity = 1:

       Center              X                  Y                   Z               Mass
    ------------   -----------------  -----------------  -----------------  -----------------
         O            0.056655365941     1.936993167698    -1.183683314133    15.994914619570
         N            1.256220365941     0.449370167698     0.084864685867    14.003074004430
         C            3.727328365941    -0.964477832302     0.432465685867    12.000000000000
         C            3.579947365941     0.155795167698    -0.597856314133    12.000000000000
         C            2.379281365941    -1.631534832302     0.709061685867    12.000000000000
         C            2.509927365941     1.154198167698    -0.165917314133    12.000000000000
         C            1.337200365941    -0.589515832302     1.105748685867    12.000000000000
         C            0.098452365941     0.915338167698    -0.484564314133    12.000000000000
         C           -1.135098634059     0.088557167698    -0.269406314133    12.000000000000
         C           -2.236668634059     0.642152167698     0.408695685867    12.000000000000
         C           -1.216552634059    -1.185163832302    -0.845361314133    12.000000000000
         C           -3.399692634059    -0.128865832302     0.513151685867    12.000000000000
         C           -2.160856634059     2.023357167698     1.006163685867    12.000000000000
         C           -2.390923634059    -1.931694832302    -0.742333314133    12.000000000000
         C           -3.484735634059    -1.400995832302    -0.057700314133    12.000000000000
         H            4.458822365941    -1.706320832302     0.092366685867     1.007825032230
         H            4.116730365941    -0.542785832302     1.369456685867     1.007825032230
         H            4.533550365941     0.678468167698    -0.740119314133     1.007825032230
         H            3.291489365941    -0.266438832302    -1.568170314133     1.007825032230
         H            2.028922365941    -2.153306832302    -0.190041314133     1.007825032230
         H            2.472472365941    -2.378690832302     1.506693685867     1.007825032230
         H            2.822601365941     1.671289167698     0.754369685867     1.007825032230
         H            2.312915365941     1.908561167698    -0.928837314133     1.007825032230
         H            0.352680365941    -1.037836832302     1.242259685867     1.007825032230
         H            1.623842265941    -0.130503432302     2.042532685867     1.007825032230
         H           -0.357449634059    -1.583539832302    -1.382832314133     1.007825032230
         H           -4.258641634059     0.279396167698     1.043289685867     1.007825032230
         H           -1.979603634059     2.768040167698     0.227383685867     1.007825032230
         H           -3.091133634059     2.269138167698     1.525424685867     1.007825032230
         H           -1.338749634059     2.100165167698     1.725913685867     1.007825032230
         H           -2.451984634059    -2.917663832302    -1.196867314133     1.007825032230
         H           -4.404198634059    -1.974758832302     0.032478685867     1.007825032230

  Basis Set: AUG-CC-PVTZ
    Blend: AUG-CC-PVTZ
  Basis Set: (AUG-CC-PVTZ AUX)
    Blend: AUG-CC-PVTZ-JKFIT
	 Reference Energy          =    -631.7307870243809020 [Eh]
	 Singles Energy            =      -0.0000000000000000 [Eh]
	 Same-Spin Energy          =      -0.6889875912558778 [Eh]
	 Opposite-Spin Energy      =      -2.2121194834556976 [Eh]
	 Correlation Energy        =      -2.9011070747115753 [Eh]
	 Total Energy              =    -634.6318940990925057 [Eh]

	 ================> DF-SCS-MP2 Energies <==================
	-----------------------------------------------------------
	 SCS Same-Spin Scale       =       0.3333333333333333 [-]
	 SCS Opposite-Spin Scale   =       1.2000000000000000 [-]
	 SCS Same-Spin Energy      =      -0.2296625304186259 [Eh]
	 SCS Opposite-Spin Energy  =      -2.6545433801468370 [Eh]
	 SCS Correlation Energy    =      -2.8842059105654627 [Eh]
	 SCS Total Energy          =    -634.6149929349463719 [Eh]
	-----------------------------------------------------------

  Dipole Moment: [D]
     X:     1.4127      Y:    -2.5192      Z:     2.3210     Total:     3.7053

*** Psi4 exiting successfully. Buy a developer a beer!
