                               Psi4 1.4a3.dev225

  ==> Input File <==

--------------------------------------------------------------------------
#psi4
#
memory 32 gb

molecule  {
0 1
  O        0.0109280     1.9504830    -1.2088660
  N        1.2104930     0.4628600     0.0596820
  C        3.6816010    -0.9509880     0.4072830
  C        3.5342200     0.1692850    -0.6230390
  C        2.3335540    -1.6180450     0.6838790
  C        2.4642000     1.1676880    -0.1911000
  C        1.2914730    -0.5760260     1.0805660
  C        0.0293470     0.9685303    -0.4848410
  C       -1.1808260     0.1020470    -0.2945890
  C       -2.2823960     0.6556420     0.3835130
  C       -1.2622800    -1.1716740    -0.8705440
  C       -3.4454200    -0.1153760     0.4879690
  C       -2.2065840     2.0368470     0.9809810
  C       -2.4366510    -1.9182050    -0.7675160
  C       -3.5304630    -1.3875060    -0.0828830
  H        4.4130950    -1.6928310     0.0671840
  H        4.0710030    -0.5292960     1.3442740
  H        4.4878230     0.6919580    -0.7653020
  H        3.2457620    -0.2529490    -1.5933530
  H        1.9831950    -2.1398170    -0.2152240
  H        2.4267450    -2.3652010     1.4815110
  H        2.7768740     1.6847790     0.7291870
  H        2.2671880     1.9220510    -0.9540200
  H        0.3069530    -1.0243470     1.2170770
  H        1.5834140    -0.1085280     2.0346680
  H       -0.4031770    -1.5700500    -1.4080150
  H       -4.3043690     0.2928860     1.0181070
  H       -2.0253310     2.7815300     0.2022010
  H       -3.1368610     2.2826280     1.5002420
  H       -1.3844770     2.1136550     1.7007310
  H       -2.4977120    -2.9041740    -1.2220500
  H       -4.4499260    -1.9612690     0.0072960
units angstrom
no_reorient  #important for SAPT in psi4, default
symmetry c1  #important for SAPT in psi4, default
}

set PROPERTIES_ORIGIN ["COM"]
properties('MP2/aug-cc-pvtz', properties = ['dipole'])
--------------------------------------------------------------------------

    Molecular point group: c1
  Charge       = 0
  Multiplicity = 1
  Basis Set: AUG-CC-PVTZ
    Blend: AUG-CC-PVTZ
  Basis Set: (AUG-CC-PVTZ AUX)
    Blend: AUG-CC-PVTZ-JKFIT

    Orbital Energies [Eh]
    ---------------------

    Doubly Occupied:

       1A    -20.516778     2A    -15.579502     3A    -11.350600
       4A    -11.264457     5A    -11.252504     6A    -11.251565
       7A    -11.247184     8A    -11.245373     9A    -11.242980
      10A    -11.239696    11A    -11.237069    12A    -11.228961
      13A    -11.226814    14A    -11.224104    15A    -11.221845
      16A     -1.378999    17A     -1.245366    18A     -1.161950
      19A     -1.080470    20A     -1.051968    21A     -1.035659
      22A     -1.022123    23A     -0.942994    24A     -0.914934
      25A     -0.865489    26A     -0.844650    27A     -0.814109
      28A     -0.788569    29A     -0.741902    30A     -0.711646
      31A     -0.668381    32A     -0.652644    33A     -0.648115
      34A     -0.626129    35A     -0.620957    36A     -0.614386
      37A     -0.597399    38A     -0.587768    39A     -0.576090
      40A     -0.572714    41A     -0.559905    42A     -0.546487
      43A     -0.544750    44A     -0.526781    45A     -0.509154
      46A     -0.501041    47A     -0.491379    48A     -0.489121
      49A     -0.479374    50A     -0.468170    51A     -0.459719
      52A     -0.418923    53A     -0.364611    54A     -0.340359
      55A     -0.330696

  @DF-RHF Final Energy:  -631.72944292428542

   => Energetics <=

    Nuclear Repulsion Energy =            999.8466270654392929
    One-Electron Energy =               -2842.9015100945116501
    Two-Electron Energy =                1211.3254401047868214
    Total Energy =                       -631.7294429242854221
  Basis Set: (AUG-CC-PVTZ AUX)
    Blend: AUG-CC-PVTZ-RI
    Molecular point group: c1

    Geometry (in Angstrom), charge = 0, multiplicity = 1:

       Center              X                  Y                   Z               Mass
    ------------   -----------------  -----------------  -----------------  -----------------
         O            0.058010134121     1.934605646511    -1.185240562863    15.994914619570
         N            1.257575134121     0.446982646511     0.083307437137    14.003074004430
         C            3.728683134121    -0.966865353489     0.430908437137    12.000000000000
         C            3.581302134121     0.153407646511    -0.599413562863    12.000000000000
         C            2.380636134121    -1.633922353489     0.707504437137    12.000000000000
         C            2.511282134121     1.151810646511    -0.167474562863    12.000000000000
         C            1.338555134121    -0.591903353489     1.104191437137    12.000000000000
         C            0.076429134121     0.952652946511    -0.461215562863    12.000000000000
         C           -1.133743865879     0.086169646511    -0.270963562863    12.000000000000
         C           -2.235313865879     0.639764646511     0.407138437137    12.000000000000
         C           -1.215197865879    -1.187551353489    -0.846918562863    12.000000000000
         C           -3.398337865879    -0.131253353489     0.511594437137    12.000000000000
         C           -2.159501865879     2.020969646511     1.004606437137    12.000000000000
         C           -2.389568865879    -1.934082353489    -0.743890562863    12.000000000000
         C           -3.483380865879    -1.403383353489    -0.059257562863    12.000000000000
         H            4.460177134121    -1.708708353489     0.090809437137     1.007825032230
         H            4.118085134121    -0.545173353489     1.367899437137     1.007825032230
         H            4.534905134121     0.676080646511    -0.741676562863     1.007825032230
         H            3.292844134121    -0.268826353489    -1.569727562863     1.007825032230
         H            2.030277134121    -2.155694353489    -0.191598562863     1.007825032230
         H            2.473827134121    -2.381078353489     1.505136437137     1.007825032230
         H            2.823956134121     1.668901646511     0.752812437137     1.007825032230
         H            2.314270134121     1.906173646511    -0.930394562863     1.007825032230
         H            0.354035134121    -1.040224353489     1.240702437137     1.007825032230
         H            1.630496134121    -0.124405353489     2.058293437137     1.007825032230
         H           -0.356094865879    -1.585927353489    -1.384389562863     1.007825032230
         H           -4.257286865879     0.277008646511     1.041732437137     1.007825032230
         H           -1.978248865879     2.765652646511     0.225826437137     1.007825032230
         H           -3.089778865879     2.266750646511     1.523867437137     1.007825032230
         H           -1.337394865879     2.097777646511     1.724356437137     1.007825032230
         H           -2.450629865879    -2.920051353489    -1.198424562863     1.007825032230
         H           -4.402843865879    -1.977146353489     0.030921437137     1.007825032230

  Basis Set: AUG-CC-PVTZ
    Blend: AUG-CC-PVTZ
  Basis Set: (AUG-CC-PVTZ AUX)
    Blend: AUG-CC-PVTZ-JKFIT
	 Reference Energy          =    -631.7294429242854221 [Eh]
	 Singles Energy            =      -0.0000000000000000 [Eh]
	 Same-Spin Energy          =      -0.6888806031592505 [Eh]
	 Opposite-Spin Energy      =      -2.2120617650947079 [Eh]
	 Correlation Energy        =      -2.9009423682539586 [Eh]
	 Total Energy              =    -634.6303852925393585 [Eh]

	 ================> DF-SCS-MP2 Energies <==================
	-----------------------------------------------------------
	 SCS Same-Spin Scale       =       0.3333333333333333 [-]
	 SCS Opposite-Spin Scale   =       1.2000000000000000 [-]
	 SCS Same-Spin Energy      =      -0.2296268677197502 [Eh]
	 SCS Opposite-Spin Energy  =      -2.6544741181136495 [Eh]
	 SCS Correlation Energy    =      -2.8841009858333995 [Eh]
	 SCS Total Energy          =    -634.6135439101187785 [Eh]
	-----------------------------------------------------------

  Dipole Moment: [D]
     X:     1.2116      Y:    -2.3802      Z:     2.2036     Total:     3.4626

*** Psi4 exiting successfully. Buy a developer a beer!
