                               Psi4 1.4a3.dev225

  ==> Input File <==

--------------------------------------------------------------------------
#psi4
#
memory 32 gb

molecule  {
0 1
  O        0.0109280     1.9504830    -1.2088660
  N        1.2104930     0.4628600     0.0596820
  C        3.6816010    -0.9509880     0.4072830
  C        3.5342200     0.1692850    -0.6230390
  C        2.3335540    -1.6180450     0.6838790
  C        2.4763881     1.1507511    -0.1764763
  C        1.2914730    -0.5760260     1.0805660
  C        0.0527250     0.9288280    -0.5097470
  C       -1.1808260     0.1020470    -0.2945890
  C       -2.2823960     0.6556420     0.3835130
  C       -1.2622800    -1.1716740    -0.8705440
  C       -3.4454200    -0.1153760     0.4879690
  C       -2.2065840     2.0368470     0.9809810
  C       -2.4366510    -1.9182050    -0.7675160
  C       -3.5304630    -1.3875060    -0.0828830
  H        4.4130950    -1.6928310     0.0671840
  H        4.0710030    -0.5292960     1.3442740
  H        4.4878230     0.6919580    -0.7653020
  H        3.2457620    -0.2529490    -1.5933530
  H        1.9831950    -2.1398170    -0.2152240
  H        2.4267450    -2.3652010     1.4815110
  H        2.7768740     1.6847790     0.7291870
  H        2.2671880     1.9220510    -0.9540200
  H        0.3069530    -1.0243470     1.2170770
  H        1.5834140    -0.1085280     2.0346680
  H       -0.4031770    -1.5700500    -1.4080150
  H       -4.3043690     0.2928860     1.0181070
  H       -2.0253310     2.7815300     0.2022010
  H       -3.1368610     2.2826280     1.5002420
  H       -1.3844770     2.1136550     1.7007310
  H       -2.4977120    -2.9041740    -1.2220500
  H       -4.4499260    -1.9612690     0.0072960
units angstrom
no_reorient  #important for SAPT in psi4, default
symmetry c1  #important for SAPT in psi4, default
}

set PROPERTIES_ORIGIN ["COM"]
properties('MP2/aug-cc-pvtz', properties = ['dipole'])
--------------------------------------------------------------------------

    Molecular point group: c1
  Charge       = 0
  Multiplicity = 1
  Basis Set: AUG-CC-PVTZ
    Blend: AUG-CC-PVTZ
  Basis Set: (AUG-CC-PVTZ AUX)
    Blend: AUG-CC-PVTZ-JKFIT

    Orbital Energies [Eh]
    ---------------------

    Doubly Occupied:

       1A    -20.510847     2A    -15.583763     3A    -11.349852
       4A    -11.266490     5A    -11.254923     6A    -11.251937
       7A    -11.246447     8A    -11.245163     9A    -11.242710
      10A    -11.239178    11A    -11.237021    12A    -11.230563
      13A    -11.228012    14A    -11.225216    15A    -11.220373
      16A     -1.366822    17A     -1.249928    18A     -1.161511
      19A     -1.084707    20A     -1.050825    21A     -1.037395
      22A     -1.023832    23A     -0.943263    24A     -0.919082
      25A     -0.866968    26A     -0.843692    27A     -0.815499
      28A     -0.791710    29A     -0.742648    30A     -0.712204
      31A     -0.666515    32A     -0.652875    33A     -0.648561
      34A     -0.627688    35A     -0.620527    36A     -0.615723
      37A     -0.596360    38A     -0.588218    39A     -0.575474
      40A     -0.571921    41A     -0.558169    42A     -0.548010
      43A     -0.541806    44A     -0.524729    45A     -0.508540
      46A     -0.502854    47A     -0.491628    48A     -0.489292
      49A     -0.479809    50A     -0.469220    51A     -0.458149
      52A     -0.416735    53A     -0.367074    54A     -0.340029
      55A     -0.330060

  @DF-RHF Final Energy:  -631.72953311066283

   => Energetics <=

    Nuclear Repulsion Energy =           1000.1110762419946241
    One-Electron Energy =               -2843.4161275589030993
    Two-Electron Energy =                1211.5755182062457607
    Total Energy =                       -631.7295331106627145
  Basis Set: (AUG-CC-PVTZ AUX)
    Blend: AUG-CC-PVTZ-RI
    Molecular point group: c1

    Geometry (in Angstrom), charge = 0, multiplicity = 1:

       Center              X                  Y                   Z               Mass
    ------------   -----------------  -----------------  -----------------  -----------------
         O            0.055909060576     1.937951617104    -1.184633134202    15.994914619570
         N            1.255474060576     0.450328617104     0.083914865798    14.003074004430
         C            3.726582060576    -0.963519382896     0.431515865798    12.000000000000
         C            3.579201060576     0.156753617104    -0.598806134202    12.000000000000
         C            2.378535060576    -1.630576382896     0.708111865798    12.000000000000
         C            2.521369160576     1.138219717104    -0.152243434202    12.000000000000
         C            1.336454060576    -0.588557382896     1.104798865798    12.000000000000
         C            0.097706060576     0.916296617104    -0.485514134202    12.000000000000
         C           -1.135844939424     0.089515617104    -0.270356134202    12.000000000000
         C           -2.237414939424     0.643110617104     0.407745865798    12.000000000000
         C           -1.217298939424    -1.184205382896    -0.846311134202    12.000000000000
         C           -3.400438939424    -0.127907382896     0.512201865798    12.000000000000
         C           -2.161602939424     2.024315617104     1.005213865798    12.000000000000
         C           -2.391669939424    -1.930736382896    -0.743283134202    12.000000000000
         C           -3.485481939424    -1.400037382896    -0.058650134202    12.000000000000
         H            4.458076060576    -1.705362382896     0.091416865798     1.007825032230
         H            4.115984060576    -0.541827382896     1.368506865798     1.007825032230
         H            4.532804060576     0.679426617104    -0.741069134202     1.007825032230
         H            3.290743060576    -0.265480382896    -1.569120134202     1.007825032230
         H            2.028176060576    -2.152348382896    -0.190991134202     1.007825032230
         H            2.471726060576    -2.377732382896     1.505743865798     1.007825032230
         H            2.821855060576     1.672247617104     0.753419865798     1.007825032230
         H            2.312169060576     1.909519617104    -0.929787134202     1.007825032230
         H            0.351934060576    -1.036878382896     1.241309865798     1.007825032230
         H            1.628395060576    -0.121059382896     2.058900865798     1.007825032230
         H           -0.358195939424    -1.582581382896    -1.383782134202     1.007825032230
         H           -4.259387939424     0.280354617104     1.042339865798     1.007825032230
         H           -1.980349939424     2.768998617104     0.226433865798     1.007825032230
         H           -3.091879939424     2.270096617104     1.524474865798     1.007825032230
         H           -1.339495939424     2.101123617104     1.724963865798     1.007825032230
         H           -2.452730939424    -2.916705382896    -1.197817134202     1.007825032230
         H           -4.404944939424    -1.973800382896     0.031528865798     1.007825032230

  Basis Set: AUG-CC-PVTZ
    Blend: AUG-CC-PVTZ
  Basis Set: (AUG-CC-PVTZ AUX)
    Blend: AUG-CC-PVTZ-JKFIT
	 Reference Energy          =    -631.7295331106628282 [Eh]
	 Singles Energy            =      -0.0000000000000000 [Eh]
	 Same-Spin Energy          =      -0.6892252224675741 [Eh]
	 Opposite-Spin Energy      =      -2.2125382397658839 [Eh]
	 Correlation Energy        =      -2.9017634622334580 [Eh]
	 Total Energy              =    -634.6312965728963036 [Eh]

	 ================> DF-SCS-MP2 Energies <==================
	-----------------------------------------------------------
	 SCS Same-Spin Scale       =       0.3333333333333333 [-]
	 SCS Opposite-Spin Scale   =       1.2000000000000000 [-]
	 SCS Same-Spin Energy      =      -0.2297417408225247 [Eh]
	 SCS Opposite-Spin Energy  =      -2.6550458877190608 [Eh]
	 SCS Correlation Energy    =      -2.8847876285415857 [Eh]
	 SCS Total Energy          =    -634.6143207392044587 [Eh]
	-----------------------------------------------------------

  Dipole Moment: [D]
     X:     1.4021      Y:    -2.5184      Z:     2.3036     Total:     3.6898

*** Psi4 exiting successfully. Buy a developer a beer!
