                               Psi4 1.4a3.dev225

  ==> Input File <==

--------------------------------------------------------------------------
#psi4
#
memory 32 gb

molecule  {
0 1
  O        0.0109280     1.9504830    -1.2088660
  N        1.2104930     0.4628600     0.0596820
  C        3.6816010    -0.9509880     0.4072830
  C        3.5342200     0.1692850    -0.6230390
  C        2.3335540    -1.6180450     0.6838790
  C        2.4642000     1.1676880    -0.1911000
  C        1.2914730    -0.5760260     1.0805660
  C        0.0527250     0.9288280    -0.5097470
  C       -1.1808260     0.1020470    -0.2945890
  C       -2.2823960     0.6556420     0.3835130
  C       -1.2622800    -1.1716740    -0.8705440
  C       -3.4454200    -0.1153760     0.4879690
  C       -2.2065840     2.0368470     0.9809810
  C       -2.4366510    -1.9182050    -0.7675160
  C       -3.5304630    -1.3875060    -0.0828830
  H        4.4130950    -1.6928310     0.0671840
  H        4.0710030    -0.5292960     1.3442740
  H        4.4878230     0.6919580    -0.7653020
  H        3.2457620    -0.2529490    -1.5933530
  H        1.9831950    -2.1398170    -0.2152240
  H        2.4267450    -2.3652010     1.4815110
  H        2.7768740     1.6847790     0.7291870
  H        2.2671880     1.9220510    -0.9540200
  H        0.3069530    -1.0243470     1.2170770
  H        1.5569187    -0.1509561     1.9480778
  H       -0.4031770    -1.5700500    -1.4080150
  H       -4.3043690     0.2928860     1.0181070
  H       -2.0253310     2.7815300     0.2022010
  H       -3.1368610     2.2826280     1.5002420
  H       -1.3844770     2.1136550     1.7007310
  H       -2.4977120    -2.9041740    -1.2220500
  H       -4.4499260    -1.9612690     0.0072960
units angstrom
no_reorient  #important for SAPT in psi4, default
symmetry c1  #important for SAPT in psi4, default
}

set PROPERTIES_ORIGIN ["COM"]
properties('MP2/aug-cc-pvtz', properties = ['dipole'])
--------------------------------------------------------------------------

    Molecular point group: c1
  Charge       = 0
  Multiplicity = 1
  Basis Set: AUG-CC-PVTZ
    Blend: AUG-CC-PVTZ
  Basis Set: (AUG-CC-PVTZ AUX)
    Blend: AUG-CC-PVTZ-JKFIT

    Orbital Energies [Eh]
    ---------------------

    Doubly Occupied:

       1A    -20.509953     2A    -15.582667     3A    -11.348725
       4A    -11.254593     5A    -11.254569     6A    -11.251526
       7A    -11.245942     8A    -11.244625     9A    -11.242338
      10A    -11.238838    11A    -11.236713    12A    -11.229707
      13A    -11.228316    14A    -11.225580    15A    -11.220213
      16A     -1.366307    17A     -1.249746    18A     -1.161109
      19A     -1.083650    20A     -1.050567    21A     -1.038659
      22A     -1.024690    23A     -0.943728    24A     -0.921197
      25A     -0.870179    26A     -0.843865    27A     -0.815183
      28A     -0.791428    29A     -0.746204    30A     -0.713123
      31A     -0.666868    32A     -0.656317    33A     -0.649856
      34A     -0.628000    35A     -0.622453    36A     -0.615244
      37A     -0.596937    38A     -0.589741    39A     -0.575383
      40A     -0.571765    41A     -0.559678    42A     -0.547137
      43A     -0.541738    44A     -0.526485    45A     -0.508962
      46A     -0.504388    47A     -0.491509    48A     -0.489192
      49A     -0.478270    50A     -0.469767    51A     -0.461312
      52A     -0.416429    53A     -0.366403    54A     -0.339644
      55A     -0.329705

  @DF-RHF Final Energy:  -631.72536603388460

   => Energetics <=

    Nuclear Repulsion Energy =           1000.5666053891296770
    One-Electron Energy =               -2844.3096979190581806
    Two-Electron Energy =                1212.0177264960441335
    Total Energy =                       -631.7253660338844838
  Basis Set: (AUG-CC-PVTZ AUX)
    Blend: AUG-CC-PVTZ-RI
    Molecular point group: c1

    Geometry (in Angstrom), charge = 0, multiplicity = 1:

       Center              X                  Y                   Z               Mass
    ------------   -----------------  -----------------  -----------------  -----------------
         O            0.056760529896     1.937161571825    -1.183339623350    15.994914619570
         N            1.256325529896     0.449538571825     0.085208376650    14.003074004430
         C            3.727433529896    -0.964309428175     0.432809376650    12.000000000000
         C            3.580052529896     0.155963571825    -0.597512623350    12.000000000000
         C            2.379386529896    -1.631366428175     0.709405376650    12.000000000000
         C            2.510032529896     1.154366571825    -0.165573623350    12.000000000000
         C            1.337305529896    -0.589347428175     1.106092376650    12.000000000000
         C            0.098557529896     0.915506571825    -0.484220623350    12.000000000000
         C           -1.134993470104     0.088725571825    -0.269062623350    12.000000000000
         C           -2.236563470104     0.642320571825     0.409039376650    12.000000000000
         C           -1.216447470104    -1.184995428175    -0.845017623350    12.000000000000
         C           -3.399587470104    -0.128697428175     0.513495376650    12.000000000000
         C           -2.160751470104     2.023525571825     1.006507376650    12.000000000000
         C           -2.390818470104    -1.931526428175    -0.741989623350    12.000000000000
         C           -3.484630470104    -1.400827428175    -0.057356623350    12.000000000000
         H            4.458927529896    -1.706152428175     0.092710376650     1.007825032230
         H            4.116835529896    -0.542617428175     1.369800376650     1.007825032230
         H            4.533655529896     0.678636571825    -0.739775623350     1.007825032230
         H            3.291594529896    -0.266270428175    -1.567826623350     1.007825032230
         H            2.029027529896    -2.153138428175    -0.189697623350     1.007825032230
         H            2.472577529896    -2.378522428175     1.507037376650     1.007825032230
         H            2.822706529896     1.671457571825     0.754713376650     1.007825032230
         H            2.313020529896     1.908729571825    -0.928493623350     1.007825032230
         H            0.352785529896    -1.037668428175     1.242603376650     1.007825032230
         H            1.602751229896    -0.164277528175     1.973604176650     1.007825032230
         H           -0.357344470104    -1.583371428175    -1.382488623350     1.007825032230
         H           -4.258536470104     0.279564571825     1.043633376650     1.007825032230
         H           -1.979498470104     2.768208571825     0.227727376650     1.007825032230
         H           -3.091028470104     2.269306571825     1.525768376650     1.007825032230
         H           -1.338644470104     2.100333571825     1.726257376650     1.007825032230
         H           -2.451879470104    -2.917495428175    -1.196523623350     1.007825032230
         H           -4.404093470104    -1.974590428175     0.032822376650     1.007825032230

  Basis Set: AUG-CC-PVTZ
    Blend: AUG-CC-PVTZ
  Basis Set: (AUG-CC-PVTZ AUX)
    Blend: AUG-CC-PVTZ-JKFIT
	 Reference Energy          =    -631.7253660338845975 [Eh]
	 Singles Energy            =      -0.0000000000000000 [Eh]
	 Same-Spin Energy          =      -0.6888863367210882 [Eh]
	 Opposite-Spin Energy      =      -2.2116426036090551 [Eh]
	 Correlation Energy        =      -2.9005289403301431 [Eh]
	 Total Energy              =    -634.6258949742147024 [Eh]

	 ================> DF-SCS-MP2 Energies <==================
	-----------------------------------------------------------
	 SCS Same-Spin Scale       =       0.3333333333333333 [-]
	 SCS Opposite-Spin Scale   =       1.2000000000000000 [-]
	 SCS Same-Spin Energy      =      -0.2296287789070294 [Eh]
	 SCS Opposite-Spin Energy  =      -2.6539711243308659 [Eh]
	 SCS Correlation Energy    =      -2.8835999032378954 [Eh]
	 SCS Total Energy          =    -634.6089659371225480 [Eh]
	-----------------------------------------------------------

  Dipole Moment: [D]
     X:     1.4412      Y:    -2.5181      Z:     2.3787     Total:     3.7518

*** Psi4 exiting successfully. Buy a developer a beer!
