                               Psi4 1.4a3.dev225

  ==> Input File <==

--------------------------------------------------------------------------
#psi4
#
memory 32 gb

molecule  {
0 1
  O        0.0109280     1.9504830    -1.2088660
  N        1.2104930     0.4628600     0.0596820
  C        3.6816010    -0.9509880     0.4072830
  C        3.5342200     0.1692850    -0.6230390
  C        2.3335540    -1.6180450     0.6838790
  C        2.4642000     1.1676880    -0.1911000
  C        1.2914730    -0.5760260     1.0805660
  C        0.0949457     0.8464510    -0.5587425
  C       -1.1808260     0.1020470    -0.2945890
  C       -2.2823960     0.6556420     0.3835130
  C       -1.2622800    -1.1716740    -0.8705440
  C       -3.4454200    -0.1153760     0.4879690
  C       -2.2065840     2.0368470     0.9809810
  C       -2.4366510    -1.9182050    -0.7675160
  C       -3.5304630    -1.3875060    -0.0828830
  H        4.4130950    -1.6928310     0.0671840
  H        4.0710030    -0.5292960     1.3442740
  H        4.4878230     0.6919580    -0.7653020
  H        3.2457620    -0.2529490    -1.5933530
  H        1.9831950    -2.1398170    -0.2152240
  H        2.4267450    -2.3652010     1.4815110
  H        2.7768740     1.6847790     0.7291870
  H        2.2671880     1.9220510    -0.9540200
  H        0.3069530    -1.0243470     1.2170770
  H        1.5834140    -0.1085280     2.0346680
  H       -0.4031770    -1.5700500    -1.4080150
  H       -4.3043690     0.2928860     1.0181070
  H       -2.0253310     2.7815300     0.2022010
  H       -3.1368610     2.2826280     1.5002420
  H       -1.3844770     2.1136550     1.7007310
  H       -2.4977120    -2.9041740    -1.2220500
  H       -4.4499260    -1.9612690     0.0072960
units angstrom
no_reorient  #important for SAPT in psi4, default
symmetry c1  #important for SAPT in psi4, default
}

set PROPERTIES_ORIGIN ["COM"]
properties('MP2/aug-cc-pvtz', properties = ['dipole'])
--------------------------------------------------------------------------

    Molecular point group: c1
  Charge       = 0
  Multiplicity = 1
  Basis Set: AUG-CC-PVTZ
    Blend: AUG-CC-PVTZ
  Basis Set: (AUG-CC-PVTZ AUX)
    Blend: AUG-CC-PVTZ-JKFIT

    Orbital Energies [Eh]
    ---------------------

    Doubly Occupied:

       1A    -20.499321     2A    -15.592912     3A    -11.348454
       4A    -11.271725     5A    -11.258692     6A    -11.252681
       7A    -11.246173     8A    -11.244089     9A    -11.242156
      10A    -11.238214    11A    -11.237009    12A    -11.233909
      13A    -11.231239    14A    -11.228801    15A    -11.217631
      16A     -1.346151    17A     -1.251188    18A     -1.160664
      19A     -1.089306    20A     -1.048874    21A     -1.040882
      22A     -1.025100    23A     -0.945045    24A     -0.924710
      25A     -0.871269    26A     -0.842994    27A     -0.817946
      28A     -0.795664    29A     -0.744549    30A     -0.712971
      31A     -0.664745    32A     -0.653851    33A     -0.649950
      34A     -0.631113    35A     -0.623369    36A     -0.612720
      37A     -0.594769    38A     -0.588275    39A     -0.575067
      40A     -0.569940    41A     -0.559082    42A     -0.548622
      43A     -0.534910    44A     -0.522261    45A     -0.508511
      46A     -0.500561    47A     -0.492231    48A     -0.490499
      49A     -0.476180    50A     -0.470777    51A     -0.464588
      52A     -0.410138    53A     -0.366773    54A     -0.339382
      55A     -0.328741

  @DF-RHF Final Energy:  -631.72096513769623

   => Energetics <=

    Nuclear Repulsion Energy =           1000.0688615096826197
    One-Electron Energy =               -2843.3049113364813820
    Two-Electron Energy =                1211.5150846891024230
    Total Energy =                       -631.7209651376963393
  Basis Set: (AUG-CC-PVTZ AUX)
    Blend: AUG-CC-PVTZ-RI
    Molecular point group: c1

    Geometry (in Angstrom), charge = 0, multiplicity = 1:

       Center              X                  Y                   Z               Mass
    ------------   -----------------  -----------------  -----------------  -----------------
         O            0.054134879506     1.941817502396    -1.180874818894    15.994914619570
         N            1.253699879506     0.454194502396     0.087673181106    14.003074004430
         C            3.724807879506    -0.959653497604     0.435274181106    12.000000000000
         C            3.577426879506     0.160619502396    -0.595047818894    12.000000000000
         C            2.376760879506    -1.626710497604     0.711870181106    12.000000000000
         C            2.507406879506     1.159022502396    -0.163108818894    12.000000000000
         C            1.334679879506    -0.584691497604     1.108557181106    12.000000000000
         C            0.138152579506     0.837785502396    -0.530751318894    12.000000000000
         C           -1.137619120494     0.093381502396    -0.266597818894    12.000000000000
         C           -2.239189120494     0.646976502396     0.411504181106    12.000000000000
         C           -1.219073120494    -1.180339497604    -0.842552818894    12.000000000000
         C           -3.402213120494    -0.124041497604     0.515960181106    12.000000000000
         C           -2.163377120494     2.028181502396     1.008972181106    12.000000000000
         C           -2.393444120494    -1.926870497604    -0.739524818894    12.000000000000
         C           -3.487256120494    -1.396171497604    -0.054891818894    12.000000000000
         H            4.456301879506    -1.701496497604     0.095175181106     1.007825032230
         H            4.114209879506    -0.537961497604     1.372265181106     1.007825032230
         H            4.531029879506     0.683292502396    -0.737310818894     1.007825032230
         H            3.288968879506    -0.261614497604    -1.565361818894     1.007825032230
         H            2.026401879506    -2.148482497604    -0.187232818894     1.007825032230
         H            2.469951879506    -2.373866497604     1.509502181106     1.007825032230
         H            2.820080879506     1.676113502396     0.757178181106     1.007825032230
         H            2.310394879506     1.913385502396    -0.926028818894     1.007825032230
         H            0.350159879506    -1.033012497604     1.245068181106     1.007825032230
         H            1.626620879506    -0.117193497604     2.062659181106     1.007825032230
         H           -0.359970120494    -1.578715497604    -1.380023818894     1.007825032230
         H           -4.261162120494     0.284220502396     1.046098181106     1.007825032230
         H           -1.982124120494     2.772864502396     0.230192181106     1.007825032230
         H           -3.093654120494     2.273962502396     1.528233181106     1.007825032230
         H           -1.341270120494     2.104989502396     1.728722181106     1.007825032230
         H           -2.454505120494    -2.912839497604    -1.194058818894     1.007825032230
         H           -4.406719120494    -1.969934497604     0.035287181106     1.007825032230

  Basis Set: AUG-CC-PVTZ
    Blend: AUG-CC-PVTZ
  Basis Set: (AUG-CC-PVTZ AUX)
    Blend: AUG-CC-PVTZ-JKFIT
	 Reference Energy          =    -631.7209651376962256 [Eh]
	 Singles Energy            =      -0.0000000000000000 [Eh]
	 Same-Spin Energy          =      -0.6898825489244795 [Eh]
	 Opposite-Spin Energy      =      -2.2141173750541232 [Eh]
	 Correlation Energy        =      -2.9039999239786027 [Eh]
	 Total Energy              =    -634.6249650616748568 [Eh]

	 ================> DF-SCS-MP2 Energies <==================
	-----------------------------------------------------------
	 SCS Same-Spin Scale       =       0.3333333333333333 [-]
	 SCS Opposite-Spin Scale   =       1.2000000000000000 [-]
	 SCS Same-Spin Energy      =      -0.2299608496414932 [Eh]
	 SCS Opposite-Spin Energy  =      -2.6569408500649478 [Eh]
	 SCS Correlation Energy    =      -2.8869016997064412 [Eh]
	 SCS Total Energy          =    -634.6078668374026392 [Eh]
	-----------------------------------------------------------

  Dipole Moment: [D]
     X:     1.7555      Y:    -2.7910      Z:     2.5145     Total:     4.1466

*** Psi4 exiting successfully. Buy a developer a beer!
