                               Psi4 1.4a3.dev225

  ==> Input File <==

--------------------------------------------------------------------------
#psi4
#
memory 32 gb

molecule  {
0 1
  O        0.0109280     1.9504830    -1.2088660
  N        1.2104930     0.4628600     0.0596820
  C        3.6816010    -0.9509880     0.4072830
  C        3.5342200     0.1692850    -0.6230390
  C        2.3335540    -1.6180450     0.6838790
  C        2.4642000     1.1676880    -0.1911000
  C        1.2914730    -0.5760260     1.0805660
  C        0.0527250     0.9288280    -0.5097470
  C       -1.1808260     0.1020470    -0.2945890
  C       -2.2823960     0.6556420     0.3835130
  C       -1.2622800    -1.1716740    -0.8705440
  C       -3.4454200    -0.1153760     0.4879690
  C       -2.2065840     2.0368470     0.9809810
  C       -2.4366510    -1.9182050    -0.7675160
  C       -3.5304630    -1.3875060    -0.0828830
  H        4.4130950    -1.6928310     0.0671840
  H        4.0710030    -0.5292960     1.3442740
  H        4.4878230     0.6919580    -0.7653020
  H        3.2457620    -0.2529490    -1.5933530
  H        1.9831950    -2.1398170    -0.2152240
  H        2.4267450    -2.3652010     1.4815110
  H        2.7768740     1.6847790     0.7291870
  H        2.2671880     1.9220510    -0.9540200
  H        0.3069530    -1.0243470     1.2170770
  H        1.5834140    -0.1085280     2.0346680
  H       -0.4031770    -1.5700500    -1.4080150
  H       -4.3043690     0.2928860     1.0181070
  H       -2.0253310     2.7815300     0.2022010
  H       -3.1368610     2.2826280     1.5002420
  H       -1.4595310     2.1066428     1.6350216
  H       -2.4977120    -2.9041740    -1.2220500
  H       -4.4499260    -1.9612690     0.0072960
units angstrom
no_reorient  #important for SAPT in psi4, default
symmetry c1  #important for SAPT in psi4, default
}

set PROPERTIES_ORIGIN ["COM"]
properties('MP2/aug-cc-pvtz', properties = ['dipole'])
--------------------------------------------------------------------------

    Molecular point group: c1
  Charge       = 0
  Multiplicity = 1
  Basis Set: AUG-CC-PVTZ
    Blend: AUG-CC-PVTZ
  Basis Set: (AUG-CC-PVTZ AUX)
    Blend: AUG-CC-PVTZ-JKFIT

    Orbital Energies [Eh]
    ---------------------

    Doubly Occupied:

       1A    -20.510891     2A    -15.584014     3A    -11.349480
       4A    -11.267150     5A    -11.254735     6A    -11.251148
       7A    -11.246122     8A    -11.244764     9A    -11.242344
      10A    -11.238839    11A    -11.236443    12A    -11.230688
      13A    -11.228380    14A    -11.225748    15A    -11.207843
      16A     -1.367107    17A     -1.249698    18A     -1.161329
      19A     -1.083664    20A     -1.052897    21A     -1.037368
      22A     -1.023073    23A     -0.949054    24A     -0.920701
      25A     -0.867637    26A     -0.844111    27A     -0.816279
      28A     -0.791782    29A     -0.742927    30A     -0.712825
      31A     -0.667273    32A     -0.652802    33A     -0.648806
      34A     -0.628006    35A     -0.620314    36A     -0.615997
      37A     -0.597183    38A     -0.589643    39A     -0.584712
      40A     -0.573197    41A     -0.560272    42A     -0.548196
      43A     -0.541875    44A     -0.525843    45A     -0.509469
      46A     -0.502405    47A     -0.491872    48A     -0.489055
      49A     -0.478507    50A     -0.469714    51A     -0.461621
      52A     -0.416935    53A     -0.366329    54A     -0.339737
      55A     -0.330241

  @DF-RHF Final Energy:  -631.72474046254433

   => Energetics <=

    Nuclear Repulsion Energy =           1000.3921424470307784
    One-Electron Energy =               -2843.9356749215176023
    Two-Electron Energy =                1211.8187920119423779
    Total Energy =                       -631.7247404625443323
  Basis Set: (AUG-CC-PVTZ AUX)
    Blend: AUG-CC-PVTZ-RI
    Molecular point group: c1

    Geometry (in Angstrom), charge = 0, multiplicity = 1:

       Center              X                  Y                   Z               Mass
    ------------   -----------------  -----------------  -----------------  -----------------
         O            0.057001451617     1.936985857492    -1.183443222463    15.994914619570
         N            1.256566451617     0.449362857492     0.085104777537    14.003074004430
         C            3.727674451617    -0.964485142508     0.432705777537    12.000000000000
         C            3.580293451617     0.155787857492    -0.597616222463    12.000000000000
         C            2.379627451617    -1.631542142508     0.709301777537    12.000000000000
         C            2.510273451617     1.154190857492    -0.165677222463    12.000000000000
         C            1.337546451617    -0.589523142508     1.105988777537    12.000000000000
         C            0.098798451617     0.915330857492    -0.484324222463    12.000000000000
         C           -1.134752548383     0.088549857492    -0.269166222463    12.000000000000
         C           -2.236322548383     0.642144857492     0.408935777537    12.000000000000
         C           -1.216206548383    -1.185171142508    -0.845121222463    12.000000000000
         C           -3.399346548383    -0.128873142508     0.513391777537    12.000000000000
         C           -2.160510548383     2.023349857492     1.006403777537    12.000000000000
         C           -2.390577548383    -1.931702142508    -0.742093222463    12.000000000000
         C           -3.484389548383    -1.401003142508    -0.057460222463    12.000000000000
         H            4.459168451617    -1.706328142508     0.092606777537     1.007825032230
         H            4.117076451617    -0.542793142508     1.369696777537     1.007825032230
         H            4.533896451617     0.678460857492    -0.739879222463     1.007825032230
         H            3.291835451617    -0.266446142508    -1.567930222463     1.007825032230
         H            2.029268451617    -2.153314142508    -0.189801222463     1.007825032230
         H            2.472818451617    -2.378698142508     1.506933777537     1.007825032230
         H            2.822947451617     1.671281857492     0.754609777537     1.007825032230
         H            2.313261451617     1.908553857492    -0.928597222463     1.007825032230
         H            0.353026451617    -1.037844142508     1.242499777537     1.007825032230
         H            1.629487451617    -0.122025142508     2.060090777537     1.007825032230
         H           -0.357103548383    -1.583547142508    -1.382592222463     1.007825032230
         H           -4.258295548383     0.279388857492     1.043529777537     1.007825032230
         H           -1.979257548383     2.768032857492     0.227623777537     1.007825032230
         H           -3.090787548383     2.269130857492     1.525664777537     1.007825032230
         H           -1.413457548383     2.093145657492     1.660444377537     1.007825032230
         H           -2.451638548383    -2.917671142508    -1.196627222463     1.007825032230
         H           -4.403852548383    -1.974766142508     0.032718777537     1.007825032230

  Basis Set: AUG-CC-PVTZ
    Blend: AUG-CC-PVTZ
  Basis Set: (AUG-CC-PVTZ AUX)
    Blend: AUG-CC-PVTZ-JKFIT
	 Reference Energy          =    -631.7247404625443323 [Eh]
	 Singles Energy            =      -0.0000000000000000 [Eh]
	 Same-Spin Energy          =      -0.6890088519796875 [Eh]
	 Opposite-Spin Energy      =      -2.2117668497031455 [Eh]
	 Correlation Energy        =      -2.9007757016828331 [Eh]
	 Total Energy              =    -634.6255161642271787 [Eh]

	 ================> DF-SCS-MP2 Energies <==================
	-----------------------------------------------------------
	 SCS Same-Spin Scale       =       0.3333333333333333 [-]
	 SCS Opposite-Spin Scale   =       1.2000000000000000 [-]
	 SCS Same-Spin Energy      =      -0.2296696173265625 [Eh]
	 SCS Opposite-Spin Energy  =      -2.6541202196437745 [Eh]
	 SCS Correlation Energy    =      -2.8837898369703372 [Eh]
	 SCS Total Energy          =    -634.6085302995146549 [Eh]
	-----------------------------------------------------------

  Dipole Moment: [D]
     X:     1.4313      Y:    -2.5014      Z:     2.3338     Total:     3.7084

*** Psi4 exiting successfully. Buy a developer a beer!
