                               Psi4 1.4a3.dev225

  ==> Input File <==

--------------------------------------------------------------------------
#psi4
#
memory 32 gb

molecule  {
0 1
  O        0.0109280     1.9504830    -1.2088660
  N        1.2104930     0.4628600     0.0596820
  C        3.6816010    -0.9509880     0.4072830
  C        3.5342200     0.1692850    -0.6230390
  C        2.3335540    -1.6180450     0.6838790
  C        2.4642000     1.1676880    -0.1911000
  C        1.2914730    -0.5760260     1.0805660
  C        0.0527250     0.9288280    -0.5097470
  C       -1.1808260     0.1020470    -0.2945890
  C       -2.2823960     0.6556420     0.3835130
  C       -1.2622800    -1.1716740    -0.8705440
  C       -3.4454200    -0.1153760     0.4879690
  C       -2.2065840     2.0368470     0.9809810
  C       -2.4366510    -1.9182050    -0.7675160
  C       -3.5304630    -1.3875060    -0.0828830
  H        4.4130950    -1.6928310     0.0671840
  H        4.0710030    -0.5292960     1.3442740
  H        4.4878230     0.6919580    -0.7653020
  H        3.2326122    -0.2721972    -1.6375863
  H        1.9831950    -2.1398170    -0.2152240
  H        2.4267450    -2.3652010     1.4815110
  H        2.7768740     1.6847790     0.7291870
  H        2.2671880     1.9220510    -0.9540200
  H        0.3069530    -1.0243470     1.2170770
  H        1.5834140    -0.1085280     2.0346680
  H       -0.4031770    -1.5700500    -1.4080150
  H       -4.3043690     0.2928860     1.0181070
  H       -2.0253310     2.7815300     0.2022010
  H       -3.1368610     2.2826280     1.5002420
  H       -1.3844770     2.1136550     1.7007310
  H       -2.4977120    -2.9041740    -1.2220500
  H       -4.4499260    -1.9612690     0.0072960
units angstrom
no_reorient  #important for SAPT in psi4, default
symmetry c1  #important for SAPT in psi4, default
}

set PROPERTIES_ORIGIN ["COM"]
properties('MP2/aug-cc-pvtz', properties = ['dipole'])
--------------------------------------------------------------------------

    Molecular point group: c1
  Charge       = 0
  Multiplicity = 1
  Basis Set: AUG-CC-PVTZ
    Blend: AUG-CC-PVTZ
  Basis Set: (AUG-CC-PVTZ AUX)
    Blend: AUG-CC-PVTZ-JKFIT

    Orbital Energies [Eh]
    ---------------------

    Doubly Occupied:

       1A    -20.510815     2A    -15.583967     3A    -11.349505
       4A    -11.267173     5A    -11.255230     6A    -11.251856
       7A    -11.246331     8A    -11.245014     9A    -11.242646
      10A    -11.239129    11A    -11.236977    12A    -11.231887
      13A    -11.230724    14A    -11.228844    15A    -11.220361
      16A     -1.367029    17A     -1.249644    18A     -1.161427
      19A     -1.083069    20A     -1.050811    21A     -1.037137
      22A     -1.022599    23A     -0.943203    24A     -0.919004
      25A     -0.866027    26A     -0.844189    27A     -0.815002
      28A     -0.789214    29A     -0.741888    30A     -0.712431
      31A     -0.666805    32A     -0.652578    33A     -0.648334
      34A     -0.627017    35A     -0.619657    36A     -0.615291
      37A     -0.595825    38A     -0.587811    39A     -0.575660
      40A     -0.571835    41A     -0.560445    42A     -0.547690
      43A     -0.541626    44A     -0.524686    45A     -0.507783
      46A     -0.500420    47A     -0.491267    48A     -0.489079
      49A     -0.477131    50A     -0.468307    51A     -0.461845
      52A     -0.416979    53A     -0.366397    54A     -0.339993
      55A     -0.330005

  @DF-RHF Final Energy:  -631.72862010937661

   => Energetics <=

    Nuclear Repulsion Energy =            999.7466051262351812
    One-Electron Energy =               -2842.6952517866811831
    Two-Electron Energy =                1211.2200265510693953
    Total Energy =                       -631.7286201093766067
  Basis Set: (AUG-CC-PVTZ AUX)
    Blend: AUG-CC-PVTZ-RI
    Molecular point group: c1

    Geometry (in Angstrom), charge = 0, multiplicity = 1:

       Center              X                  Y                   Z               Mass
    ------------   -----------------  -----------------  -----------------  -----------------
         O            0.056694316822     1.937046565835    -1.183549775130    15.994914619570
         N            1.256259316822     0.449423565835     0.084998224870    14.003074004430
         C            3.727367316822    -0.964424434165     0.432599224870    12.000000000000
         C            3.579986316822     0.155848565835    -0.597722775130    12.000000000000
         C            2.379320316822    -1.631481434165     0.709195224870    12.000000000000
         C            2.509966316822     1.154251565835    -0.165783775130    12.000000000000
         C            1.337239316822    -0.589462434165     1.105882224870    12.000000000000
         C            0.098491316822     0.915391565835    -0.484430775130    12.000000000000
         C           -1.135059683178     0.088610565835    -0.269272775130    12.000000000000
         C           -2.236629683178     0.642205565835     0.408829224870    12.000000000000
         C           -1.216513683178    -1.185110434165    -0.845227775130    12.000000000000
         C           -3.399653683178    -0.128812434165     0.513285224870    12.000000000000
         C           -2.160817683178     2.023410565835     1.006297224870    12.000000000000
         C           -2.390884683178    -1.931641434165    -0.742199775130    12.000000000000
         C           -3.484696683178    -1.400942434165    -0.057566775130    12.000000000000
         H            4.458861316822    -1.706267434165     0.092500224870     1.007825032230
         H            4.116769316822    -0.542732434165     1.369590224870     1.007825032230
         H            4.533589316822     0.678521565835    -0.739985775130     1.007825032230
         H            3.278378516822    -0.285633634165    -1.612270075130     1.007825032230
         H            2.028961316822    -2.153253434165    -0.189907775130     1.007825032230
         H            2.472511316822    -2.378637434165     1.506827224870     1.007825032230
         H            2.822640316822     1.671342565835     0.754503224870     1.007825032230
         H            2.312954316822     1.908614565835    -0.928703775130     1.007825032230
         H            0.352719316822    -1.037783434165     1.242393224870     1.007825032230
         H            1.629180316822    -0.121964434165     2.059984224870     1.007825032230
         H           -0.357410683178    -1.583486434165    -1.382698775130     1.007825032230
         H           -4.258602683178     0.279449565835     1.043423224870     1.007825032230
         H           -1.979564683178     2.768093565835     0.227517224870     1.007825032230
         H           -3.091094683178     2.269191565835     1.525558224870     1.007825032230
         H           -1.338710683178     2.100218565835     1.726047224870     1.007825032230
         H           -2.451945683178    -2.917610434165    -1.196733775130     1.007825032230
         H           -4.404159683178    -1.974705434165     0.032612224870     1.007825032230

  Basis Set: AUG-CC-PVTZ
    Blend: AUG-CC-PVTZ
  Basis Set: (AUG-CC-PVTZ AUX)
    Blend: AUG-CC-PVTZ-JKFIT
	 Reference Energy          =    -631.7286201093766067 [Eh]
	 Singles Energy            =      -0.0000000000000000 [Eh]
	 Same-Spin Energy          =      -0.6890351530680582 [Eh]
	 Opposite-Spin Energy      =      -2.2126162677117249 [Eh]
	 Correlation Energy        =      -2.9016514207797832 [Eh]
	 Total Energy              =    -634.6302715301563921 [Eh]

	 ================> DF-SCS-MP2 Energies <==================
	-----------------------------------------------------------
	 SCS Same-Spin Scale       =       0.3333333333333333 [-]
	 SCS Opposite-Spin Scale   =       1.2000000000000000 [-]
	 SCS Same-Spin Energy      =      -0.2296783843560194 [Eh]
	 SCS Opposite-Spin Energy  =      -2.6551395212540698 [Eh]
	 SCS Correlation Energy    =      -2.8848179056100891 [Eh]
	 SCS Total Energy          =    -634.6134380149867411 [Eh]
	-----------------------------------------------------------

  Dipole Moment: [D]
     X:     1.4064      Y:    -2.5104      Z:     2.3348     Total:     3.7056

*** Psi4 exiting successfully. Buy a developer a beer!
