                               Psi4 1.4a3.dev225

  ==> Input File <==

--------------------------------------------------------------------------
#psi4
#
memory 32 gb

molecule  {
0 1
  O        0.0109280     1.9504830    -1.2088660
  N        1.2104930     0.4628600     0.0596820
  C        3.6816010    -0.9509880     0.4072830
  C        3.5342200     0.1692850    -0.6230390
  C        2.3335540    -1.6180450     0.6838790
  C        2.4642000     1.1676880    -0.1911000
  C        1.2914730    -0.5760260     1.0805660
  C        0.0527250     0.9288280    -0.5097470
  C       -1.1808260     0.1020470    -0.2945890
  C       -2.3797257     0.6480637     0.4226392
  C       -1.2622800    -1.1716740    -0.8705440
  C       -3.4454200    -0.1153760     0.4879690
  C       -2.2065840     2.0368470     0.9809810
  C       -2.4366510    -1.9182050    -0.7675160
  C       -3.5304630    -1.3875060    -0.0828830
  H        4.4130950    -1.6928310     0.0671840
  H        4.0710030    -0.5292960     1.3442740
  H        4.4878230     0.6919580    -0.7653020
  H        3.2457620    -0.2529490    -1.5933530
  H        1.9831950    -2.1398170    -0.2152240
  H        2.4267450    -2.3652010     1.4815110
  H        2.7768740     1.6847790     0.7291870
  H        2.2671880     1.9220510    -0.9540200
  H        0.3069530    -1.0243470     1.2170770
  H        1.5834140    -0.1085280     2.0346680
  H       -0.4031770    -1.5700500    -1.4080150
  H       -4.3043690     0.2928860     1.0181070
  H       -2.0253310     2.7815300     0.2022010
  H       -3.1368610     2.2826280     1.5002420
  H       -1.3844770     2.1136550     1.7007310
  H       -2.4977120    -2.9041740    -1.2220500
  H       -4.4499260    -1.9612690     0.0072960
units angstrom
no_reorient  #important for SAPT in psi4, default
symmetry c1  #important for SAPT in psi4, default
}

set PROPERTIES_ORIGIN ["COM"]
properties('MP2/aug-cc-pvtz', properties = ['dipole'])
--------------------------------------------------------------------------

    Molecular point group: c1
  Charge       = 0
  Multiplicity = 1
  Basis Set: AUG-CC-PVTZ
    Blend: AUG-CC-PVTZ
  Basis Set: (AUG-CC-PVTZ AUX)
    Blend: AUG-CC-PVTZ-JKFIT

    Orbital Energies [Eh]
    ---------------------

    Doubly Occupied:

       1A    -20.510908     2A    -15.584272     3A    -11.350884
       4A    -11.266690     5A    -11.254847     6A    -11.253201
       7A    -11.250274     8A    -11.245364     9A    -11.243286
      10A    -11.239540    11A    -11.230590    12A    -11.228331
      13A    -11.226665    14A    -11.225759    15A    -11.220759
      16A     -1.366990    17A     -1.249715    18A     -1.161709
      19A     -1.083843    20A     -1.053060    21A     -1.037912
      22A     -1.022433    23A     -0.945038    24A     -0.919207
      25A     -0.869224    26A     -0.847334    27A     -0.804415
      28A     -0.793901    29A     -0.743374    30A     -0.712648
      31A     -0.667315    32A     -0.650819    33A     -0.648588
      34A     -0.627802    35A     -0.619901    36A     -0.614775
      37A     -0.596087    38A     -0.587978    39A     -0.580744
      40A     -0.572202    41A     -0.559066    42A     -0.547052
      43A     -0.541393    44A     -0.524170    45A     -0.518805
      46A     -0.502460    47A     -0.491599    48A     -0.480244
      49A     -0.469959    50A     -0.468680    51A     -0.461665
      52A     -0.418354    53A     -0.366343    54A     -0.351321
      55A     -0.322175

  @DF-RHF Final Energy:  -631.71711884807780

   => Energetics <=

    Nuclear Repulsion Energy =            998.8971007376085254
    One-Electron Energy =               -2840.9650969464896662
    Two-Electron Energy =                1210.3508773608034517
    Total Energy =                       -631.7171188480776891
  Basis Set: (AUG-CC-PVTZ AUX)
    Blend: AUG-CC-PVTZ-RI
    Molecular point group: c1

    Geometry (in Angstrom), charge = 0, multiplicity = 1:

       Center              X                  Y                   Z               Mass
    ------------   -----------------  -----------------  -----------------  -----------------
         O            0.062378843663     1.937398756181    -1.186080623652    15.994914619570
         N            1.261943843663     0.449775756181     0.082467376348    14.003074004430
         C            3.733051843663    -0.964072243819     0.430068376348    12.000000000000
         C            3.585670843663     0.156200756181    -0.600253623652    12.000000000000
         C            2.385004843663    -1.631129243819     0.706664376348    12.000000000000
         C            2.515650843663     1.154603756181    -0.168314623652    12.000000000000
         C            1.342923843663    -0.589110243819     1.103351376348    12.000000000000
         C            0.104175843663     0.915743756181    -0.486961623652    12.000000000000
         C           -1.129375156337     0.088962756181    -0.271803623652    12.000000000000
         C           -2.328274856337     0.634979456181     0.445424576348    12.000000000000
         C           -1.210829156337    -1.184758243819    -0.847758623652    12.000000000000
         C           -3.393969156337    -0.128460243819     0.510754376348    12.000000000000
         C           -2.155133156337     2.023762756181     1.003766376348    12.000000000000
         C           -2.385200156337    -1.931289243819    -0.744730623652    12.000000000000
         C           -3.479012156337    -1.400590243819    -0.060097623652    12.000000000000
         H            4.464545843663    -1.705915243819     0.089969376348     1.007825032230
         H            4.122453843663    -0.542380243819     1.367059376348     1.007825032230
         H            4.539273843663     0.678873756181    -0.742516623652     1.007825032230
         H            3.297212843663    -0.266033243819    -1.570567623652     1.007825032230
         H            2.034645843663    -2.152901243819    -0.192438623652     1.007825032230
         H            2.478195843663    -2.378285243819     1.504296376348     1.007825032230
         H            2.828324843663     1.671694756181     0.751972376348     1.007825032230
         H            2.318638843663     1.908966756181    -0.931234623652     1.007825032230
         H            0.358403843663    -1.037431243819     1.239862376348     1.007825032230
         H            1.634864843663    -0.121612243819     2.057453376348     1.007825032230
         H           -0.351726156337    -1.583134243819    -1.385229623652     1.007825032230
         H           -4.252918156337     0.279801756181     1.040892376348     1.007825032230
         H           -1.973880156337     2.768445756181     0.224986376348     1.007825032230
         H           -3.085410156337     2.269543756181     1.523027376348     1.007825032230
         H           -1.333026156337     2.100570756181     1.723516376348     1.007825032230
         H           -2.446261156337    -2.917258243819    -1.199264623652     1.007825032230
         H           -4.398475156337    -1.974353243819     0.030081376348     1.007825032230

  Basis Set: AUG-CC-PVTZ
    Blend: AUG-CC-PVTZ
  Basis Set: (AUG-CC-PVTZ AUX)
    Blend: AUG-CC-PVTZ-JKFIT
	 Reference Energy          =    -631.7171188480778028 [Eh]
	 Singles Energy            =      -0.0000000000000000 [Eh]
	 Same-Spin Energy          =      -0.6887444465615606 [Eh]
	 Opposite-Spin Energy      =      -2.2128942833512730 [Eh]
	 Correlation Energy        =      -2.9016387299128334 [Eh]
	 Total Energy              =    -634.6187575779906638 [Eh]

	 ================> DF-SCS-MP2 Energies <==================
	-----------------------------------------------------------
	 SCS Same-Spin Scale       =       0.3333333333333333 [-]
	 SCS Opposite-Spin Scale   =       1.2000000000000000 [-]
	 SCS Same-Spin Energy      =      -0.2295814821871869 [Eh]
	 SCS Opposite-Spin Energy  =      -2.6554731400215275 [Eh]
	 SCS Correlation Energy    =      -2.8850546222087141 [Eh]
	 SCS Total Energy          =    -634.6021734702865160 [Eh]
	-----------------------------------------------------------

  Dipole Moment: [D]
     X:     1.4414      Y:    -2.5224      Z:     2.2902     Total:     3.6993

*** Psi4 exiting successfully. Buy a developer a beer!
