                               Psi4 1.4a3.dev225

  ==> Input File <==

--------------------------------------------------------------------------
#psi4
#
memory 32 gb

molecule  {
0 1
  O        0.0109280     1.9504830    -1.2088660
  N        1.2104930     0.4628600     0.0596820
  C        3.6816010    -0.9509880     0.4072830
  C        3.5342200     0.1692850    -0.6230390
  C        2.3335540    -1.6180450     0.6838790
  C        2.4642000     1.1676880    -0.1911000
  C        1.2914730    -0.5760260     1.0805660
  C        0.0527250     0.9288280    -0.5097470
  C       -1.1808260     0.1020470    -0.2945890
  C       -2.2823960     0.6556420     0.3835130
  C       -1.2593715    -1.1261924    -0.8499780
  C       -3.4454200    -0.1153760     0.4879690
  C       -2.2065840     2.0368470     0.9809810
  C       -2.4366510    -1.9182050    -0.7675160
  C       -3.5304630    -1.3875060    -0.0828830
  H        4.4130950    -1.6928310     0.0671840
  H        4.0710030    -0.5292960     1.3442740
  H        4.4878230     0.6919580    -0.7653020
  H        3.2457620    -0.2529490    -1.5933530
  H        1.9831950    -2.1398170    -0.2152240
  H        2.4267450    -2.3652010     1.4815110
  H        2.7768740     1.6847790     0.7291870
  H        2.2671880     1.9220510    -0.9540200
  H        0.3069530    -1.0243470     1.2170770
  H        1.5834140    -0.1085280     2.0346680
  H       -0.4031770    -1.5700500    -1.4080150
  H       -4.3043690     0.2928860     1.0181070
  H       -2.0253310     2.7815300     0.2022010
  H       -3.1368610     2.2826280     1.5002420
  H       -1.3844770     2.1136550     1.7007310
  H       -2.4977120    -2.9041740    -1.2220500
  H       -4.4499260    -1.9612690     0.0072960
units angstrom
no_reorient  #important for SAPT in psi4, default
symmetry c1  #important for SAPT in psi4, default
}

set PROPERTIES_ORIGIN ["COM"]
properties('MP2/aug-cc-pvtz', properties = ['dipole'])
--------------------------------------------------------------------------

    Molecular point group: c1
  Charge       = 0
  Multiplicity = 1
  Basis Set: AUG-CC-PVTZ
    Blend: AUG-CC-PVTZ
  Basis Set: (AUG-CC-PVTZ AUX)
    Blend: AUG-CC-PVTZ-JKFIT

    Orbital Energies [Eh]
    ---------------------

    Doubly Occupied:

       1A    -20.511000     2A    -15.584005     3A    -11.349583
       4A    -11.267184     5A    -11.254693     6A    -11.252110
       7A    -11.245332     8A    -11.242537     9A    -11.240901
      10A    -11.240498    11A    -11.235954    12A    -11.230579
      13A    -11.228299    14A    -11.225657    15A    -11.220427
      16A     -1.367309    17A     -1.249757    18A     -1.164689
      19A     -1.083706    20A     -1.048572    21A     -1.039654
      22A     -1.025802    23A     -0.941253    24A     -0.919954
      25A     -0.867141    26A     -0.841747    27A     -0.815957
      28A     -0.792445    29A     -0.743776    30A     -0.713415
      31A     -0.664664    32A     -0.653255    33A     -0.648519
      34A     -0.627399    35A     -0.621992    36A     -0.614419
      37A     -0.597555    38A     -0.588151    39A     -0.573121
      40A     -0.571764    41A     -0.560509    42A     -0.547410
      43A     -0.541026    44A     -0.524772    45A     -0.506438
      46A     -0.502787    47A     -0.491444    48A     -0.489918
      49A     -0.478915    50A     -0.469691    51A     -0.461562
      52A     -0.416670    53A     -0.366310    54A     -0.345676
      55A     -0.326856

  @DF-RHF Final Energy:  -631.72805453763658

   => Energetics <=

    Nuclear Repulsion Energy =           1000.8402996882049365
    One-Electron Energy =               -2844.8671881771588232
    Two-Electron Energy =                1212.2988339513171923
    Total Energy =                       -631.7280545376365808
  Basis Set: (AUG-CC-PVTZ AUX)
    Blend: AUG-CC-PVTZ-RI
    Molecular point group: c1

    Geometry (in Angstrom), charge = 0, multiplicity = 1:

       Center              X                  Y                   Z               Mass
    ------------   -----------------  -----------------  -----------------  -----------------
         O            0.056457254560     1.934264233358    -1.184984176608    15.994914619570
         N            1.256022254560     0.446641233358     0.083563823392    14.003074004430
         C            3.727130254560    -0.967206766642     0.431164823392    12.000000000000
         C            3.579749254560     0.153066233358    -0.599157176608    12.000000000000
         C            2.379083254560    -1.634263766642     0.707760823392    12.000000000000
         C            2.509729254560     1.151469233358    -0.167218176608    12.000000000000
         C            1.337002254560    -0.592244766642     1.104447823392    12.000000000000
         C            0.098254254560     0.912609233358    -0.485865176608    12.000000000000
         C           -1.135296745440     0.085828233358    -0.270707176608    12.000000000000
         C           -2.236866745440     0.639423233358     0.407394823392    12.000000000000
         C           -1.213842245440    -1.142411166642    -0.826096176608    12.000000000000
         C           -3.399890745440    -0.131594766642     0.511850823392    12.000000000000
         C           -2.161054745440     2.020628233358     1.004862823392    12.000000000000
         C           -2.391121745440    -1.934423766642    -0.743634176608    12.000000000000
         C           -3.484933745440    -1.403724766642    -0.059001176608    12.000000000000
         H            4.458624254560    -1.709049766642     0.091065823392     1.007825032230
         H            4.116532254560    -0.545514766642     1.368155823392     1.007825032230
         H            4.533352254560     0.675739233358    -0.741420176608     1.007825032230
         H            3.291291254560    -0.269167766642    -1.569471176608     1.007825032230
         H            2.028724254560    -2.156035766642    -0.191342176608     1.007825032230
         H            2.472274254560    -2.381419766642     1.505392823392     1.007825032230
         H            2.822403254560     1.668560233358     0.753068823392     1.007825032230
         H            2.312717254560     1.905832233358    -0.930138176608     1.007825032230
         H            0.352482254560    -1.040565766642     1.240958823392     1.007825032230
         H            1.628943254560    -0.124746766642     2.058549823392     1.007825032230
         H           -0.357647745440    -1.586268766642    -1.384133176608     1.007825032230
         H           -4.258839745440     0.276667233358     1.041988823392     1.007825032230
         H           -1.979801745440     2.765311233358     0.226082823392     1.007825032230
         H           -3.091331745440     2.266409233358     1.524123823392     1.007825032230
         H           -1.338947745440     2.097436233358     1.724612823392     1.007825032230
         H           -2.452182745440    -2.920392766642    -1.198168176608     1.007825032230
         H           -4.404396745440    -1.977487766642     0.031177823392     1.007825032230

  Basis Set: AUG-CC-PVTZ
    Blend: AUG-CC-PVTZ
  Basis Set: (AUG-CC-PVTZ AUX)
    Blend: AUG-CC-PVTZ-JKFIT
	 Reference Energy          =    -631.7280545376365808 [Eh]
	 Singles Energy            =      -0.0000000000000000 [Eh]
	 Same-Spin Energy          =      -0.6888782650528062 [Eh]
	 Opposite-Spin Energy      =      -2.2121790750910750 [Eh]
	 Correlation Energy        =      -2.9010573401438813 [Eh]
	 Total Energy              =    -634.6291118777804741 [Eh]

	 ================> DF-SCS-MP2 Energies <==================
	-----------------------------------------------------------
	 SCS Same-Spin Scale       =       0.3333333333333333 [-]
	 SCS Opposite-Spin Scale   =       1.2000000000000000 [-]
	 SCS Same-Spin Energy      =      -0.2296260883509354 [Eh]
	 SCS Opposite-Spin Energy  =      -2.6546148901092899 [Eh]
	 SCS Correlation Energy    =      -2.8842409784602254 [Eh]
	 SCS Total Energy          =    -634.6122955160967649 [Eh]
	-----------------------------------------------------------

  Dipole Moment: [D]
     X:     1.4000      Y:    -2.5260      Z:     2.3028     Total:     3.6937

*** Psi4 exiting successfully. Buy a developer a beer!
