                               Psi4 1.4a3.dev225

  ==> Input File <==

--------------------------------------------------------------------------
#psi4
#
memory 32 gb

molecule  {
0 1
  O        0.0109280     1.9504830    -1.2088660
  N        1.2825823     0.4127809     0.0080792
  C        3.6816010    -0.9509880     0.4072830
  C        3.5342200     0.1692850    -0.6230390
  C        2.3335540    -1.6180450     0.6838790
  C        2.4642000     1.1676880    -0.1911000
  C        1.2914730    -0.5760260     1.0805660
  C        0.0527250     0.9288280    -0.5097470
  C       -1.1808260     0.1020470    -0.2945890
  C       -2.2823960     0.6556420     0.3835130
  C       -1.2622800    -1.1716740    -0.8705440
  C       -3.4454200    -0.1153760     0.4879690
  C       -2.2065840     2.0368470     0.9809810
  C       -2.4366510    -1.9182050    -0.7675160
  C       -3.5304630    -1.3875060    -0.0828830
  H        4.4130950    -1.6928310     0.0671840
  H        4.0710030    -0.5292960     1.3442740
  H        4.4878230     0.6919580    -0.7653020
  H        3.2457620    -0.2529490    -1.5933530
  H        1.9831950    -2.1398170    -0.2152240
  H        2.4267450    -2.3652010     1.4815110
  H        2.7768740     1.6847790     0.7291870
  H        2.2671880     1.9220510    -0.9540200
  H        0.3069530    -1.0243470     1.2170770
  H        1.5834140    -0.1085280     2.0346680
  H       -0.4031770    -1.5700500    -1.4080150
  H       -4.3043690     0.2928860     1.0181070
  H       -2.0253310     2.7815300     0.2022010
  H       -3.1368610     2.2826280     1.5002420
  H       -1.3844770     2.1136550     1.7007310
  H       -2.4977120    -2.9041740    -1.2220500
  H       -4.4499260    -1.9612690     0.0072960
units angstrom
no_reorient  #important for SAPT in psi4, default
symmetry c1  #important for SAPT in psi4, default
}

set PROPERTIES_ORIGIN ["COM"]
properties('MP2/aug-cc-pvtz', properties = ['dipole'])
--------------------------------------------------------------------------

    Molecular point group: c1
  Charge       = 0
  Multiplicity = 1
  Basis Set: AUG-CC-PVTZ
    Blend: AUG-CC-PVTZ
  Basis Set: (AUG-CC-PVTZ AUX)
    Blend: AUG-CC-PVTZ-JKFIT

    Orbital Energies [Eh]
    ---------------------

    Doubly Occupied:

       1A    -20.522580     2A    -15.579822     3A    -11.357687
       4A    -11.263840     5A    -11.254570     6A    -11.249328
       7A    -11.248265     8A    -11.247831     9A    -11.244793
      10A    -11.240856    11A    -11.238903    12A    -11.226074
      13A    -11.224884    14A    -11.222773    15A    -11.219981
      16A     -1.370313    17A     -1.250732    18A     -1.163900
      19A     -1.075324    20A     -1.053078    21A     -1.039605
      22A     -1.023399    23A     -0.943438    24A     -0.908998
      25A     -0.865255    26A     -0.844253    27A     -0.815607
      28A     -0.786304    29A     -0.747374    30A     -0.713478
      31A     -0.669601    32A     -0.653516    33A     -0.648513
      34A     -0.627083    35A     -0.620347    36A     -0.612379
      37A     -0.596803    38A     -0.584784    39A     -0.577592
      40A     -0.573484    41A     -0.564726    42A     -0.546299
      43A     -0.540712    44A     -0.525157    45A     -0.509545
      46A     -0.500954    47A     -0.493307    48A     -0.489420
      49A     -0.476920    50A     -0.466549    51A     -0.457055
      52A     -0.422304    53A     -0.362588    54A     -0.342039
      55A     -0.332298

  @DF-RHF Final Energy:  -631.72220291214364

   => Energetics <=

    Nuclear Repulsion Energy =            999.7499320808509538
    One-Electron Energy =               -2842.6698371678376134
    Two-Electron Energy =                1211.1977021748427887
    Total Energy =                       -631.7222029121437572
  Basis Set: (AUG-CC-PVTZ AUX)
    Blend: AUG-CC-PVTZ-RI
    Molecular point group: c1

    Geometry (in Angstrom), charge = 0, multiplicity = 1:

       Center              X                  Y                   Z               Mass
    ------------   -----------------  -----------------  -----------------  -----------------
         O            0.051659514507     1.940403328111    -1.180211937218    15.994914619570
         N            1.323313814507     0.402701228111     0.036733262782    14.003074004430
         C            3.722332514507    -0.961067671889     0.435937062782    12.000000000000
         C            3.574951514507     0.159205328111    -0.594384937218    12.000000000000
         C            2.374285514507    -1.628124671889     0.712533062782    12.000000000000
         C            2.504931514507     1.157608328111    -0.162445937218    12.000000000000
         C            1.332204514507    -0.586105671889     1.109220062782    12.000000000000
         C            0.093456514507     0.918748328111    -0.481092937218    12.000000000000
         C           -1.140094485493     0.091967328111    -0.265934937218    12.000000000000
         C           -2.241664485493     0.645562328111     0.412167062782    12.000000000000
         C           -1.221548485493    -1.181753671889    -0.841889937218    12.000000000000
         C           -3.404688485493    -0.125455671889     0.516623062782    12.000000000000
         C           -2.165852485493     2.026767328111     1.009635062782    12.000000000000
         C           -2.395919485493    -1.928284671889    -0.738861937218    12.000000000000
         C           -3.489731485493    -1.397585671889    -0.054228937218    12.000000000000
         H            4.453826514507    -1.702910671889     0.095838062782     1.007825032230
         H            4.111734514507    -0.539375671889     1.372928062782     1.007825032230
         H            4.528554514507     0.681878328111    -0.736647937218     1.007825032230
         H            3.286493514507    -0.263028671889    -1.564698937218     1.007825032230
         H            2.023926514507    -2.149896671889    -0.186569937218     1.007825032230
         H            2.467476514507    -2.375280671889     1.510165062782     1.007825032230
         H            2.817605514507     1.674699328111     0.757841062782     1.007825032230
         H            2.307919514507     1.911971328111    -0.925365937218     1.007825032230
         H            0.347684514507    -1.034426671889     1.245731062782     1.007825032230
         H            1.624145514507    -0.118607671889     2.063322062782     1.007825032230
         H           -0.362445485493    -1.580129671889    -1.379360937218     1.007825032230
         H           -4.263637485493     0.282806328111     1.046761062782     1.007825032230
         H           -1.984599485493     2.771450328111     0.230855062782     1.007825032230
         H           -3.096129485493     2.272548328111     1.528896062782     1.007825032230
         H           -1.343745485493     2.103575328111     1.729385062782     1.007825032230
         H           -2.456980485493    -2.914253671889    -1.193395937218     1.007825032230
         H           -4.409194485493    -1.971348671889     0.035950062782     1.007825032230

  Basis Set: AUG-CC-PVTZ
    Blend: AUG-CC-PVTZ
  Basis Set: (AUG-CC-PVTZ AUX)
    Blend: AUG-CC-PVTZ-JKFIT
	 Reference Energy          =    -631.7222029121436435 [Eh]
	 Singles Energy            =      -0.0000000000000000 [Eh]
	 Same-Spin Energy          =      -0.6898038374331492 [Eh]
	 Opposite-Spin Energy      =      -2.2139245353816888 [Eh]
	 Correlation Energy        =      -2.9037283728148378 [Eh]
	 Total Energy              =    -634.6259312849584830 [Eh]

	 ================> DF-SCS-MP2 Energies <==================
	-----------------------------------------------------------
	 SCS Same-Spin Scale       =       0.3333333333333333 [-]
	 SCS Opposite-Spin Scale   =       1.2000000000000000 [-]
	 SCS Same-Spin Energy      =      -0.2299346124777164 [Eh]
	 SCS Opposite-Spin Energy  =      -2.6567094424580264 [Eh]
	 SCS Correlation Energy    =      -2.8866440549357426 [Eh]
	 SCS Total Energy          =    -634.6088469670793302 [Eh]
	-----------------------------------------------------------

  Dipole Moment: [D]
     X:     0.8962      Y:    -2.3080      Z:     2.2143     Total:     3.3216

*** Psi4 exiting successfully. Buy a developer a beer!
