                               Psi4 1.4a3.dev225

  ==> Input File <==

--------------------------------------------------------------------------
#psi4
#
memory 32 gb

molecule  {
0 1
  O        0.0109280     1.9504830    -1.2088660
  N        1.2104930     0.4628600     0.0596820
  C        3.6816010    -0.9509880     0.4072830
  C        3.5342200     0.1692850    -0.6230390
  C        2.3335540    -1.6180450     0.6838790
  C        2.4642000     1.1676880    -0.1911000
  C        1.4280375    -0.7125823     1.0285803
  C        0.0527250     0.9288280    -0.5097470
  C       -1.1808260     0.1020470    -0.2945890
  C       -2.2823960     0.6556420     0.3835130
  C       -1.2622800    -1.1716740    -0.8705440
  C       -3.4454200    -0.1153760     0.4879690
  C       -2.2065840     2.0368470     0.9809810
  C       -2.4366510    -1.9182050    -0.7675160
  C       -3.5304630    -1.3875060    -0.0828830
  H        4.4130950    -1.6928310     0.0671840
  H        4.0710030    -0.5292960     1.3442740
  H        4.4878230     0.6919580    -0.7653020
  H        3.2457620    -0.2529490    -1.5933530
  H        1.9831950    -2.1398170    -0.2152240
  H        2.4267450    -2.3652010     1.4815110
  H        2.7768740     1.6847790     0.7291870
  H        2.2671880     1.9220510    -0.9540200
  H        0.3069530    -1.0243470     1.2170770
  H        1.5834140    -0.1085280     2.0346680
  H       -0.4031770    -1.5700500    -1.4080150
  H       -4.3043690     0.2928860     1.0181070
  H       -2.0253310     2.7815300     0.2022010
  H       -3.1368610     2.2826280     1.5002420
  H       -1.3844770     2.1136550     1.7007310
  H       -2.4977120    -2.9041740    -1.2220500
  H       -4.4499260    -1.9612690     0.0072960
units angstrom
no_reorient  #important for SAPT in psi4, default
symmetry c1  #important for SAPT in psi4, default
}

set PROPERTIES_ORIGIN ["COM"]
properties('MP2/aug-cc-pvtz', properties = ['dipole'])
--------------------------------------------------------------------------

    Molecular point group: c1
  Charge       = 0
  Multiplicity = 1
  Basis Set: AUG-CC-PVTZ
    Blend: AUG-CC-PVTZ
  Basis Set: (AUG-CC-PVTZ AUX)
    Blend: AUG-CC-PVTZ-JKFIT

    Orbital Energies [Eh]
    ---------------------

    Doubly Occupied:

       1A    -20.507982     2A    -15.581636     3A    -11.348542
       4A    -11.280371     5A    -11.250880     6A    -11.250729
       7A    -11.245493     8A    -11.243846     9A    -11.241724
      10A    -11.238161    11A    -11.235934    12A    -11.232382
      13A    -11.227064    14A    -11.225496    15A    -11.219049
      16A     -1.363382    17A     -1.240175    18A     -1.160448
      19A     -1.110182    20A     -1.051914    21A     -1.046613
      22A     -1.024923    23A     -0.942480    24A     -0.919793
      25A     -0.857510    26A     -0.843963    27A     -0.816330
      28A     -0.793832    29A     -0.737813    30A     -0.708716
      31A     -0.669004    32A     -0.654237    33A     -0.650305
      34A     -0.627120    35A     -0.622393    36A     -0.616509
      37A     -0.600178    38A     -0.589299    39A     -0.574439
      40A     -0.573038    41A     -0.563352    42A     -0.552229
      43A     -0.540513    44A     -0.523069    45A     -0.511545
      46A     -0.497266    47A     -0.490434    48A     -0.486911
      49A     -0.481010    50A     -0.462536    51A     -0.442791
      52A     -0.414019    53A     -0.367337    54A     -0.338303
      55A     -0.328758

  @DF-RHF Final Energy:  -631.67947968347266

   => Energetics <=

    Nuclear Repulsion Energy =           1000.0592682527143324
    One-Electron Energy =               -2843.2295798981667758
    Two-Electron Energy =                1211.4908319619796657
    Total Energy =                       -631.6794796834726640
  Basis Set: (AUG-CC-PVTZ AUX)
    Blend: AUG-CC-PVTZ-RI
    Molecular point group: c1

    Geometry (in Angstrom), charge = 0, multiplicity = 1:

       Center              X                  Y                   Z               Mass
    ------------   -----------------  -----------------  -----------------  -----------------
         O            0.048561503109     1.945018153969    -1.180698172309    15.994914619570
         N            1.248126503109     0.457395153969     0.087849827691    14.003074004430
         C            3.719234503109    -0.956452846031     0.435450827691    12.000000000000
         C            3.571853503109     0.163820153969    -0.594871172309    12.000000000000
         C            2.371187503109    -1.623509846031     0.712046827691    12.000000000000
         C            2.501833503109     1.162223153968    -0.162932172309    12.000000000000
         C            1.465671003109    -0.718047146031     1.056748127691    12.000000000000
         C            0.090358503109     0.923363153969    -0.481579172309    12.000000000000
         C           -1.143192496891     0.096582153969    -0.266421172309    12.000000000000
         C           -2.244762496891     0.650177153969     0.411680827691    12.000000000000
         C           -1.224646496891    -1.177138846031    -0.842376172309    12.000000000000
         C           -3.407786496891    -0.120840846031     0.516136827691    12.000000000000
         C           -2.168950496891     2.031382153968     1.009148827691    12.000000000000
         C           -2.399017496891    -1.923669846031    -0.739348172309    12.000000000000
         C           -3.492829496891    -1.392970846031    -0.054715172309    12.000000000000
         H            4.450728503109    -1.698295846031     0.095351827691     1.007825032230
         H            4.108636503109    -0.534760846031     1.372441827691     1.007825032230
         H            4.525456503109     0.686493153969    -0.737134172309     1.007825032230
         H            3.283395503109    -0.258413846031    -1.565185172309     1.007825032230
         H            2.020828503109    -2.145281846031    -0.187056172309     1.007825032230
         H            2.464378503109    -2.370665846032     1.509678827691     1.007825032230
         H            2.814507503109     1.679314153969     0.757354827691     1.007825032230
         H            2.304821503109     1.916586153969    -0.925852172309     1.007825032230
         H            0.344586503109    -1.029811846031     1.245244827691     1.007825032230
         H            1.621047503109    -0.113992846031     2.062835827691     1.007825032230
         H           -0.365543496891    -1.575514846031    -1.379847172309     1.007825032230
         H           -4.266735496891     0.287421153969     1.046274827691     1.007825032230
         H           -1.987697496891     2.776065153969     0.230368827691     1.007825032230
         H           -3.099227496891     2.277163153969     1.528409827691     1.007825032230
         H           -1.346843496891     2.108190153969     1.728898827691     1.007825032230
         H           -2.460078496891    -2.909638846031    -1.193882172309     1.007825032230
         H           -4.412292496891    -1.966733846031     0.035463827691     1.007825032230

  Basis Set: AUG-CC-PVTZ
    Blend: AUG-CC-PVTZ
  Basis Set: (AUG-CC-PVTZ AUX)
    Blend: AUG-CC-PVTZ-JKFIT
	 Reference Energy          =    -631.6794796834726640 [Eh]
	 Singles Energy            =      -0.0000000000000000 [Eh]
	 Same-Spin Energy          =      -0.6922411161219910 [Eh]
	 Opposite-Spin Energy      =      -2.2168958877085556 [Eh]
	 Correlation Energy        =      -2.9091370038305469 [Eh]
	 Total Energy              =    -634.5886166873032153 [Eh]

	 ================> DF-SCS-MP2 Energies <==================
	-----------------------------------------------------------
	 SCS Same-Spin Scale       =       0.3333333333333333 [-]
	 SCS Opposite-Spin Scale   =       1.2000000000000000 [-]
	 SCS Same-Spin Energy      =      -0.2307470387073303 [Eh]
	 SCS Opposite-Spin Energy  =      -2.6602750652502665 [Eh]
	 SCS Correlation Energy    =      -2.8910221039575967 [Eh]
	 SCS Total Energy          =    -634.5705017874303167 [Eh]
	-----------------------------------------------------------

  Dipole Moment: [D]
     X:     1.6603      Y:    -2.8324      Z:     2.3106     Total:     4.0147

*** Psi4 exiting successfully. Buy a developer a beer!
