                               Psi4 1.4a3.dev225

  ==> Input File <==

--------------------------------------------------------------------------
#psi4
#
memory 32 gb

molecule  {
0 1
  O        0.0109280     1.9504830    -1.2088660
  N        1.2104930     0.4628600     0.0596820
  C        3.6816010    -0.9509880     0.4072830
  C        3.5342200     0.1692850    -0.6230390
  C        2.3335540    -1.6180450     0.6838790
  C        2.4642000     1.1676880    -0.1911000
  C        1.2914730    -0.5760260     1.0805660
  C        0.0527250     0.9288280    -0.5097470
  C       -1.1808260     0.1020470    -0.2945890
  C       -2.2823960     0.6556420     0.3835130
  C       -1.2622800    -1.1716740    -0.8705440
  C       -3.4454200    -0.1153760     0.4879690
  C       -2.2065840     2.0368470     0.9809810
  C       -2.4366510    -1.9182050    -0.7675160
  C       -3.5304630    -1.3875060    -0.0828830
  H        4.4130950    -1.6928310     0.0671840
  H        4.0710030    -0.5292960     1.3442740
  H        4.4878230     0.6919580    -0.7653020
  H        3.2457620    -0.2529490    -1.5933530
  H        1.9831950    -2.1398170    -0.2152240
  H        2.4267450    -2.3652010     1.4815110
  H        2.7768740     1.6847790     0.7291870
  H        2.2671880     1.9220510    -0.9540200
  H        0.3069530    -1.0243470     1.2170770
  H        1.5834140    -0.1085280     2.0346680
  H       -0.4031770    -1.5700500    -1.4080150
  H       -4.3043690     0.2928860     1.0181070
  H       -2.0253310     2.7815300     0.2022010
  H       -3.1368610     2.2826280     1.5002420
  H       -1.3694662     2.1150574     1.7138729
  H       -2.4977120    -2.9041740    -1.2220500
  H       -4.4499260    -1.9612690     0.0072960
units angstrom
no_reorient  #important for SAPT in psi4, default
symmetry c1  #important for SAPT in psi4, default
}

set PROPERTIES_ORIGIN ["COM"]
properties('MP2/aug-cc-pvtz', properties = ['dipole'])
--------------------------------------------------------------------------

    Molecular point group: c1
  Charge       = 0
  Multiplicity = 1
  Basis Set: AUG-CC-PVTZ
    Blend: AUG-CC-PVTZ
  Basis Set: (AUG-CC-PVTZ AUX)
    Blend: AUG-CC-PVTZ-JKFIT

    Orbital Energies [Eh]
    ---------------------

    Doubly Occupied:

       1A    -20.510771     2A    -15.583884     3A    -11.349464
       4A    -11.267055     5A    -11.254612     6A    -11.252009
       7A    -11.246401     8A    -11.245086     9A    -11.242721
      10A    -11.239221    11A    -11.237110    12A    -11.230624
      13A    -11.228309    14A    -11.225665    15A    -11.222774
      16A     -1.366982    17A     -1.249572    18A     -1.161479
      19A     -1.083599    20A     -1.050525    21A     -1.037297
      22A     -1.023213    23A     -0.942304    24A     -0.918423
      25A     -0.867401    26A     -0.844129    27A     -0.815153
      28A     -0.790869    29A     -0.742655    30A     -0.712306
      31A     -0.666721    32A     -0.652937    33A     -0.648277
      34A     -0.627831    35A     -0.620466    36A     -0.615212
      37A     -0.596331    38A     -0.587994    39A     -0.575095
      40A     -0.570273    41A     -0.560248    42A     -0.547258
      43A     -0.541475    44A     -0.524556    45A     -0.507698
      46A     -0.501896    47A     -0.491390    48A     -0.489404
      49A     -0.478537    50A     -0.469606    51A     -0.461542
      52A     -0.416941    53A     -0.366209    54A     -0.340060
      55A     -0.329960

  @DF-RHF Final Energy:  -631.73017090052406

   => Energetics <=

    Nuclear Repulsion Energy =            999.8936004833008155
    One-Electron Energy =               -2842.9884752148163898
    Two-Electron Energy =                1211.3647038309914024
    Total Energy =                       -631.7301709005241719
  Basis Set: (AUG-CC-PVTZ AUX)
    Blend: AUG-CC-PVTZ-RI
    Molecular point group: c1

    Geometry (in Angstrom), charge = 0, multiplicity = 1:

       Center              X                  Y                   Z               Mass
    ------------   -----------------  -----------------  -----------------  -----------------
         O            0.056554599321     1.936944108848    -1.183834439503    15.994914619570
         N            1.256119599321     0.449321108848     0.084713560497    14.003074004430
         C            3.727227599321    -0.964526891152     0.432314560497    12.000000000000
         C            3.579846599321     0.155746108848    -0.598007439503    12.000000000000
         C            2.379180599321    -1.631583891152     0.708910560497    12.000000000000
         C            2.509826599321     1.154149108848    -0.166068439503    12.000000000000
         C            1.337099599321    -0.589564891152     1.105597560497    12.000000000000
         C            0.098351599321     0.915289108848    -0.484715439503    12.000000000000
         C           -1.135199400679     0.088508108848    -0.269557439503    12.000000000000
         C           -2.236769400679     0.642103108848     0.408544560497    12.000000000000
         C           -1.216653400679    -1.185212891152    -0.845512439503    12.000000000000
         C           -3.399793400679    -0.128914891152     0.513000560497    12.000000000000
         C           -2.160957400679     2.023308108848     1.006012560497    12.000000000000
         C           -2.391024400679    -1.931743891152    -0.742484439503    12.000000000000
         C           -3.484836400679    -1.401044891152    -0.057851439503    12.000000000000
         H            4.458721599321    -1.706369891152     0.092215560497     1.007825032230
         H            4.116629599321    -0.542834891152     1.369305560497     1.007825032230
         H            4.533449599321     0.678419108848    -0.740270439503     1.007825032230
         H            3.291388599321    -0.266487891152    -1.568321439503     1.007825032230
         H            2.028821599321    -2.153355891152    -0.190192439503     1.007825032230
         H            2.472371599321    -2.378739891152     1.506542560497     1.007825032230
         H            2.822500599321     1.671240108848     0.754218560497     1.007825032230
         H            2.312814599321     1.908512108848    -0.928988439503     1.007825032230
         H            0.352579599321    -1.037885891152     1.242108560497     1.007825032230
         H            1.629040599321    -0.122066891152     2.059699560497     1.007825032230
         H           -0.357550400679    -1.583588891152    -1.382983439503     1.007825032230
         H           -4.258742400679     0.279347108848     1.043138560497     1.007825032230
         H           -1.979704400679     2.767991108848     0.227232560497     1.007825032230
         H           -3.091234400679     2.269089108848     1.525273560497     1.007825032230
         H           -1.323839600679     2.101518508848     1.738904460497     1.007825032230
         H           -2.452085400679    -2.917712891152    -1.197018439503     1.007825032230
         H           -4.404299400679    -1.974807891152     0.032327560497     1.007825032230

  Basis Set: AUG-CC-PVTZ
    Blend: AUG-CC-PVTZ
  Basis Set: (AUG-CC-PVTZ AUX)
    Blend: AUG-CC-PVTZ-JKFIT
	 Reference Energy          =    -631.7301709005240582 [Eh]
	 Singles Energy            =      -0.0000000000000000 [Eh]
	 Same-Spin Energy          =      -0.6890234648191270 [Eh]
	 Opposite-Spin Energy      =      -2.2123938397081733 [Eh]
	 Correlation Energy        =      -2.9014173045273002 [Eh]
	 Total Energy              =    -634.6315882050513437 [Eh]

	 ================> DF-SCS-MP2 Energies <==================
	-----------------------------------------------------------
	 SCS Same-Spin Scale       =       0.3333333333333333 [-]
	 SCS Opposite-Spin Scale   =       1.2000000000000000 [-]
	 SCS Same-Spin Energy      =      -0.2296744882730423 [Eh]
	 SCS Opposite-Spin Energy  =      -2.6548726076498079 [Eh]
	 SCS Correlation Energy    =      -2.8845470959228501 [Eh]
	 SCS Total Energy          =    -634.6147179964468705 [Eh]
	-----------------------------------------------------------

  Dipole Moment: [D]
     X:     1.3981      Y:    -2.5245      Z:     2.2966     Total:     3.6881

*** Psi4 exiting successfully. Buy a developer a beer!
