                               Psi4 1.4a3.dev225

  ==> Input File <==

--------------------------------------------------------------------------
#psi4
#
memory 32 gb

molecule  {
0 1
  O        0.0109280     1.9504830    -1.2088660
  N        1.1879089     0.4925079     0.0249285
  C        3.6816010    -0.9509880     0.4072830
  C        3.5342200     0.1692850    -0.6230390
  C        2.3335540    -1.6180450     0.6838790
  C        2.4642000     1.1676880    -0.1911000
  C        1.2914730    -0.5760260     1.0805660
  C        0.0527250     0.9288280    -0.5097470
  C       -1.1808260     0.1020470    -0.2945890
  C       -2.2823960     0.6556420     0.3835130
  C       -1.2622800    -1.1716740    -0.8705440
  C       -3.4454200    -0.1153760     0.4879690
  C       -2.2065840     2.0368470     0.9809810
  C       -2.4366510    -1.9182050    -0.7675160
  C       -3.5304630    -1.3875060    -0.0828830
  H        4.4130950    -1.6928310     0.0671840
  H        4.0710030    -0.5292960     1.3442740
  H        4.4878230     0.6919580    -0.7653020
  H        3.2457620    -0.2529490    -1.5933530
  H        1.9831950    -2.1398170    -0.2152240
  H        2.4267450    -2.3652010     1.4815110
  H        2.7768740     1.6847790     0.7291870
  H        2.2671880     1.9220510    -0.9540200
  H        0.3069530    -1.0243470     1.2170770
  H        1.5834140    -0.1085280     2.0346680
  H       -0.4031770    -1.5700500    -1.4080150
  H       -4.3043690     0.2928860     1.0181070
  H       -2.0253310     2.7815300     0.2022010
  H       -3.1368610     2.2826280     1.5002420
  H       -1.3844770     2.1136550     1.7007310
  H       -2.4977120    -2.9041740    -1.2220500
  H       -4.4499260    -1.9612690     0.0072960
units angstrom
no_reorient  #important for SAPT in psi4, default
symmetry c1  #important for SAPT in psi4, default
}

set PROPERTIES_ORIGIN ["COM"]
properties('MP2/aug-cc-pvtz', properties = ['dipole'])
--------------------------------------------------------------------------

    Molecular point group: c1
  Charge       = 0
  Multiplicity = 1
  Basis Set: AUG-CC-PVTZ
    Blend: AUG-CC-PVTZ
  Basis Set: (AUG-CC-PVTZ AUX)
    Blend: AUG-CC-PVTZ-JKFIT

    Orbital Energies [Eh]
    ---------------------

    Doubly Occupied:

       1A    -20.501095     2A    -15.586009     3A    -11.341527
       4A    -11.272589     5A    -11.256245     6A    -11.250722
       7A    -11.245349     8A    -11.243896     9A    -11.241764
      10A    -11.238405    11A    -11.236153    12A    -11.233828
      13A    -11.230150    14A    -11.227780    15A    -11.219206
      16A     -1.366260    17A     -1.246392    18A     -1.160420
      19A     -1.088580    20A     -1.049975    21A     -1.037706
      22A     -1.021359    23A     -0.944398    24A     -0.924399
      25A     -0.867908    26A     -0.842142    27A     -0.814475
      28A     -0.793157    29A     -0.741270    30A     -0.712757
      31A     -0.665160    32A     -0.652361    33A     -0.648037
      34A     -0.631495    35A     -0.619379    36A     -0.614377
      37A     -0.596900    38A     -0.590705    39A     -0.574655
      40A     -0.571410    41A     -0.553578    42A     -0.548474
      43A     -0.539414    44A     -0.527723    45A     -0.507642
      46A     -0.502124    47A     -0.490973    48A     -0.489448
      49A     -0.478507    50A     -0.472495    51A     -0.459319
      52A     -0.413325    53A     -0.369460    54A     -0.339007
      55A     -0.328941

  @DF-RHF Final Energy:  -631.72906913922532

   => Energetics <=

    Nuclear Repulsion Energy =           1000.1234857386392605
    One-Electron Energy =               -2843.4634557254557876
    Two-Electron Energy =                1211.6109008475912105
    Total Energy =                       -631.7290691392252029
  Basis Set: (AUG-CC-PVTZ AUX)
    Blend: AUG-CC-PVTZ-RI
    Molecular point group: c1

    Geometry (in Angstrom), charge = 0, multiplicity = 1:

       Center              X                  Y                   Z               Mass
    ------------   -----------------  -----------------  -----------------  -----------------
         O            0.058185936047     1.934907254133    -1.181373463417    15.994914619570
         N            1.235166836047     0.476932154133     0.052421036583    14.003074004430
         C            3.728858936047    -0.966563745867     0.434775536583    12.000000000000
         C            3.581477936047     0.153709254133    -0.595546463417    12.000000000000
         C            2.380811936047    -1.633620745867     0.711371536583    12.000000000000
         C            2.511457936047     1.152112254133    -0.163607463417    12.000000000000
         C            1.338730936047    -0.591601745867     1.108058536583    12.000000000000
         C            0.099982936047     0.913252254133    -0.482254463417    12.000000000000
         C           -1.133568063953     0.086471254133    -0.267096463417    12.000000000000
         C           -2.235138063953     0.640066254133     0.411005536583    12.000000000000
         C           -1.215022063953    -1.187249745867    -0.843051463417    12.000000000000
         C           -3.398162063953    -0.130951745867     0.515461536583    12.000000000000
         C           -2.159326063953     2.021271254133     1.008473536583    12.000000000000
         C           -2.389393063953    -1.933780745867    -0.740023463417    12.000000000000
         C           -3.483205063953    -1.403081745867    -0.055390463417    12.000000000000
         H            4.460352936047    -1.708406745867     0.094676536583     1.007825032230
         H            4.118260936047    -0.544871745867     1.371766536583     1.007825032230
         H            4.535080936047     0.676382254133    -0.737809463417     1.007825032230
         H            3.293019936047    -0.268524745867    -1.565860463417     1.007825032230
         H            2.030452936047    -2.155392745867    -0.187731463417     1.007825032230
         H            2.474002936047    -2.380776745867     1.509003536583     1.007825032230
         H            2.824131936047     1.669203254133     0.756679536583     1.007825032230
         H            2.314445936047     1.906475254133    -0.926527463417     1.007825032230
         H            0.354210936047    -1.039922745867     1.244569536583     1.007825032230
         H            1.630671936047    -0.124103745867     2.062160536583     1.007825032230
         H           -0.355919063953    -1.585625745867    -1.380522463417     1.007825032230
         H           -4.257111063953     0.277310254133     1.045599536583     1.007825032230
         H           -1.978073063953     2.765954254133     0.229693536583     1.007825032230
         H           -3.089603063953     2.267052254133     1.527734536583     1.007825032230
         H           -1.337219063953     2.098079254133     1.728223536583     1.007825032230
         H           -2.450454063953    -2.919749745867    -1.194557463417     1.007825032230
         H           -4.402668063953    -1.976844745867     0.034788536583     1.007825032230

  Basis Set: AUG-CC-PVTZ
    Blend: AUG-CC-PVTZ
  Basis Set: (AUG-CC-PVTZ AUX)
    Blend: AUG-CC-PVTZ-JKFIT
	 Reference Energy          =    -631.7290691392253166 [Eh]
	 Singles Energy            =      -0.0000000000000000 [Eh]
	 Same-Spin Energy          =      -0.6885228380451478 [Eh]
	 Opposite-Spin Energy      =      -2.2115084810859318 [Eh]
	 Correlation Energy        =      -2.9000313191310796 [Eh]
	 Total Energy              =    -634.6291004583564472 [Eh]

	 ================> DF-SCS-MP2 Energies <==================
	-----------------------------------------------------------
	 SCS Same-Spin Scale       =       0.3333333333333333 [-]
	 SCS Opposite-Spin Scale   =       1.2000000000000000 [-]
	 SCS Same-Spin Energy      =      -0.2295076126817159 [Eh]
	 SCS Opposite-Spin Energy  =      -2.6538101773031180 [Eh]
	 SCS Correlation Energy    =      -2.8833177899848339 [Eh]
	 SCS Total Energy          =    -634.6123869292101745 [Eh]
	-----------------------------------------------------------

  Dipole Moment: [D]
     X:     1.6308      Y:    -2.6789      Z:     2.4598     Total:     3.9858

*** Psi4 exiting successfully. Buy a developer a beer!
