                               Psi4 1.4a3.dev225

  ==> Input File <==

--------------------------------------------------------------------------
#psi4
#
memory 32 gb

molecule  {
0 1
  O        0.0109280     1.9504830    -1.2088660
  N        1.2104930     0.4628600     0.0596820
  C        3.6816010    -0.9509880     0.4072830
  C        3.5342200     0.1692850    -0.6230390
  C        2.1572559    -1.7052830     0.7200523
  C        2.4642000     1.1676880    -0.1911000
  C        1.2914730    -0.5760260     1.0805660
  C        0.0527250     0.9288280    -0.5097470
  C       -1.1808260     0.1020470    -0.2945890
  C       -2.2823960     0.6556420     0.3835130
  C       -1.2622800    -1.1716740    -0.8705440
  C       -3.4454200    -0.1153760     0.4879690
  C       -2.2065840     2.0368470     0.9809810
  C       -2.4366510    -1.9182050    -0.7675160
  C       -3.5304630    -1.3875060    -0.0828830
  H        4.4130950    -1.6928310     0.0671840
  H        4.0710030    -0.5292960     1.3442740
  H        4.4878230     0.6919580    -0.7653020
  H        3.2457620    -0.2529490    -1.5933530
  H        1.9831950    -2.1398170    -0.2152240
  H        2.4267450    -2.3652010     1.4815110
  H        2.7768740     1.6847790     0.7291870
  H        2.2671880     1.9220510    -0.9540200
  H        0.3069530    -1.0243470     1.2170770
  H        1.5834140    -0.1085280     2.0346680
  H       -0.4031770    -1.5700500    -1.4080150
  H       -4.3043690     0.2928860     1.0181070
  H       -2.0253310     2.7815300     0.2022010
  H       -3.1368610     2.2826280     1.5002420
  H       -1.3844770     2.1136550     1.7007310
  H       -2.4977120    -2.9041740    -1.2220500
  H       -4.4499260    -1.9612690     0.0072960
units angstrom
no_reorient  #important for SAPT in psi4, default
symmetry c1  #important for SAPT in psi4, default
}

set PROPERTIES_ORIGIN ["COM"]
properties('MP2/aug-cc-pvtz', properties = ['dipole'])
--------------------------------------------------------------------------

    Molecular point group: c1
  Charge       = 0
  Multiplicity = 1
  Basis Set: AUG-CC-PVTZ
    Blend: AUG-CC-PVTZ
  Basis Set: (AUG-CC-PVTZ AUX)
    Blend: AUG-CC-PVTZ-JKFIT

    Orbital Energies [Eh]
    ---------------------

    Doubly Occupied:

       1A    -20.511751     2A    -15.585587     3A    -11.350591
       4A    -11.265882     5A    -11.254030     6A    -11.251688
       7A    -11.246361     8A    -11.245117     9A    -11.242511
      10A    -11.239128    11A    -11.236928    12A    -11.232936
      13A    -11.229825    14A    -11.225108    15A    -11.220330
      16A     -1.367833    17A     -1.250050    18A     -1.161307
      19A     -1.069690    20A     -1.050461    21A     -1.042773
      22A     -1.025382    23A     -0.942216    24A     -0.914747
      25A     -0.864447    26A     -0.847729    27A     -0.816623
      28A     -0.792417    29A     -0.743245    30A     -0.712718
      31A     -0.666155    32A     -0.655208    33A     -0.651223
      34A     -0.634206    35A     -0.623314    36A     -0.614399
      37A     -0.598897    38A     -0.578724    39A     -0.574407
      40A     -0.572012    41A     -0.559264    42A     -0.551075
      43A     -0.541126    44A     -0.527240    45A     -0.522732
      46A     -0.506057    47A     -0.492242    48A     -0.489700
      49A     -0.480288    50A     -0.473294    51A     -0.419995
      52A     -0.409363    53A     -0.370458    54A     -0.339469
      55A     -0.329720

  @DF-RHF Final Energy:  -631.70170300698999

   => Energetics <=

    Nuclear Repulsion Energy =            999.1854630973559779
    One-Electron Energy =               -2841.5343701063429762
    Two-Electron Energy =                1210.6472040019968972
    Total Energy =                       -631.7017030069901011
  Basis Set: (AUG-CC-PVTZ AUX)
    Blend: AUG-CC-PVTZ-RI
    Molecular point group: c1

    Geometry (in Angstrom), charge = 0, multiplicity = 1:

       Center              X                  Y                   Z               Mass
    ------------   -----------------  -----------------  -----------------  -----------------
         O            0.067043915631     1.942104666816    -1.185906180571    15.994914619570
         N            1.266608915631     0.454481666816     0.082641819429    14.003074004430
         C            3.737716915631    -0.959366333184     0.430242819429    12.000000000000
         C            3.590335915631     0.160906666816    -0.600079180571    12.000000000000
         C            2.213371815631    -1.713661333184     0.743012119429    12.000000000000
         C            2.520315915631     1.159309666816    -0.168140180571    12.000000000000
         C            1.347588915631    -0.584404333184     1.103525819429    12.000000000000
         C            0.108840915631     0.920449666816    -0.486787180571    12.000000000000
         C           -1.124710084369     0.093668666816    -0.271629180571    12.000000000000
         C           -2.226280084369     0.647263666816     0.406472819429    12.000000000000
         C           -1.206164084369    -1.180052333184    -0.847584180571    12.000000000000
         C           -3.389304084369    -0.123754333184     0.510928819429    12.000000000000
         C           -2.150468084369     2.028468666816     1.003940819429    12.000000000000
         C           -2.380535084369    -1.926583333184    -0.744556180571    12.000000000000
         C           -3.474347084369    -1.395884333184    -0.059923180571    12.000000000000
         H            4.469210915631    -1.701209333184     0.090143819429     1.007825032230
         H            4.127118915631    -0.537674333184     1.367233819429     1.007825032230
         H            4.543938915631     0.683579666816    -0.742342180571     1.007825032230
         H            3.301877915631    -0.261327333184    -1.570393180571     1.007825032230
         H            2.039310915631    -2.148195333184    -0.192264180571     1.007825032230
         H            2.482860915631    -2.373579333184     1.504470819429     1.007825032230
         H            2.832989915631     1.676400666816     0.752146819429     1.007825032230
         H            2.323303915631     1.913672666816    -0.931060180571     1.007825032230
         H            0.363068915631    -1.032725333184     1.240036819429     1.007825032230
         H            1.639529915631    -0.116906333184     2.057627819429     1.007825032230
         H           -0.347061084369    -1.578428333184    -1.385055180571     1.007825032230
         H           -4.248253084369     0.284507666816     1.041066819429     1.007825032230
         H           -1.969215084369     2.773151666816     0.225160819429     1.007825032230
         H           -3.080745084369     2.274249666816     1.523201819429     1.007825032230
         H           -1.328361084369     2.105276666816     1.723690819429     1.007825032230
         H           -2.441596084369    -2.912552333184    -1.199090180571     1.007825032230
         H           -4.393810084369    -1.969647333184     0.030255819429     1.007825032230

  Basis Set: AUG-CC-PVTZ
    Blend: AUG-CC-PVTZ
  Basis Set: (AUG-CC-PVTZ AUX)
    Blend: AUG-CC-PVTZ-JKFIT
	 Reference Energy          =    -631.7017030069899874 [Eh]
	 Singles Energy            =      -0.0000000000000000 [Eh]
	 Same-Spin Energy          =      -0.6896060759502111 [Eh]
	 Opposite-Spin Energy      =      -2.2142856322549012 [Eh]
	 Correlation Energy        =      -2.9038917082051121 [Eh]
	 Total Energy              =    -634.6055947151951386 [Eh]

	 ================> DF-SCS-MP2 Energies <==================
	-----------------------------------------------------------
	 SCS Same-Spin Scale       =       0.3333333333333333 [-]
	 SCS Opposite-Spin Scale   =       1.2000000000000000 [-]
	 SCS Same-Spin Energy      =      -0.2298686919834037 [Eh]
	 SCS Opposite-Spin Energy  =      -2.6571427587058811 [Eh]
	 SCS Correlation Energy    =      -2.8870114506892848 [Eh]
	 SCS Total Energy          =    -634.5887144576793162 [Eh]
	-----------------------------------------------------------

  Dipole Moment: [D]
     X:     1.3713      Y:    -2.5207      Z:     2.3030     Total:     3.6794

*** Psi4 exiting successfully. Buy a developer a beer!
