                               Psi4 1.4a3.dev225

  ==> Input File <==

--------------------------------------------------------------------------
#psi4
#
memory 32 gb

molecule  {
0 1
  O        0.0109280     1.9504830    -1.2088660
  N        1.2104930     0.4628600     0.0596820
  C        3.6816010    -0.9509880     0.4072830
  C        3.5342200     0.1692850    -0.6230390
  C        2.3335540    -1.6180450     0.6838790
  C        2.4642000     1.1676880    -0.1911000
  C        1.2914730    -0.5760260     1.0805660
  C        0.0527250     0.9288280    -0.5097470
  C       -1.1808260     0.1020470    -0.2945890
  C       -2.2823960     0.6556420     0.3835130
  C       -1.2622800    -1.1716740    -0.8705440
  C       -3.4454200    -0.1153760     0.4879690
  C       -2.2065840     2.0368470     0.9809810
  C       -2.4366510    -1.9182050    -0.7675160
  C       -3.5304630    -1.3875060    -0.0828830
  H        4.4130950    -1.6928310     0.0671840
  H        4.0710030    -0.5292960     1.3442740
  H        4.4878230     0.6919580    -0.7653020
  H        3.2457620    -0.2529490    -1.5933530
  H        1.9831950    -2.1398170    -0.2152240
  H        2.4267450    -2.3652010     1.4815110
  H        2.7768740     1.6847790     0.7291870
  H        2.2671880     1.9220510    -0.9540200
  H        0.3069530    -1.0243470     1.2170770
  H        1.5834140    -0.1085280     2.0346680
  H       -0.4031770    -1.5700500    -1.4080150
  H       -4.3043690     0.2928860     1.0181070
  H       -2.0413232     2.7759885     0.1934136
  H       -3.1368610     2.2826280     1.5002420
  H       -1.3844770     2.1136550     1.7007310
  H       -2.4977120    -2.9041740    -1.2220500
  H       -4.4499260    -1.9612690     0.0072960
units angstrom
no_reorient  #important for SAPT in psi4, default
symmetry c1  #important for SAPT in psi4, default
}

set PROPERTIES_ORIGIN ["COM"]
properties('MP2/aug-cc-pvtz', properties = ['dipole'])
--------------------------------------------------------------------------

    Molecular point group: c1
  Charge       = 0
  Multiplicity = 1
  Basis Set: AUG-CC-PVTZ
    Blend: AUG-CC-PVTZ
  Basis Set: (AUG-CC-PVTZ AUX)
    Blend: AUG-CC-PVTZ-JKFIT

    Orbital Energies [Eh]
    ---------------------

    Doubly Occupied:

       1A    -20.510741     2A    -15.583867     3A    -11.349413
       4A    -11.267059     5A    -11.254605     6A    -11.251743
       7A    -11.246315     8A    -11.244979     9A    -11.242612
      10A    -11.239103    11A    -11.236907    12A    -11.230621
      13A    -11.228307    14A    -11.225659    15A    -11.220390
      16A     -1.366944    17A     -1.249558    18A     -1.161410
      19A     -1.083588    20A     -1.050838    21A     -1.037278
      22A     -1.023156    23A     -0.943157    24A     -0.918774
      25A     -0.867406    26A     -0.844074    27A     -0.815248
      28A     -0.790930    29A     -0.742644    30A     -0.712311
      31A     -0.666677    32A     -0.652846    33A     -0.648237
      34A     -0.627815    35A     -0.620405    36A     -0.615212
      37A     -0.596382    38A     -0.588149    39A     -0.575765
      40A     -0.572790    41A     -0.560230    42A     -0.547498
      43A     -0.540980    44A     -0.524738    45A     -0.507786
      46A     -0.501993    47A     -0.491620    48A     -0.489289
      49A     -0.478476    50A     -0.469608    51A     -0.461536
      52A     -0.416863    53A     -0.366196    54A     -0.339966
      55A     -0.330035

  @DF-RHF Final Energy:  -631.73065925047024

   => Energetics <=

    Nuclear Repulsion Energy =            999.9687953602796142
    One-Electron Energy =               -2843.1374516528640015
    Two-Electron Energy =                1211.4379970421139205
    Total Energy =                       -631.7306592504703531
  Basis Set: (AUG-CC-PVTZ AUX)
    Blend: AUG-CC-PVTZ-RI
    Molecular point group: c1

    Geometry (in Angstrom), charge = 0, multiplicity = 1:

       Center              X                  Y                   Z               Mass
    ------------   -----------------  -----------------  -----------------  -----------------
         O            0.056708419257     1.936978560683    -1.183725638306    15.994914619570
         N            1.256273419257     0.449355560683     0.084822361694    14.003074004430
         C            3.727381419257    -0.964492439317     0.432423361694    12.000000000000
         C            3.580000419257     0.155780560683    -0.597898638306    12.000000000000
         C            2.379334419257    -1.631549439317     0.709019361694    12.000000000000
         C            2.509980419257     1.154183560683    -0.165959638306    12.000000000000
         C            1.337253419257    -0.589530439317     1.105706361694    12.000000000000
         C            0.098505419257     0.915323560683    -0.484606638306    12.000000000000
         C           -1.135045580743     0.088542560683    -0.269448638306    12.000000000000
         C           -2.236615580743     0.642137560683     0.408653361694    12.000000000000
         C           -1.216499580743    -1.185178439317    -0.845403638306    12.000000000000
         C           -3.399639580743    -0.128880439317     0.513109361694    12.000000000000
         C           -2.160803580743     2.023342560683     1.006121361694    12.000000000000
         C           -2.390870580743    -1.931709439317    -0.742375638306    12.000000000000
         C           -3.484682580743    -1.401010439317    -0.057742638306    12.000000000000
         H            4.458875419257    -1.706335439317     0.092324361694     1.007825032230
         H            4.116783419257    -0.542800439317     1.369414361694     1.007825032230
         H            4.533603419257     0.678453560683    -0.740161638306     1.007825032230
         H            3.291542419257    -0.266453439317    -1.568212638306     1.007825032230
         H            2.028975419257    -2.153321439317    -0.190083638306     1.007825032230
         H            2.472525419257    -2.378705439317     1.506651361694     1.007825032230
         H            2.822654419257     1.671274560683     0.754327361694     1.007825032230
         H            2.312968419257     1.908546560683    -0.928879638306     1.007825032230
         H            0.352733419257    -1.037851439317     1.242217361694     1.007825032230
         H            1.629194419257    -0.122032439317     2.059808361694     1.007825032230
         H           -0.357396580743    -1.583554439317    -1.382874638306     1.007825032230
         H           -4.258588580743     0.279381560683     1.043247361694     1.007825032230
         H           -1.995542780743     2.762484060683     0.218553961694     1.007825032230
         H           -3.091080580743     2.269123560683     1.525382361694     1.007825032230
         H           -1.338696580743     2.100150560683     1.725871361694     1.007825032230
         H           -2.451931580743    -2.917678439317    -1.196909638306     1.007825032230
         H           -4.404145580743    -1.974773439317     0.032436361694     1.007825032230

  Basis Set: AUG-CC-PVTZ
    Blend: AUG-CC-PVTZ
  Basis Set: (AUG-CC-PVTZ AUX)
    Blend: AUG-CC-PVTZ-JKFIT
	 Reference Energy          =    -631.7306592504702394 [Eh]
	 Singles Energy            =      -0.0000000000000000 [Eh]
	 Same-Spin Energy          =      -0.6890132772965272 [Eh]
	 Opposite-Spin Energy      =      -2.2122741675357025 [Eh]
	 Correlation Energy        =      -2.9012874448322297 [Eh]
	 Total Energy              =    -634.6319466953024175 [Eh]

	 ================> DF-SCS-MP2 Energies <==================
	-----------------------------------------------------------
	 SCS Same-Spin Scale       =       0.3333333333333333 [-]
	 SCS Opposite-Spin Scale   =       1.2000000000000000 [-]
	 SCS Same-Spin Energy      =      -0.2296710924321757 [Eh]
	 SCS Opposite-Spin Energy  =      -2.6547290010428428 [Eh]
	 SCS Correlation Energy    =      -2.8844000934750187 [Eh]
	 SCS Total Energy          =    -634.6150593439452905 [Eh]
	-----------------------------------------------------------

  Dipole Moment: [D]
     X:     1.3973      Y:    -2.5191      Z:     2.3033     Total:     3.6883

*** Psi4 exiting successfully. Buy a developer a beer!
