                               Psi4 1.4a3.dev225

  ==> Input File <==

--------------------------------------------------------------------------
#psi4
#
memory 32 gb

molecule  {
0 1
  O        0.0109280     1.9504830    -1.2088660
  N        1.2104930     0.4628600     0.0596820
  C        3.6816010    -0.9509880     0.4072830
  C        3.5342200     0.1692850    -0.6230390
  C        2.3335540    -1.6180450     0.6838790
  C        2.4642000     1.1676880    -0.1911000
  C        1.2914730    -0.5760260     1.0805660
  C        0.0527250     0.9288280    -0.5097470
  C       -1.1808260     0.1020470    -0.2945890
  C       -2.2823960     0.6556420     0.3835130
  C       -1.2622800    -1.1716740    -0.8705440
  C       -3.4454200    -0.1153760     0.4879690
  C       -2.2065840     2.0368470     0.9809810
  C       -2.4366510    -1.9182050    -0.7675160
  C       -3.5304630    -1.3875060    -0.0828830
  H        4.4130950    -1.6928310     0.0671840
  H        4.0710030    -0.5292960     1.3442740
  H        4.4878230     0.6919580    -0.7653020
  H        3.2457620    -0.2529490    -1.5933530
  H        1.9831950    -2.1398170    -0.2152240
  H        2.4267450    -2.3652010     1.4815110
  H        2.7768740     1.6847790     0.7291870
  H        2.2671880     1.9220510    -0.9540200
  H        0.3069530    -1.0243470     1.2170770
  H        1.5834140    -0.1085280     2.0346680
  H       -0.4031770    -1.5700500    -1.4080150
  H       -4.3043690     0.2928860     1.0181070
  H       -2.0895821     2.7580203     0.1685013
  H       -3.1368610     2.2826280     1.5002420
  H       -1.3844770     2.1136550     1.7007310
  H       -2.4977120    -2.9041740    -1.2220500
  H       -4.4499260    -1.9612690     0.0072960
units angstrom
no_reorient  #important for SAPT in psi4, default
symmetry c1  #important for SAPT in psi4, default
}

set PROPERTIES_ORIGIN ["COM"]
properties('MP2/aug-cc-pvtz', properties = ['dipole'])
--------------------------------------------------------------------------

    Molecular point group: c1
  Charge       = 0
  Multiplicity = 1
  Basis Set: AUG-CC-PVTZ
    Blend: AUG-CC-PVTZ
  Basis Set: (AUG-CC-PVTZ AUX)
    Blend: AUG-CC-PVTZ-JKFIT

    Orbital Energies [Eh]
    ---------------------

    Doubly Occupied:

       1A    -20.510592     2A    -15.583747     3A    -11.349259
       4A    -11.267015     5A    -11.254515     6A    -11.251463
       7A    -11.246231     8A    -11.244859     9A    -11.242511
      10A    -11.238978    11A    -11.236689    12A    -11.230578
      13A    -11.228259    14A    -11.225594    15A    -11.220581
      16A     -1.366767    17A     -1.249448    18A     -1.161354
      19A     -1.083522    20A     -1.050979    21A     -1.037217
      22A     -1.023073    23A     -0.943167    24A     -0.918670
      25A     -0.867311    26A     -0.843947    27A     -0.815105
      28A     -0.790717    29A     -0.742503    30A     -0.712140
      31A     -0.666406    32A     -0.652700    33A     -0.647931
      34A     -0.627707    35A     -0.620318    36A     -0.614997
      37A     -0.596488    38A     -0.588536    39A     -0.578458
      40A     -0.573273    41A     -0.560157    42A     -0.547569
      43A     -0.539109    44A     -0.524515    45A     -0.506951
      46A     -0.501885    47A     -0.491872    48A     -0.488975
      49A     -0.478276    50A     -0.469548    51A     -0.461468
      52A     -0.416633    53A     -0.366090    54A     -0.339875
      55A     -0.330092

  @DF-RHF Final Energy:  -631.73015587201076

   => Energetics <=

    Nuclear Repulsion Energy =            999.9625099804163710
    One-Electron Energy =               -2843.1320924134520283
    Two-Electron Energy =                1211.4394265610249022
    Total Energy =                       -631.7301558720107550
  Basis Set: (AUG-CC-PVTZ AUX)
    Blend: AUG-CC-PVTZ-RI
    Molecular point group: c1

    Geometry (in Angstrom), charge = 0, multiplicity = 1:

       Center              X                  Y                   Z               Mass
    ------------   -----------------  -----------------  -----------------  -----------------
         O            0.056947853533     1.937067709068    -1.183602037094    15.994914619570
         N            1.256512853533     0.449444709068     0.084945962906    14.003074004430
         C            3.727620853533    -0.964403290932     0.432546962906    12.000000000000
         C            3.580239853533     0.155869709068    -0.597775037094    12.000000000000
         C            2.379573853533    -1.631460290932     0.709142962906    12.000000000000
         C            2.510219853533     1.154272709068    -0.165836037094    12.000000000000
         C            1.337492853533    -0.589441290932     1.105829962906    12.000000000000
         C            0.098744853533     0.915412709068    -0.484483037094    12.000000000000
         C           -1.134806146467     0.088631709068    -0.269325037094    12.000000000000
         C           -2.236376146467     0.642226709068     0.408776962906    12.000000000000
         C           -1.216260146467    -1.185089290932    -0.845280037094    12.000000000000
         C           -3.399400146467    -0.128791290932     0.513232962906    12.000000000000
         C           -2.160564146467     2.023431709068     1.006244962906    12.000000000000
         C           -2.390631146467    -1.931620290932    -0.742252037094    12.000000000000
         C           -3.484443146467    -1.400921290932    -0.057619037094    12.000000000000
         H            4.459114853533    -1.706246290932     0.092447962906     1.007825032230
         H            4.117022853533    -0.542711290932     1.369537962906     1.007825032230
         H            4.533842853533     0.678542709068    -0.740038037094     1.007825032230
         H            3.291781853533    -0.266364290932    -1.568089037094     1.007825032230
         H            2.029214853533    -2.153232290932    -0.189960037094     1.007825032230
         H            2.472764853533    -2.378616290932     1.506774962906     1.007825032230
         H            2.822893853533     1.671363709068     0.754450962906     1.007825032230
         H            2.313207853533     1.908635709068    -0.928756037094     1.007825032230
         H            0.352972853533    -1.037762290932     1.242340962906     1.007825032230
         H            1.629433853533    -0.121943290932     2.059931962906     1.007825032230
         H           -0.357157146467    -1.583465290932    -1.382751037094     1.007825032230
         H           -4.258349146467     0.279470709068     1.043370962906     1.007825032230
         H           -2.043562246467     2.744605009068     0.193765262906     1.007825032230
         H           -3.090841146467     2.269212709068     1.525505962906     1.007825032230
         H           -1.338457146467     2.100239709068     1.725994962906     1.007825032230
         H           -2.451692146467    -2.917589290932    -1.196786037094     1.007825032230
         H           -4.403906146467    -1.974684290932     0.032559962906     1.007825032230

  Basis Set: AUG-CC-PVTZ
    Blend: AUG-CC-PVTZ
  Basis Set: (AUG-CC-PVTZ AUX)
    Blend: AUG-CC-PVTZ-JKFIT
	 Reference Energy          =    -631.7301558720107550 [Eh]
	 Singles Energy            =      -0.0000000000000000 [Eh]
	 Same-Spin Energy          =      -0.6890205492992922 [Eh]
	 Opposite-Spin Energy      =      -2.2123301203314631 [Eh]
	 Correlation Energy        =      -2.9013506696307552 [Eh]
	 Total Energy              =    -634.6315065416415564 [Eh]

	 ================> DF-SCS-MP2 Energies <==================
	-----------------------------------------------------------
	 SCS Same-Spin Scale       =       0.3333333333333333 [-]
	 SCS Opposite-Spin Scale   =       1.2000000000000000 [-]
	 SCS Same-Spin Energy      =      -0.2296735164330974 [Eh]
	 SCS Opposite-Spin Energy  =      -2.6547961443977557 [Eh]
	 SCS Correlation Energy    =      -2.8844696608308529 [Eh]
	 SCS Total Energy          =    -634.6146255328416146 [Eh]
	-----------------------------------------------------------

  Dipole Moment: [D]
     X:     1.3755      Y:    -2.5166      Z:     2.3020     Total:     3.6776

*** Psi4 exiting successfully. Buy a developer a beer!
