                               Psi4 1.4a3.dev225

  ==> Input File <==

--------------------------------------------------------------------------
#psi4
#
memory 32 gb

molecule  {
0 1
  O        0.0109280     1.9504830    -1.2088660
  N        1.2104930     0.4628600     0.0596820
  C        3.6816010    -0.9509880     0.4072830
  C        3.5342200     0.1692850    -0.6230390
  C        2.3335540    -1.6180450     0.6838790
  C        2.3831895     1.2646251    -0.2770836
  C        1.2914730    -0.5760260     1.0805660
  C        0.0527250     0.9288280    -0.5097470
  C       -1.1808260     0.1020470    -0.2945890
  C       -2.2823960     0.6556420     0.3835130
  C       -1.2622800    -1.1716740    -0.8705440
  C       -3.4454200    -0.1153760     0.4879690
  C       -2.2065840     2.0368470     0.9809810
  C       -2.4366510    -1.9182050    -0.7675160
  C       -3.5304630    -1.3875060    -0.0828830
  H        4.4130950    -1.6928310     0.0671840
  H        4.0710030    -0.5292960     1.3442740
  H        4.4878230     0.6919580    -0.7653020
  H        3.2457620    -0.2529490    -1.5933530
  H        1.9831950    -2.1398170    -0.2152240
  H        2.4267450    -2.3652010     1.4815110
  H        2.7768740     1.6847790     0.7291870
  H        2.2671880     1.9220510    -0.9540200
  H        0.3069530    -1.0243470     1.2170770
  H        1.5834140    -0.1085280     2.0346680
  H       -0.4031770    -1.5700500    -1.4080150
  H       -4.3043690     0.2928860     1.0181070
  H       -2.0253310     2.7815300     0.2022010
  H       -3.1368610     2.2826280     1.5002420
  H       -1.3844770     2.1136550     1.7007310
  H       -2.4977120    -2.9041740    -1.2220500
  H       -4.4499260    -1.9612690     0.0072960
units angstrom
no_reorient  #important for SAPT in psi4, default
symmetry c1  #important for SAPT in psi4, default
}

set PROPERTIES_ORIGIN ["COM"]
properties('MP2/aug-cc-pvtz', properties = ['dipole'])
--------------------------------------------------------------------------

    Molecular point group: c1
  Charge       = 0
  Multiplicity = 1
  Basis Set: AUG-CC-PVTZ
    Blend: AUG-CC-PVTZ
  Basis Set: (AUG-CC-PVTZ AUX)
    Blend: AUG-CC-PVTZ-JKFIT

    Orbital Energies [Eh]
    ---------------------

    Doubly Occupied:

       1A    -20.511014     2A    -15.586269     3A    -11.347654
       4A    -11.271378     5A    -11.256291     6A    -11.251489
       7A    -11.245969     8A    -11.244307     9A    -11.242434
      10A    -11.239077    11A    -11.236871    12A    -11.231546
      13A    -11.230399    14A    -11.228998    15A    -11.220261
      16A     -1.368927    17A     -1.248782    18A     -1.161176
      19A     -1.079786    20A     -1.050880    21A     -1.037169
      22A     -1.019741    23A     -0.943005    24A     -0.918252
      25A     -0.872105    26A     -0.847000    27A     -0.814574
      28A     -0.787109    29A     -0.748908    30A     -0.714070
      31A     -0.670899    32A     -0.656027    33A     -0.648898
      34A     -0.629808    35A     -0.617913    36A     -0.614107
      37A     -0.598276    38A     -0.587945    39A     -0.579783
      40A     -0.571161    41A     -0.570207    42A     -0.545366
      43A     -0.539040    44A     -0.523727    45A     -0.507223
      46A     -0.497429    47A     -0.490663    48A     -0.489847
      49A     -0.477733    50A     -0.469674    51A     -0.461684
      52A     -0.417740    53A     -0.359408    54A     -0.339956
      55A     -0.329760

  @DF-RHF Final Energy:  -631.70122477645941

   => Energetics <=

    Nuclear Repulsion Energy =            999.3160975435088176
    One-Electron Energy =               -2841.7352191014560958
    Two-Electron Energy =                1210.7178967814877524
    Total Energy =                       -631.7012247764594122
  Basis Set: (AUG-CC-PVTZ AUX)
    Blend: AUG-CC-PVTZ-RI
    Molecular point group: c1

    Geometry (in Angstrom), charge = 0, multiplicity = 1:

       Center              X                  Y                   Z               Mass
    ------------   -----------------  -----------------  -----------------  -----------------
         O            0.061414784084     1.931224490744    -1.178689740452    15.994914619570
         N            1.260979784084     0.443601490744     0.089858259548    14.003074004430
         C            3.732087784084    -0.970246509256     0.437459259548    12.000000000000
         C            3.584706784084     0.150026490744    -0.592862740452    12.000000000000
         C            2.384040784084    -1.637303509256     0.714055259548    12.000000000000
         C            2.433676284084     1.245366590744    -0.246907340452    12.000000000000
         C            1.341959784084    -0.595284509256     1.110742259548    12.000000000000
         C            0.103211784084     0.909569490744    -0.479570740452    12.000000000000
         C           -1.130339215916     0.082788490744    -0.264412740452    12.000000000000
         C           -2.231909215916     0.636383490744     0.413689259548    12.000000000000
         C           -1.211793215916    -1.190932509256    -0.840367740452    12.000000000000
         C           -3.394933215916    -0.134634509256     0.518145259548    12.000000000000
         C           -2.156097215916     2.017588490744     1.011157259548    12.000000000000
         C           -2.386164215916    -1.937463509256    -0.737339740452    12.000000000000
         C           -3.479976215916    -1.406764509256    -0.052706740452    12.000000000000
         H            4.463581784084    -1.712089509256     0.097360259548     1.007825032230
         H            4.121489784084    -0.548554509256     1.374450259548     1.007825032230
         H            4.538309784084     0.672699490744    -0.735125740452     1.007825032230
         H            3.296248784084    -0.272207509256    -1.563176740452     1.007825032230
         H            2.033681784084    -2.159075509256    -0.185047740452     1.007825032230
         H            2.477231784084    -2.384459509256     1.511687259548     1.007825032230
         H            2.827360784084     1.665520490744     0.759363259548     1.007825032230
         H            2.317674784084     1.902792490744    -0.923843740452     1.007825032230
         H            0.357439784084    -1.043605509256     1.247253259548     1.007825032230
         H            1.633900784084    -0.127786509256     2.064844259548     1.007825032230
         H           -0.352690215916    -1.589308509256    -1.377838740452     1.007825032230
         H           -4.253882215916     0.273627490744     1.048283259548     1.007825032230
         H           -1.974844215916     2.762271490744     0.232377259548     1.007825032230
         H           -3.086374215916     2.263369490744     1.530418259548     1.007825032230
         H           -1.333990215916     2.094396490744     1.730907259548     1.007825032230
         H           -2.447225215916    -2.923432509256    -1.191873740452     1.007825032230
         H           -4.399439215916    -1.980527509256     0.037472259548     1.007825032230

  Basis Set: AUG-CC-PVTZ
    Blend: AUG-CC-PVTZ
  Basis Set: (AUG-CC-PVTZ AUX)
    Blend: AUG-CC-PVTZ-JKFIT
	 Reference Energy          =    -631.7012247764594122 [Eh]
	 Singles Energy            =      -0.0000000000000000 [Eh]
	 Same-Spin Energy          =      -0.6887975496391172 [Eh]
	 Opposite-Spin Energy      =      -2.2129149149781751 [Eh]
	 Correlation Energy        =      -2.9017124646172920 [Eh]
	 Total Energy              =    -634.6029372410766882 [Eh]

	 ================> DF-SCS-MP2 Energies <==================
	-----------------------------------------------------------
	 SCS Same-Spin Scale       =       0.3333333333333333 [-]
	 SCS Opposite-Spin Scale   =       1.2000000000000000 [-]
	 SCS Same-Spin Energy      =      -0.2295991832130391 [Eh]
	 SCS Opposite-Spin Energy  =      -2.6554978979738100 [Eh]
	 SCS Correlation Energy    =      -2.8850970811868488 [Eh]
	 SCS Total Energy          =    -634.5863218576462259 [Eh]
	-----------------------------------------------------------

  Dipole Moment: [D]
     X:     1.3909      Y:    -2.5730      Z:     2.3133     Total:     3.7292

*** Psi4 exiting successfully. Buy a developer a beer!
