                               Psi4 1.4a3.dev225

  ==> Input File <==

--------------------------------------------------------------------------
#psi4
#
memory 32 gb

molecule  {
0 1
  O        0.0109280     1.9504830    -1.2088660
  N        1.2104930     0.4628600     0.0596820
  C        3.6816010    -0.9509880     0.4072830
  C        3.5342200     0.1692850    -0.6230390
  C        2.3335540    -1.6180450     0.6838790
  C        2.4642000     1.1676880    -0.1911000
  C        1.2914730    -0.5760260     1.0805660
  C        0.0527250     0.9288280    -0.5097470
  C       -1.1808260     0.1020470    -0.2945890
  C       -2.2823960     0.6556420     0.3835130
  C       -1.2634434    -1.1898667    -0.8787704
  C       -3.4454200    -0.1153760     0.4879690
  C       -2.2065840     2.0368470     0.9809810
  C       -2.4366510    -1.9182050    -0.7675160
  C       -3.5304630    -1.3875060    -0.0828830
  H        4.4130950    -1.6928310     0.0671840
  H        4.0710030    -0.5292960     1.3442740
  H        4.4878230     0.6919580    -0.7653020
  H        3.2457620    -0.2529490    -1.5933530
  H        1.9831950    -2.1398170    -0.2152240
  H        2.4267450    -2.3652010     1.4815110
  H        2.7768740     1.6847790     0.7291870
  H        2.2671880     1.9220510    -0.9540200
  H        0.3069530    -1.0243470     1.2170770
  H        1.5834140    -0.1085280     2.0346680
  H       -0.4031770    -1.5700500    -1.4080150
  H       -4.3043690     0.2928860     1.0181070
  H       -2.0253310     2.7815300     0.2022010
  H       -3.1368610     2.2826280     1.5002420
  H       -1.3844770     2.1136550     1.7007310
  H       -2.4977120    -2.9041740    -1.2220500
  H       -4.4499260    -1.9612690     0.0072960
units angstrom
no_reorient  #important for SAPT in psi4, default
symmetry c1  #important for SAPT in psi4, default
}

set PROPERTIES_ORIGIN ["COM"]
properties('MP2/aug-cc-pvtz', properties = ['dipole'])
--------------------------------------------------------------------------

    Molecular point group: c1
  Charge       = 0
  Multiplicity = 1
  Basis Set: AUG-CC-PVTZ
    Blend: AUG-CC-PVTZ
  Basis Set: (AUG-CC-PVTZ AUX)
    Blend: AUG-CC-PVTZ-JKFIT

    Orbital Energies [Eh]
    ---------------------

    Doubly Occupied:

       1A    -20.510709     2A    -15.583865     3A    -11.349419
       4A    -11.267040     5A    -11.254613     6A    -11.251755
       7A    -11.247316     8A    -11.245947     9A    -11.242732
      10A    -11.238412    11A    -11.237406    12A    -11.230659
      13A    -11.228333    14A    -11.225689    15A    -11.220304
      16A     -1.366886    17A     -1.249533    18A     -1.160348
      19A     -1.083582    20A     -1.051805    21A     -1.036611
      22A     -1.022028    23A     -0.943867    24A     -0.918364
      25A     -0.867582    26A     -0.845013    27A     -0.815132
      28A     -0.790442    29A     -0.742269    30A     -0.711925
      31A     -0.667951    32A     -0.652791    33A     -0.648257
      34A     -0.628094    35A     -0.619746    36A     -0.615620
      37A     -0.595928    38A     -0.588067    39A     -0.576597
      40A     -0.571662    41A     -0.560158    42A     -0.547555
      43A     -0.541842    44A     -0.524810    45A     -0.508862
      46A     -0.501808    47A     -0.491326    48A     -0.488657
      49A     -0.478284    50A     -0.469593    51A     -0.461556
      52A     -0.416904    53A     -0.366203    54A     -0.338747
      55A     -0.330521

  @DF-RHF Final Energy:  -631.72998594417652

   => Energetics <=

    Nuclear Repulsion Energy =            999.6340206079549944
    One-Electron Energy =               -2842.4657700275688512
    Two-Electron Energy =                1211.1017634754375649
    Total Energy =                       -631.7299859441764056
  Basis Set: (AUG-CC-PVTZ AUX)
    Blend: AUG-CC-PVTZ-RI
    Molecular point group: c1

    Geometry (in Angstrom), charge = 0, multiplicity = 1:

       Center              X                  Y                   Z               Mass
    ------------   -----------------  -----------------  -----------------  -----------------
         O            0.056697802761     1.938025803707    -1.183283260569    15.994914619570
         N            1.256262802761     0.450402803707     0.085264739431    14.003074004430
         C            3.727370802761    -0.963445196293     0.432865739431    12.000000000000
         C            3.579989802761     0.156827803707    -0.597456260569    12.000000000000
         C            2.379323802761    -1.630502196293     0.709461739431    12.000000000000
         C            2.509969802761     1.155230803707    -0.165517260569    12.000000000000
         C            1.337242802761    -0.588483196293     1.106148739431    12.000000000000
         C            0.098494802761     0.916370803707    -0.484164260569    12.000000000000
         C           -1.135056197239     0.089589803707    -0.269006260569    12.000000000000
         C           -2.236626197239     0.643184803707     0.409095739431    12.000000000000
         C           -1.217673597239    -1.202323896293    -0.853187660569    12.000000000000
         C           -3.399650197239    -0.127833196293     0.513551739431    12.000000000000
         C           -2.160814197239     2.024389803707     1.006563739431    12.000000000000
         C           -2.390881197239    -1.930662196293    -0.741933260569    12.000000000000
         C           -3.484693197239    -1.399963196293    -0.057300260569    12.000000000000
         H            4.458864802761    -1.705288196293     0.092766739431     1.007825032230
         H            4.116772802761    -0.541753196293     1.369856739431     1.007825032230
         H            4.533592802761     0.679500803707    -0.739719260569     1.007825032230
         H            3.291531802761    -0.265406196293    -1.567770260569     1.007825032230
         H            2.028964802761    -2.152274196293    -0.189641260569     1.007825032230
         H            2.472514802761    -2.377658196293     1.507093739431     1.007825032230
         H            2.822643802761     1.672321803707     0.754769739431     1.007825032230
         H            2.312957802761     1.909593803707    -0.928437260569     1.007825032230
         H            0.352722802761    -1.036804196293     1.242659739431     1.007825032230
         H            1.629183802761    -0.120985196293     2.060250739431     1.007825032230
         H           -0.357407197239    -1.582507196293    -1.382432260569     1.007825032230
         H           -4.258599197239     0.280428803707     1.043689739431     1.007825032230
         H           -1.979561197239     2.769072803707     0.227783739431     1.007825032230
         H           -3.091091197239     2.270170803707     1.525824739431     1.007825032230
         H           -1.338707197239     2.101197803707     1.726313739431     1.007825032230
         H           -2.451942197239    -2.916631196293    -1.196467260569     1.007825032230
         H           -4.404156197239    -1.973726196293     0.032878739431     1.007825032230

  Basis Set: AUG-CC-PVTZ
    Blend: AUG-CC-PVTZ
  Basis Set: (AUG-CC-PVTZ AUX)
    Blend: AUG-CC-PVTZ-JKFIT
	 Reference Energy          =    -631.7299859441765193 [Eh]
	 Singles Energy            =      -0.0000000000000000 [Eh]
	 Same-Spin Energy          =      -0.6890467159216473 [Eh]
	 Opposite-Spin Energy      =      -2.2123689345633957 [Eh]
	 Correlation Energy        =      -2.9014156504850428 [Eh]
	 Total Energy              =    -634.6314015946616109 [Eh]

	 ================> DF-SCS-MP2 Energies <==================
	-----------------------------------------------------------
	 SCS Same-Spin Scale       =       0.3333333333333333 [-]
	 SCS Opposite-Spin Scale   =       1.2000000000000000 [-]
	 SCS Same-Spin Energy      =      -0.2296822386405491 [Eh]
	 SCS Opposite-Spin Energy  =      -2.6548427214760748 [Eh]
	 SCS Correlation Energy    =      -2.8845249601166238 [Eh]
	 SCS Total Energy          =    -634.6145109042931836 [Eh]
	-----------------------------------------------------------

  Dipole Moment: [D]
     X:     1.4059      Y:    -2.5172      Z:     2.3047     Total:     3.6912

*** Psi4 exiting successfully. Buy a developer a beer!
