                               Psi4 1.4a3.dev225

  ==> Input File <==

--------------------------------------------------------------------------
#psi4
#
memory 32 gb

molecule  {
0 1
  O        0.0109280     1.9504830    -1.2088660
  N        1.2104930     0.4628600     0.0596820
  C        3.6816010    -0.9509880     0.4072830
  C        3.5342200     0.1692850    -0.6230390
  C        2.3335540    -1.6180450     0.6838790
  C        2.4516300     1.1844102    -0.2056473
  C        1.2914730    -0.5760260     1.0805660
  C        0.0527250     0.9288280    -0.5097470
  C       -1.1808260     0.1020470    -0.2945890
  C       -2.2823960     0.6556420     0.3835130
  C       -1.2622800    -1.1716740    -0.8705440
  C       -3.4454200    -0.1153760     0.4879690
  C       -2.2065840     2.0368470     0.9809810
  C       -2.4366510    -1.9182050    -0.7675160
  C       -3.5304630    -1.3875060    -0.0828830
  H        4.4130950    -1.6928310     0.0671840
  H        4.0710030    -0.5292960     1.3442740
  H        4.4878230     0.6919580    -0.7653020
  H        3.2457620    -0.2529490    -1.5933530
  H        1.9831950    -2.1398170    -0.2152240
  H        2.4267450    -2.3652010     1.4815110
  H        2.7768740     1.6847790     0.7291870
  H        2.2671880     1.9220510    -0.9540200
  H        0.3069530    -1.0243470     1.2170770
  H        1.5834140    -0.1085280     2.0346680
  H       -0.4031770    -1.5700500    -1.4080150
  H       -4.3043690     0.2928860     1.0181070
  H       -2.0253310     2.7815300     0.2022010
  H       -3.1368610     2.2826280     1.5002420
  H       -1.3844770     2.1136550     1.7007310
  H       -2.4977120    -2.9041740    -1.2220500
  H       -4.4499260    -1.9612690     0.0072960
units angstrom
no_reorient  #important for SAPT in psi4, default
symmetry c1  #important for SAPT in psi4, default
}

set PROPERTIES_ORIGIN ["COM"]
properties('MP2/aug-cc-pvtz', properties = ['dipole'])
--------------------------------------------------------------------------

    Molecular point group: c1
  Charge       = 0
  Multiplicity = 1
  Basis Set: AUG-CC-PVTZ
    Blend: AUG-CC-PVTZ
  Basis Set: (AUG-CC-PVTZ AUX)
    Blend: AUG-CC-PVTZ-JKFIT

    Orbital Energies [Eh]
    ---------------------

    Doubly Occupied:

       1A    -20.510756     2A    -15.584120     3A    -11.349097
       4A    -11.267698     5A    -11.254511     6A    -11.251765
       7A    -11.246249     8A    -11.244876     9A    -11.242590
      10A    -11.239107    11A    -11.236939    12A    -11.230732
      13A    -11.228648    14A    -11.226178    15A    -11.220308
      16A     -1.367218    17A     -1.249321    18A     -1.161359
      19A     -1.082655    20A     -1.050786    21A     -1.037218
      22A     -1.022542    23A     -0.943090    24A     -0.918575
      25A     -0.867993    26A     -0.844552    27A     -0.815119
      28A     -0.790304    29A     -0.742956    30A     -0.712602
      31A     -0.667117    32A     -0.653025    33A     -0.648207
      34A     -0.628196    35A     -0.620225    36A     -0.614904
      37A     -0.596426    38A     -0.587970    39A     -0.575961
      40A     -0.571685    41A     -0.562491    42A     -0.546977
      43A     -0.541294    44A     -0.524836    45A     -0.507726
      46A     -0.501094    47A     -0.491391    48A     -0.489433
      49A     -0.477021    50A     -0.470428    51A     -0.463998
      52A     -0.417090    53A     -0.365318    54A     -0.339968
      55A     -0.329944

  @DF-RHF Final Energy:  -631.73026517007952

   => Energetics <=

    Nuclear Repulsion Energy =            999.8397292564975487
    One-Electron Energy =               -2842.8748126505843175
    Two-Electron Energy =                1211.3048182240072492
    Total Energy =                       -631.7302651700795195
  Basis Set: (AUG-CC-PVTZ AUX)
    Blend: AUG-CC-PVTZ-RI
    Molecular point group: c1

    Geometry (in Angstrom), charge = 0, multiplicity = 1:

       Center              X                  Y                   Z               Mass
    ------------   -----------------  -----------------  -----------------  -----------------
         O            0.057371649641     1.935963199916    -1.182909852302    15.994914619570
         N            1.256936649641     0.448340199916     0.085638147698    14.003074004430
         C            3.728044649641    -0.965507800084     0.433239147698    12.000000000000
         C            3.580663649641     0.154765199916    -0.597082852302    12.000000000000
         C            2.379997649641    -1.632564800084     0.709835147698    12.000000000000
         C            2.498073649641     1.169890399916    -0.179691152302    12.000000000000
         C            1.337916649641    -0.590545800084     1.106522147698    12.000000000000
         C            0.099168649641     0.914308199916    -0.483790852302    12.000000000000
         C           -1.134382350359     0.087527199916    -0.268632852302    12.000000000000
         C           -2.235952350359     0.641122199916     0.409469147698    12.000000000000
         C           -1.215836350359    -1.186193800084    -0.844587852302    12.000000000000
         C           -3.398976350359    -0.129895800084     0.513925147698    12.000000000000
         C           -2.160140350359     2.022327199916     1.006937147698    12.000000000000
         C           -2.390207350359    -1.932724800084    -0.741559852302    12.000000000000
         C           -3.484019350359    -1.402025800084    -0.056926852302    12.000000000000
         H            4.459538649641    -1.707350800084     0.093140147698     1.007825032230
         H            4.117446649641    -0.543815800084     1.370230147698     1.007825032230
         H            4.534266649641     0.677438199916    -0.739345852302     1.007825032230
         H            3.292205649641    -0.267468800084    -1.567396852302     1.007825032230
         H            2.029638649641    -2.154336800084    -0.189267852302     1.007825032230
         H            2.473188649641    -2.379720800084     1.507467147698     1.007825032230
         H            2.823317649641     1.670259199916     0.755143147698     1.007825032230
         H            2.313631649641     1.907531199916    -0.928063852302     1.007825032230
         H            0.353396649641    -1.038866800084     1.243033147698     1.007825032230
         H            1.629857649641    -0.123047800084     2.060624147698     1.007825032230
         H           -0.356733350359    -1.584569800084    -1.382058852302     1.007825032230
         H           -4.257925350359     0.278366199916     1.044063147698     1.007825032230
         H           -1.978887350359     2.767010199916     0.228157147698     1.007825032230
         H           -3.090417350359     2.268108199916     1.526198147698     1.007825032230
         H           -1.338033350359     2.099135199916     1.726687147698     1.007825032230
         H           -2.451268350359    -2.918693800084    -1.196093852302     1.007825032230
         H           -4.403482350359    -1.975788800084     0.033252147698     1.007825032230

  Basis Set: AUG-CC-PVTZ
    Blend: AUG-CC-PVTZ
  Basis Set: (AUG-CC-PVTZ AUX)
    Blend: AUG-CC-PVTZ-JKFIT
	 Reference Energy          =    -631.7302651700795195 [Eh]
	 Singles Energy            =      -0.0000000000000000 [Eh]
	 Same-Spin Energy          =      -0.6888583066726093 [Eh]
	 Opposite-Spin Energy      =      -2.2120967475411417 [Eh]
	 Correlation Energy        =      -2.9009550542137510 [Eh]
	 Total Energy              =    -634.6312202242933154 [Eh]

	 ================> DF-SCS-MP2 Energies <==================
	-----------------------------------------------------------
	 SCS Same-Spin Scale       =       0.3333333333333333 [-]
	 SCS Opposite-Spin Scale   =       1.2000000000000000 [-]
	 SCS Same-Spin Energy      =      -0.2296194355575364 [Eh]
	 SCS Opposite-Spin Energy  =      -2.6545160970493700 [Eh]
	 SCS Correlation Energy    =      -2.8841355326069062 [Eh]
	 SCS Total Energy          =    -634.6144007026864529 [Eh]
	-----------------------------------------------------------

  Dipole Moment: [D]
     X:     1.4060      Y:    -2.5233      Z:     2.3049     Total:     3.6954

*** Psi4 exiting successfully. Buy a developer a beer!
