                               Psi4 1.4a3.dev225

  ==> Input File <==

--------------------------------------------------------------------------
#psi4
#
memory 32 gb

molecule  {
0 1
  O        0.0109280     1.9504830    -1.2088660
  N        1.2104930     0.4628600     0.0596820
  C        3.6816010    -0.9509880     0.4072830
  C        3.5342200     0.1692850    -0.6230390
  C        2.3335540    -1.6180450     0.6838790
  C        2.4642000     1.1676880    -0.1911000
  C        1.2914730    -0.5760260     1.0805660
  C        0.0527250     0.9288280    -0.5097470
  C       -1.1808260     0.1020470    -0.2945890
  C       -2.2823960     0.6556420     0.3835130
  C       -1.2622800    -1.1716740    -0.8705440
  C       -3.4454200    -0.1153760     0.4879690
  C       -2.2065840     2.0368470     0.9809810
  C       -2.4366510    -1.9182050    -0.7675160
  C       -3.5304630    -1.3875060    -0.0828830
  H        4.4130950    -1.6928310     0.0671840
  H        4.0710030    -0.5292960     1.3442740
  H        4.4878230     0.6919580    -0.7653020
  H        3.2457620    -0.2529490    -1.5933530
  H        1.9831950    -2.1398170    -0.2152240
  H        2.4267450    -2.3652010     1.4815110
  H        2.7768740     1.6847790     0.7291870
  H        2.2671880     1.9220510    -0.9540200
  H        0.3069530    -1.0243470     1.2170770
  H        1.5966616    -0.0873140     2.0779631
  H       -0.4031770    -1.5700500    -1.4080150
  H       -4.3043690     0.2928860     1.0181070
  H       -2.0253310     2.7815300     0.2022010
  H       -3.1368610     2.2826280     1.5002420
  H       -1.3844770     2.1136550     1.7007310
  H       -2.4977120    -2.9041740    -1.2220500
  H       -4.4499260    -1.9612690     0.0072960
units angstrom
no_reorient  #important for SAPT in psi4, default
symmetry c1  #important for SAPT in psi4, default
}

set PROPERTIES_ORIGIN ["COM"]
properties('MP2/aug-cc-pvtz', properties = ['dipole'])
--------------------------------------------------------------------------

    Molecular point group: c1
  Charge       = 0
  Multiplicity = 1
  Basis Set: AUG-CC-PVTZ
    Blend: AUG-CC-PVTZ
  Basis Set: (AUG-CC-PVTZ AUX)
    Blend: AUG-CC-PVTZ-JKFIT

    Orbital Energies [Eh]
    ---------------------

    Doubly Occupied:

       1A    -20.511301     2A    -15.584664     3A    -11.349913
       4A    -11.273083     5A    -11.254695     6A    -11.252042
       7A    -11.246584     8A    -11.245253     9A    -11.242834
      10A    -11.239322    11A    -11.237136    12A    -11.231211
      13A    -11.228344    14A    -11.225758    15A    -11.220411
      16A     -1.367436    17A     -1.249725    18A     -1.161627
      19A     -1.083686    20A     -1.050957    21A     -1.037015
      22A     -1.022623    23A     -0.943059    24A     -0.917993
      25A     -0.866423    26A     -0.844296    27A     -0.815417
      28A     -0.790909    29A     -0.741393    30A     -0.712144
      31A     -0.666879    32A     -0.652407    33A     -0.647029
      34A     -0.627942    35A     -0.619363    36A     -0.615237
      37A     -0.596186    38A     -0.586926    39A     -0.575823
      40A     -0.571818    41A     -0.560617    42A     -0.547716
      43A     -0.541601    44A     -0.524083    45A     -0.507937
      46A     -0.500125    47A     -0.491405    48A     -0.489404
      49A     -0.478699    50A     -0.469489    51A     -0.461714
      52A     -0.417249    53A     -0.366136    54A     -0.340210
      55A     -0.330178

  @DF-RHF Final Energy:  -631.72853191803620

   => Energetics <=

    Nuclear Repulsion Energy =            999.6943665514810391
    One-Electron Energy =               -2842.5789413303104993
    Two-Electron Energy =                1211.1560428607933773
    Total Energy =                       -631.7285319180361967
  Basis Set: (AUG-CC-PVTZ AUX)
    Blend: AUG-CC-PVTZ-RI
    Molecular point group: c1

    Geometry (in Angstrom), charge = 0, multiplicity = 1:

       Center              X                  Y                   Z               Mass
    ------------   -----------------  -----------------  -----------------  -----------------
         O            0.056563347356     1.936845814520    -1.183984043195    15.994914619570
         N            1.256128347356     0.449222814520     0.084563956805    14.003074004430
         C            3.727236347356    -0.964625185480     0.432164956805    12.000000000000
         C            3.579855347356     0.155647814520    -0.598157043195    12.000000000000
         C            2.379189347356    -1.631682185480     0.708760956805    12.000000000000
         C            2.509835347356     1.154050814520    -0.166218043195    12.000000000000
         C            1.337108347356    -0.589663185480     1.105447956805    12.000000000000
         C            0.098360347356     0.915190814520    -0.484865043195    12.000000000000
         C           -1.135190652644     0.088409814520    -0.269707043195    12.000000000000
         C           -2.236760652644     0.642004814520     0.408394956805    12.000000000000
         C           -1.216644652644    -1.185311185480    -0.845662043195    12.000000000000
         C           -3.399784652644    -0.129013185480     0.512850956805    12.000000000000
         C           -2.160948652644     2.023209814520     1.005862956805    12.000000000000
         C           -2.391015652644    -1.931842185480    -0.742634043195    12.000000000000
         C           -3.484827652644    -1.401143185480    -0.058001043195    12.000000000000
         H            4.458730347356    -1.706468185480     0.092065956805     1.007825032230
         H            4.116638347356    -0.542933185480     1.369155956805     1.007825032230
         H            4.533458347356     0.678320814520    -0.740420043195     1.007825032230
         H            3.291397347356    -0.266586185480    -1.568471043195     1.007825032230
         H            2.028830347356    -2.153454185480    -0.190342043195     1.007825032230
         H            2.472380347356    -2.378838185480     1.506392956805     1.007825032230
         H            2.822509347356     1.671141814520     0.754068956805     1.007825032230
         H            2.312823347356     1.908413814520    -0.929138043195     1.007825032230
         H            0.352588347356    -1.037984185480     1.241958956805     1.007825032230
         H            1.642296947356    -0.100951185480     2.102845056805     1.007825032230
         H           -0.357541652644    -1.583687185480    -1.383133043195     1.007825032230
         H           -4.258733652644     0.279248814520     1.042988956805     1.007825032230
         H           -1.979695652644     2.767892814520     0.227082956805     1.007825032230
         H           -3.091225652644     2.268990814520     1.525123956805     1.007825032230
         H           -1.338841652644     2.100017814520     1.725612956805     1.007825032230
         H           -2.452076652644    -2.917811185480    -1.197168043195     1.007825032230
         H           -4.404290652644    -1.974906185480     0.032177956805     1.007825032230

  Basis Set: AUG-CC-PVTZ
    Blend: AUG-CC-PVTZ
  Basis Set: (AUG-CC-PVTZ AUX)
    Blend: AUG-CC-PVTZ-JKFIT
	 Reference Energy          =    -631.7285319180361967 [Eh]
	 Singles Energy            =      -0.0000000000000000 [Eh]
	 Same-Spin Energy          =      -0.6890983971814453 [Eh]
	 Opposite-Spin Energy      =      -2.2126624470320797 [Eh]
	 Correlation Energy        =      -2.9017608442135252 [Eh]
	 Total Energy              =    -634.6302927622497236 [Eh]

	 ================> DF-SCS-MP2 Energies <==================
	-----------------------------------------------------------
	 SCS Same-Spin Scale       =       0.3333333333333333 [-]
	 SCS Opposite-Spin Scale   =       1.2000000000000000 [-]
	 SCS Same-Spin Energy      =      -0.2296994657271484 [Eh]
	 SCS Opposite-Spin Energy  =      -2.6551949364384955 [Eh]
	 SCS Correlation Energy    =      -2.8848944021656440 [Eh]
	 SCS Total Energy          =    -634.6134263202018246 [Eh]
	-----------------------------------------------------------

  Dipole Moment: [D]
     X:     1.3831      Y:    -2.5216      Z:     2.2575     Total:     3.6561

*** Psi4 exiting successfully. Buy a developer a beer!
