                               Psi4 1.4a3.dev225

  ==> Input File <==

--------------------------------------------------------------------------
#psi4
#
memory 32 gb

molecule  {
0 1
  O        0.0109280     1.9504830    -1.2088660
  N        1.2104930     0.4628600     0.0596820
  C        3.6816010    -0.9509880     0.4072830
  C        3.5342200     0.1692850    -0.6230390
  C        2.3335540    -1.6180450     0.6838790
  C        2.4642000     1.1676880    -0.1911000
  C        1.2914730    -0.5760260     1.0805660
  C        0.0527250     0.9288280    -0.5097470
  C       -1.1808260     0.1020470    -0.2945890
  C       -2.2823960     0.6556420     0.3835130
  C       -1.2622800    -1.1716740    -0.8705440
  C       -3.4454200    -0.1153760     0.4879690
  C       -2.2065840     2.0368470     0.9809810
  C       -2.4366510    -1.9182050    -0.7675160
  C       -3.5304630    -1.3875060    -0.0828830
  H        4.4130950    -1.6928310     0.0671840
  H        4.0710030    -0.5292960     1.3442740
  H        4.4878230     0.6919580    -0.7653020
  H        3.2510219    -0.2452497    -1.5756597
  H        1.9831950    -2.1398170    -0.2152240
  H        2.4267450    -2.3652010     1.4815110
  H        2.7768740     1.6847790     0.7291870
  H        2.2671880     1.9220510    -0.9540200
  H        0.3069530    -1.0243470     1.2170770
  H        1.5834140    -0.1085280     2.0346680
  H       -0.4031770    -1.5700500    -1.4080150
  H       -4.3043690     0.2928860     1.0181070
  H       -2.0253310     2.7815300     0.2022010
  H       -3.1368610     2.2826280     1.5002420
  H       -1.3844770     2.1136550     1.7007310
  H       -2.4977120    -2.9041740    -1.2220500
  H       -4.4499260    -1.9612690     0.0072960
units angstrom
no_reorient  #important for SAPT in psi4, default
symmetry c1  #important for SAPT in psi4, default
}

set PROPERTIES_ORIGIN ["COM"]
properties('MP2/aug-cc-pvtz', properties = ['dipole'])
--------------------------------------------------------------------------

    Molecular point group: c1
  Charge       = 0
  Multiplicity = 1
  Basis Set: AUG-CC-PVTZ
    Blend: AUG-CC-PVTZ
  Basis Set: (AUG-CC-PVTZ AUX)
    Blend: AUG-CC-PVTZ-JKFIT

    Orbital Energies [Eh]
    ---------------------

    Doubly Occupied:

       1A    -20.510783     2A    -15.583889     3A    -11.349450
       4A    -11.267039     5A    -11.254418     6A    -11.251845
       7A    -11.246347     8A    -11.245018     9A    -11.242647
      10A    -11.239143    11A    -11.236977    12A    -11.230607
      13A    -11.228089    14A    -11.223196    15A    -11.220329
      16A     -1.366995    17A     -1.249584    18A     -1.161432
      19A     -1.083894    20A     -1.050797    21A     -1.037390
      22A     -1.023457    23A     -0.943159    24A     -0.918746
      25A     -0.868118    26A     -0.844095    27A     -0.815446
      28A     -0.791787    29A     -0.743028    30A     -0.712349
      31A     -0.666762    32A     -0.653063    33A     -0.648356
      34A     -0.628300    35A     -0.620713    36A     -0.615287
      37A     -0.596602    38A     -0.588158    39A     -0.575657
      40A     -0.571791    41A     -0.560187    42A     -0.547397
      43A     -0.541611    44A     -0.524883    45A     -0.508244
      46A     -0.502732    47A     -0.491629    48A     -0.489442
      49A     -0.479098    50A     -0.469923    51A     -0.461426
      52A     -0.416922    53A     -0.366171    54A     -0.339996
      55A     -0.329998

  @DF-RHF Final Energy:  -631.73072198198167

   => Energetics <=

    Nuclear Repulsion Energy =           1000.0647254303640921
    One-Electron Energy =               -2843.3220856777866175
    Two-Electron Energy =                1211.5266382654410791
    Total Energy =                       -631.7307219819815600
  Basis Set: (AUG-CC-PVTZ AUX)
    Blend: AUG-CC-PVTZ-RI
    Molecular point group: c1

    Geometry (in Angstrom), charge = 0, multiplicity = 1:

       Center              X                  Y                   Z               Mass
    ------------   -----------------  -----------------  -----------------  -----------------
         O            0.056602977956     1.936912867073    -1.183857021061    15.994914619570
         N            1.256167977956     0.449289867073     0.084690978939    14.003074004430
         C            3.727275977956    -0.964558132927     0.432291978939    12.000000000000
         C            3.579894977956     0.155714867073    -0.598030021061    12.000000000000
         C            2.379228977956    -1.631615132927     0.708887978939    12.000000000000
         C            2.509874977956     1.154117867073    -0.166091021061    12.000000000000
         C            1.337147977956    -0.589596132927     1.105574978939    12.000000000000
         C            0.098399977956     0.915257867073    -0.484738021061    12.000000000000
         C           -1.135151022044     0.088476867073    -0.269580021061    12.000000000000
         C           -2.236721022044     0.642071867073     0.408521978939    12.000000000000
         C           -1.216605022044    -1.185244132927    -0.845535021061    12.000000000000
         C           -3.399745022044    -0.128946132927     0.512977978939    12.000000000000
         C           -2.160909022044     2.023276867073     1.005989978939    12.000000000000
         C           -2.390976022044    -1.931775132927    -0.742507021061    12.000000000000
         C           -3.484788022044    -1.401076132927    -0.057874021061    12.000000000000
         H            4.458769977956    -1.706401132927     0.092192978939     1.007825032230
         H            4.116677977956    -0.542866132927     1.369282978939     1.007825032230
         H            4.533497977956     0.678387867073    -0.740293021061     1.007825032230
         H            3.296696877956    -0.258819832927    -1.550650721061     1.007825032230
         H            2.028869977956    -2.153387132927    -0.190215021061     1.007825032230
         H            2.472419977956    -2.378771132927     1.506519978939     1.007825032230
         H            2.822548977956     1.671208867073     0.754195978939     1.007825032230
         H            2.312862977956     1.908480867073    -0.929011021061     1.007825032230
         H            0.352627977956    -1.037917132927     1.242085978939     1.007825032230
         H            1.629088977956    -0.122098132927     2.059676978939     1.007825032230
         H           -0.357502022044    -1.583620132927    -1.383006021061     1.007825032230
         H           -4.258694022044     0.279315867073     1.043115978939     1.007825032230
         H           -1.979656022044     2.767959867073     0.227209978939     1.007825032230
         H           -3.091186022044     2.269057867073     1.525250978939     1.007825032230
         H           -1.338802022044     2.100084867073     1.725739978939     1.007825032230
         H           -2.452037022044    -2.917744132927    -1.197041021061     1.007825032230
         H           -4.404251022044    -1.974839132927     0.032304978939     1.007825032230

  Basis Set: AUG-CC-PVTZ
    Blend: AUG-CC-PVTZ
  Basis Set: (AUG-CC-PVTZ AUX)
    Blend: AUG-CC-PVTZ-JKFIT
	 Reference Energy          =    -631.7307219819816737 [Eh]
	 Singles Energy            =      -0.0000000000000000 [Eh]
	 Same-Spin Energy          =      -0.6890116995497048 [Eh]
	 Opposite-Spin Energy      =      -2.2121382372629390 [Eh]
	 Correlation Energy        =      -2.9011499368126437 [Eh]
	 Total Energy              =    -634.6318719187943316 [Eh]

	 ================> DF-SCS-MP2 Energies <==================
	-----------------------------------------------------------
	 SCS Same-Spin Scale       =       0.3333333333333333 [-]
	 SCS Opposite-Spin Scale   =       1.2000000000000000 [-]
	 SCS Same-Spin Energy      =      -0.2296705665165683 [Eh]
	 SCS Opposite-Spin Energy  =      -2.6545658847155269 [Eh]
	 SCS Correlation Energy    =      -2.8842364512320953 [Eh]
	 SCS Total Energy          =    -634.6149584332138147 [Eh]
	-----------------------------------------------------------

  Dipole Moment: [D]
     X:     1.4040      Y:    -2.5232      Z:     2.2929     Total:     3.6871

*** Psi4 exiting successfully. Buy a developer a beer!
