                               Psi4 1.4a3.dev225

  ==> Input File <==

--------------------------------------------------------------------------
#psi4
#
memory 32 gb

molecule  {
0 1
  O        0.0109280     1.9504830    -1.2088660
  N        1.2104930     0.4628600     0.0596820
  C        3.6816010    -0.9509880     0.4072830
  C        3.5342200     0.1692850    -0.6230390
  C        2.3335540    -1.6180450     0.6838790
  C        2.2924535     1.0711329    -0.1567451
  C        1.2914730    -0.5760260     1.0805660
  C        0.0527250     0.9288280    -0.5097470
  C       -1.1808260     0.1020470    -0.2945890
  C       -2.2823960     0.6556420     0.3835130
  C       -1.2622800    -1.1716740    -0.8705440
  C       -3.4454200    -0.1153760     0.4879690
  C       -2.2065840     2.0368470     0.9809810
  C       -2.4366510    -1.9182050    -0.7675160
  C       -3.5304630    -1.3875060    -0.0828830
  H        4.4130950    -1.6928310     0.0671840
  H        4.0710030    -0.5292960     1.3442740
  H        4.4878230     0.6919580    -0.7653020
  H        3.2457620    -0.2529490    -1.5933530
  H        1.9831950    -2.1398170    -0.2152240
  H        2.4267450    -2.3652010     1.4815110
  H        2.7768740     1.6847790     0.7291870
  H        2.2671880     1.9220510    -0.9540200
  H        0.3069530    -1.0243470     1.2170770
  H        1.5834140    -0.1085280     2.0346680
  H       -0.4031770    -1.5700500    -1.4080150
  H       -4.3043690     0.2928860     1.0181070
  H       -2.0253310     2.7815300     0.2022010
  H       -3.1368610     2.2826280     1.5002420
  H       -1.3844770     2.1136550     1.7007310
  H       -2.4977120    -2.9041740    -1.2220500
  H       -4.4499260    -1.9612690     0.0072960
units angstrom
no_reorient  #important for SAPT in psi4, default
symmetry c1  #important for SAPT in psi4, default
}

set PROPERTIES_ORIGIN ["COM"]
properties('MP2/aug-cc-pvtz', properties = ['dipole'])
--------------------------------------------------------------------------

    Molecular point group: c1
  Charge       = 0
  Multiplicity = 1
  Basis Set: AUG-CC-PVTZ
    Blend: AUG-CC-PVTZ
  Basis Set: (AUG-CC-PVTZ AUX)
    Blend: AUG-CC-PVTZ-JKFIT

    Orbital Energies [Eh]
    ---------------------

    Doubly Occupied:

       1A    -20.520238     2A    -15.587569     3A    -11.356917
       4A    -11.271975     5A    -11.255318     6A    -11.253919
       7A    -11.250121     8A    -11.248923     9A    -11.245757
      10A    -11.242155    11A    -11.239916    12A    -11.232276
      13A    -11.224011    14A    -11.223118    15A    -11.222673
      16A     -1.384877    17A     -1.296563    18A     -1.165507
      19A     -1.083750    20A     -1.055229    21A     -1.043882
      22A     -1.018088    23A     -0.948767    24A     -0.921392
      25A     -0.881308    26A     -0.841922    27A     -0.818587
      28A     -0.797723    29A     -0.743443    30A     -0.722692
      31A     -0.670128    32A     -0.661709    33A     -0.657062
      34A     -0.632278    35A     -0.628254    36A     -0.619502
      37A     -0.600249    38A     -0.593821    39A     -0.579181
      40A     -0.575126    41A     -0.567521    42A     -0.544995
      43A     -0.540059    44A     -0.521475    45A     -0.510808
      46A     -0.497213    47A     -0.493300    48A     -0.487700
      49A     -0.474375    50A     -0.469465    51A     -0.437966
      52A     -0.426100    53A     -0.353497    54A     -0.343258
      55A     -0.333136

  @DF-RHF Final Energy:  -631.68184969146489

   => Energetics <=

    Nuclear Repulsion Energy =           1004.3547984362472789
    One-Electron Energy =               -2851.4397086523226790
    Two-Electron Energy =                1215.4030605246107370
    Total Energy =                       -631.6818496914647767
  Basis Set: (AUG-CC-PVTZ AUX)
    Blend: AUG-CC-PVTZ-RI
    Molecular point group: c1

    Geometry (in Angstrom), charge = 0, multiplicity = 1:

       Center              X                  Y                   Z               Mass
    ------------   -----------------  -----------------  -----------------  -----------------
         O            0.066775029069     1.942655076120    -1.185798758274    15.994914619570
         N            1.266340029069     0.455032076120     0.082749241726    14.003074004430
         C            3.737448029069    -0.958815923880     0.430350241726    12.000000000000
         C            3.590067029069     0.161457076120    -0.599971758274    12.000000000000
         C            2.389401029069    -1.625872923880     0.706946241726    12.000000000000
         C            2.348300529069     1.063304976120    -0.133677858274    12.000000000000
         C            1.347320029069    -0.583853923880     1.103633241726    12.000000000000
         C            0.108572029069     0.921000076120    -0.486679758274    12.000000000000
         C           -1.124978970931     0.094219076120    -0.271521758274    12.000000000000
         C           -2.226548970931     0.647814076120     0.406580241726    12.000000000000
         C           -1.206432970931    -1.179501923880    -0.847476758274    12.000000000000
         C           -3.389572970931    -0.123203923880     0.511036241726    12.000000000000
         C           -2.150736970931     2.029019076120     1.004048241726    12.000000000000
         C           -2.380803970931    -1.926032923880    -0.744448758274    12.000000000000
         C           -3.474615970931    -1.395333923880    -0.059815758274    12.000000000000
         H            4.468942029069    -1.700658923880     0.090251241726     1.007825032230
         H            4.126850029069    -0.537123923880     1.367341241726     1.007825032230
         H            4.543670029069     0.684130076120    -0.742234758274     1.007825032230
         H            3.301609029069    -0.260776923880    -1.570285758274     1.007825032230
         H            2.039042029069    -2.147644923880    -0.192156758274     1.007825032230
         H            2.482592029069    -2.373028923880     1.504578241726     1.007825032230
         H            2.832721029069     1.676951076120     0.752254241726     1.007825032230
         H            2.323035029069     1.914223076120    -0.930952758274     1.007825032230
         H            0.362800029069    -1.032174923880     1.240144241726     1.007825032230
         H            1.639261029069    -0.116355923880     2.057735241726     1.007825032230
         H           -0.347329970931    -1.577877923880    -1.384947758274     1.007825032230
         H           -4.248521970931     0.285058076120     1.041174241726     1.007825032230
         H           -1.969483970931     2.773702076120     0.225268241726     1.007825032230
         H           -3.081013970931     2.274800076120     1.523309241726     1.007825032230
         H           -1.328629970931     2.105827076120     1.723798241726     1.007825032230
         H           -2.441864970931    -2.912001923880    -1.198982758274     1.007825032230
         H           -4.394078970931    -1.969096923880     0.030363241726     1.007825032230

  Basis Set: AUG-CC-PVTZ
    Blend: AUG-CC-PVTZ
  Basis Set: (AUG-CC-PVTZ AUX)
    Blend: AUG-CC-PVTZ-JKFIT
	 Reference Energy          =    -631.6818496914648904 [Eh]
	 Singles Energy            =      -0.0000000000000000 [Eh]
	 Same-Spin Energy          =      -0.6919941862652664 [Eh]
	 Opposite-Spin Energy      =      -2.2155222064495761 [Eh]
	 Correlation Energy        =      -2.9075163927148426 [Eh]
	 Total Energy              =    -634.5893660841796873 [Eh]

	 ================> DF-SCS-MP2 Energies <==================
	-----------------------------------------------------------
	 SCS Same-Spin Scale       =       0.3333333333333333 [-]
	 SCS Opposite-Spin Scale   =       1.2000000000000000 [-]
	 SCS Same-Spin Energy      =      -0.2306647287550888 [Eh]
	 SCS Opposite-Spin Energy  =      -2.6586266477394913 [Eh]
	 SCS Correlation Energy    =      -2.8892913764945800 [Eh]
	 SCS Total Energy          =    -634.5711410679595019 [Eh]
	-----------------------------------------------------------

  Dipole Moment: [D]
     X:     0.7137      Y:    -2.6968      Z:     2.2217     Total:     3.5662

*** Psi4 exiting successfully. Buy a developer a beer!
