                               Psi4 1.4a3.dev225

  ==> Input File <==

--------------------------------------------------------------------------
#psi4
#
memory 32 gb

molecule  {
0 1
  O        0.0109280     1.9504830    -1.2088660
  N        1.2104930     0.4628600     0.0596820
  C        3.6816010    -0.9509880     0.4072830
  C        3.5342200     0.1692850    -0.6230390
  C        2.3335540    -1.6180450     0.6838790
  C        2.4642000     1.1676880    -0.1911000
  C        1.2914730    -0.5760260     1.0805660
  C        0.0527250     0.9288280    -0.5097470
  C       -1.1808260     0.1020470    -0.2945890
  C       -2.2823960     0.6556420     0.3835130
  C       -1.2622800    -1.1716740    -0.8705440
  C       -3.4454200    -0.1153760     0.4879690
  C       -2.2040683     2.0826794     1.0008067
  C       -2.4366510    -1.9182050    -0.7675160
  C       -3.5304630    -1.3875060    -0.0828830
  H        4.4130950    -1.6928310     0.0671840
  H        4.0710030    -0.5292960     1.3442740
  H        4.4878230     0.6919580    -0.7653020
  H        3.2457620    -0.2529490    -1.5933530
  H        1.9831950    -2.1398170    -0.2152240
  H        2.4267450    -2.3652010     1.4815110
  H        2.7768740     1.6847790     0.7291870
  H        2.2671880     1.9220510    -0.9540200
  H        0.3069530    -1.0243470     1.2170770
  H        1.5834140    -0.1085280     2.0346680
  H       -0.4031770    -1.5700500    -1.4080150
  H       -4.3043690     0.2928860     1.0181070
  H       -2.0253310     2.7815300     0.2022010
  H       -3.1368610     2.2826280     1.5002420
  H       -1.3844770     2.1136550     1.7007310
  H       -2.4977120    -2.9041740    -1.2220500
  H       -4.4499260    -1.9612690     0.0072960
units angstrom
no_reorient  #important for SAPT in psi4, default
symmetry c1  #important for SAPT in psi4, default
}

set PROPERTIES_ORIGIN ["COM"]
properties('MP2/aug-cc-pvtz', properties = ['dipole'])
--------------------------------------------------------------------------

    Molecular point group: c1
  Charge       = 0
  Multiplicity = 1
  Basis Set: AUG-CC-PVTZ
    Blend: AUG-CC-PVTZ
  Basis Set: (AUG-CC-PVTZ AUX)
    Blend: AUG-CC-PVTZ-JKFIT

    Orbital Energies [Eh]
    ---------------------

    Doubly Occupied:

       1A    -20.510826     2A    -15.583891     3A    -11.349373
       4A    -11.267062     5A    -11.254637     6A    -11.253558
       7A    -11.246186     8A    -11.244916     9A    -11.242523
      10A    -11.239005    11A    -11.236965    12A    -11.230622
      13A    -11.228315    14A    -11.225675    15A    -11.219543
      16A     -1.366984    17A     -1.249590    18A     -1.159816
      19A     -1.083587    20A     -1.046441    21A     -1.036647
      22A     -1.022990    23A     -0.943629    24A     -0.919502
      25A     -0.867414    26A     -0.843630    27A     -0.815586
      28A     -0.791069    29A     -0.742607    30A     -0.712206
      31A     -0.665468    32A     -0.652096    33A     -0.647924
      34A     -0.627584    35A     -0.619882    36A     -0.614969
      37A     -0.596242    38A     -0.588283    39A     -0.576919
      40A     -0.571066    41A     -0.559280    42A     -0.550012
      43A     -0.545564    44A     -0.525830    45A     -0.508050
      46A     -0.500806    47A     -0.492629    48A     -0.485167
      49A     -0.477901    50A     -0.469577    51A     -0.461598
      52A     -0.416958    53A     -0.366297    54A     -0.339830
      55A     -0.330959

  @DF-RHF Final Energy:  -631.72917183412255

   => Energetics <=

    Nuclear Repulsion Energy =            999.0292197799542464
    One-Electron Energy =               -2841.2654157317733734
    Two-Electron Energy =                1210.5070241176965737
    Total Energy =                       -631.7291718341225533
  Basis Set: (AUG-CC-PVTZ AUX)
    Blend: AUG-CC-PVTZ-RI
    Molecular point group: c1

    Geometry (in Angstrom), charge = 0, multiplicity = 1:

       Center              X                  Y                   Z               Mass
    ------------   -----------------  -----------------  -----------------  -----------------
         O            0.056480459289     1.934243509787    -1.184940443257    15.994914619570
         N            1.256045459289     0.446620509787     0.083607556743    14.003074004430
         C            3.727153459289    -0.967227490213     0.431208556743    12.000000000000
         C            3.579772459289     0.153045509787    -0.599113443257    12.000000000000
         C            2.379106459289    -1.634284490213     0.707804556743    12.000000000000
         C            2.509752459289     1.151448509787    -0.167174443257    12.000000000000
         C            1.337025459289    -0.592265490213     1.104491556743    12.000000000000
         C            0.098277459289     0.912588509787    -0.485821443257    12.000000000000
         C           -1.135273540711     0.085807509787    -0.270663443257    12.000000000000
         C           -2.236843540711     0.639402509787     0.407438556743    12.000000000000
         C           -1.216727540711    -1.187913490213    -0.846618443257    12.000000000000
         C           -3.399867540711    -0.131615490213     0.511894556743    12.000000000000
         C           -2.158515840711     2.066439909787     1.024732256743    12.000000000000
         C           -2.391098540711    -1.934444490213    -0.743590443257    12.000000000000
         C           -3.484910540711    -1.403745490213    -0.058957443257    12.000000000000
         H            4.458647459289    -1.709070490213     0.091109556743     1.007825032230
         H            4.116555459289    -0.545535490213     1.368199556743     1.007825032230
         H            4.533375459289     0.675718509787    -0.741376443257     1.007825032230
         H            3.291314459289    -0.269188490213    -1.569427443257     1.007825032230
         H            2.028747459289    -2.156056490213    -0.191298443257     1.007825032230
         H            2.472297459289    -2.381440490213     1.505436556743     1.007825032230
         H            2.822426459289     1.668539509787     0.753112556743     1.007825032230
         H            2.312740459289     1.905811509787    -0.930094443257     1.007825032230
         H            0.352505459289    -1.040586490213     1.241002556743     1.007825032230
         H            1.628966459289    -0.124767490213     2.058593556743     1.007825032230
         H           -0.357624540711    -1.586289490213    -1.384089443257     1.007825032230
         H           -4.258816540711     0.276646509787     1.042032556743     1.007825032230
         H           -1.979778540711     2.765290509787     0.226126556743     1.007825032230
         H           -3.091308540711     2.266388509787     1.524167556743     1.007825032230
         H           -1.338924540711     2.097415509787     1.724656556743     1.007825032230
         H           -2.452159540711    -2.920413490213    -1.198124443257     1.007825032230
         H           -4.404373540711    -1.977508490213     0.031221556743     1.007825032230

  Basis Set: AUG-CC-PVTZ
    Blend: AUG-CC-PVTZ
  Basis Set: (AUG-CC-PVTZ AUX)
    Blend: AUG-CC-PVTZ-JKFIT
	 Reference Energy          =    -631.7291718341225533 [Eh]
	 Singles Energy            =      -0.0000000000000000 [Eh]
	 Same-Spin Energy          =      -0.6886430919925239 [Eh]
	 Opposite-Spin Energy      =      -2.2120022796613754 [Eh]
	 Correlation Energy        =      -2.9006453716538996 [Eh]
	 Total Energy              =    -634.6298172057764759 [Eh]

	 ================> DF-SCS-MP2 Energies <==================
	-----------------------------------------------------------
	 SCS Same-Spin Scale       =       0.3333333333333333 [-]
	 SCS Opposite-Spin Scale   =       1.2000000000000000 [-]
	 SCS Same-Spin Energy      =      -0.2295476973308413 [Eh]
	 SCS Opposite-Spin Energy  =      -2.6544027355936506 [Eh]
	 SCS Correlation Energy    =      -2.8839504329244918 [Eh]
	 SCS Total Energy          =    -634.6131222670470606 [Eh]
	-----------------------------------------------------------

  Dipole Moment: [D]
     X:     1.3997      Y:    -2.5361      Z:     2.3038     Total:     3.7012

*** Psi4 exiting successfully. Buy a developer a beer!
