                               Psi4 1.4a3.dev225

  ==> Input File <==

--------------------------------------------------------------------------
#psi4
#
memory 32 gb

molecule  {
0 1
  O        0.0109280     1.9504830    -1.2088660
  N        1.2104930     0.4628600     0.0596820
  C        3.6816010    -0.9509880     0.4072830
  C        3.5342200     0.1692850    -0.6230390
  C        2.3335540    -1.6180450     0.6838790
  C        2.4116674     1.2332382    -0.2487866
  C        1.2914730    -0.5760260     1.0805660
  C        0.0527250     0.9288280    -0.5097470
  C       -1.1808260     0.1020470    -0.2945890
  C       -2.2823960     0.6556420     0.3835130
  C       -1.2622800    -1.1716740    -0.8705440
  C       -3.4454200    -0.1153760     0.4879690
  C       -2.2065840     2.0368470     0.9809810
  C       -2.4366510    -1.9182050    -0.7675160
  C       -3.5304630    -1.3875060    -0.0828830
  H        4.4130950    -1.6928310     0.0671840
  H        4.0710030    -0.5292960     1.3442740
  H        4.4878230     0.6919580    -0.7653020
  H        3.2457620    -0.2529490    -1.5933530
  H        1.9831950    -2.1398170    -0.2152240
  H        2.4267450    -2.3652010     1.4815110
  H        2.7768740     1.6847790     0.7291870
  H        2.2671880     1.9220510    -0.9540200
  H        0.3069530    -1.0243470     1.2170770
  H        1.5834140    -0.1085280     2.0346680
  H       -0.4031770    -1.5700500    -1.4080150
  H       -4.3043690     0.2928860     1.0181070
  H       -2.0253310     2.7815300     0.2022010
  H       -3.1368610     2.2826280     1.5002420
  H       -1.3844770     2.1136550     1.7007310
  H       -2.4977120    -2.9041740    -1.2220500
  H       -4.4499260    -1.9612690     0.0072960
units angstrom
no_reorient  #important for SAPT in psi4, default
symmetry c1  #important for SAPT in psi4, default
}

set PROPERTIES_ORIGIN ["COM"]
properties('MP2/aug-cc-pvtz', properties = ['dipole'])
--------------------------------------------------------------------------

    Molecular point group: c1
  Charge       = 0
  Multiplicity = 1
  Basis Set: AUG-CC-PVTZ
    Blend: AUG-CC-PVTZ
  Basis Set: (AUG-CC-PVTZ AUX)
    Blend: AUG-CC-PVTZ-JKFIT

    Orbital Energies [Eh]
    ---------------------

    Doubly Occupied:

       1A    -20.510817     2A    -15.585189     3A    -11.348146
       4A    -11.269798     5A    -11.255093     6A    -11.251571
       7A    -11.246044     8A    -11.244505     9A    -11.242470
      10A    -11.239063    11A    -11.236873    12A    -11.231157
      13A    -11.229682    14A    -11.227825    15A    -11.220258
      16A     -1.368107    17A     -1.248836    18A     -1.161214
      19A     -1.080579    20A     -1.050809    21A     -1.037105
      22A     -1.020741    23A     -0.942969    24A     -0.918142
      25A     -0.870193    26A     -0.845952    27A     -0.814715
      28A     -0.788312    29A     -0.745482    30A     -0.713518
      31A     -0.668859    32A     -0.654294    33A     -0.648432
      34A     -0.629400    35A     -0.619055    36A     -0.614185
      37A     -0.597147    38A     -0.587897    39A     -0.577906
      40A     -0.571354    41A     -0.568192    42A     -0.545888
      43A     -0.539973    44A     -0.524437    45A     -0.507286
      46A     -0.498531    47A     -0.490993    48A     -0.489688
      49A     -0.475063    50A     -0.471716    51A     -0.465164
      52A     -0.417460    53A     -0.362077    54A     -0.339935
      55A     -0.329815

  @DF-RHF Final Energy:  -631.71860955278021

   => Energetics <=

    Nuclear Repulsion Energy =            999.4968403487134765
    One-Electron Energy =               -2842.1510771240064059
    Two-Electron Energy =                1210.9356272225127213
    Total Energy =                       -631.7186095527802081
  Basis Set: (AUG-CC-PVTZ AUX)
    Blend: AUG-CC-PVTZ-RI
    Molecular point group: c1

    Geometry (in Angstrom), charge = 0, multiplicity = 1:

       Center              X                  Y                   Z               Mass
    ------------   -----------------  -----------------  -----------------  -----------------
         O            0.059732447188     1.933078677321    -1.180361390650    15.994914619570
         N            1.259297447188     0.445455677321     0.088186609350    14.003074004430
         C            3.730405447188    -0.968392322679     0.435787609350    12.000000000000
         C            3.583024447188     0.151880677321    -0.594534390650    12.000000000000
         C            2.382358447188    -1.635449322679     0.712383609350    12.000000000000
         C            2.460471847188     1.215833877321    -0.220281990650    12.000000000000
         C            1.340277447188    -0.593430322679     1.109070609350    12.000000000000
         C            0.101529447188     0.911423677321    -0.481242390650    12.000000000000
         C           -1.132021552812     0.084642677321    -0.266084390650    12.000000000000
         C           -2.233591552812     0.638237677321     0.412017609350    12.000000000000
         C           -1.213475552812    -1.189078322679    -0.842039390650    12.000000000000
         C           -3.396615552812    -0.132780322679     0.516473609350    12.000000000000
         C           -2.157779552812     2.019442677321     1.009485609350    12.000000000000
         C           -2.387846552812    -1.935609322679    -0.739011390650    12.000000000000
         C           -3.481658552812    -1.404910322679    -0.054378390650    12.000000000000
         H            4.461899447188    -1.710235322679     0.095688609350     1.007825032230
         H            4.119807447188    -0.546700322679     1.372778609350     1.007825032230
         H            4.536627447188     0.674553677321    -0.736797390650     1.007825032230
         H            3.294566447188    -0.270353322679    -1.564848390650     1.007825032230
         H            2.031999447188    -2.157221322679    -0.186719390650     1.007825032230
         H            2.475549447188    -2.382605322679     1.510015609350     1.007825032230
         H            2.825678447188     1.667374677321     0.757691609350     1.007825032230
         H            2.315992447188     1.904646677321    -0.925515390650     1.007825032230
         H            0.355757447188    -1.041751322679     1.245581609350     1.007825032230
         H            1.632218447188    -0.125932322679     2.063172609350     1.007825032230
         H           -0.354372552812    -1.587454322679    -1.379510390650     1.007825032230
         H           -4.255564552812     0.275481677321     1.046611609350     1.007825032230
         H           -1.976526552812     2.764125677321     0.230705609350     1.007825032230
         H           -3.088056552812     2.265223677321     1.528746609350     1.007825032230
         H           -1.335672552812     2.096250677321     1.729235609350     1.007825032230
         H           -2.448907552812    -2.921578322679    -1.193545390650     1.007825032230
         H           -4.401121552812    -1.978673322679     0.035800609350     1.007825032230

  Basis Set: AUG-CC-PVTZ
    Blend: AUG-CC-PVTZ
  Basis Set: (AUG-CC-PVTZ AUX)
    Blend: AUG-CC-PVTZ-JKFIT
	 Reference Energy          =    -631.7186095527802081 [Eh]
	 Singles Energy            =      -0.0000000000000000 [Eh]
	 Same-Spin Energy          =      -0.6886727428499367 [Eh]
	 Opposite-Spin Energy      =      -2.2122482101095664 [Eh]
	 Correlation Energy        =      -2.9009209529595030 [Eh]
	 Total Energy              =    -634.6195305057397036 [Eh]

	 ================> DF-SCS-MP2 Energies <==================
	-----------------------------------------------------------
	 SCS Same-Spin Scale       =       0.3333333333333333 [-]
	 SCS Opposite-Spin Scale   =       1.2000000000000000 [-]
	 SCS Same-Spin Energy      =      -0.2295575809499789 [Eh]
	 SCS Opposite-Spin Energy  =      -2.6546978521314797 [Eh]
	 SCS Correlation Energy    =      -2.8842554330814587 [Eh]
	 SCS Total Energy          =    -634.6028649858616291 [Eh]
	-----------------------------------------------------------

  Dipole Moment: [D]
     X:     1.4015      Y:    -2.5467      Z:     2.3092     Total:     3.7124

*** Psi4 exiting successfully. Buy a developer a beer!
