                               Psi4 1.4a3.dev225

  ==> Input File <==

--------------------------------------------------------------------------
#psi4
#
memory 32 gb

molecule  {
0 1
  O        0.0109280     1.9504830    -1.2088660
  N        1.2104930     0.4628600     0.0596820
  C        3.6816010    -0.9509880     0.4072830
  C        3.5342200     0.1692850    -0.6230390
  C        2.3335540    -1.6180450     0.6838790
  C        2.4642000     1.1676880    -0.1911000
  C        1.2914730    -0.5760260     1.0805660
  C        0.0527250     0.9288280    -0.5097470
  C       -1.1808260     0.1020470    -0.2945890
  C       -2.2823960     0.6556420     0.3835130
  C       -1.2622800    -1.1716740    -0.8705440
  C       -3.4454200    -0.1153760     0.4879690
  C       -2.2065840     2.0368470     0.9809810
  C       -2.4366510    -1.9182050    -0.7675160
  C       -3.5304630    -1.3875060    -0.0828830
  H        4.4130950    -1.6928310     0.0671840
  H        4.0710030    -0.5292960     1.3442740
  H        4.4878230     0.6919580    -0.7653020
  H        3.2457620    -0.2529490    -1.5933530
  H        1.9831950    -2.1398170    -0.2152240
  H        2.4267450    -2.3652010     1.4815110
  H        2.7768740     1.6847790     0.7291870
  H        2.2671880     1.9220510    -0.9540200
  H        0.3069530    -1.0243470     1.2170770
  H        1.5834140    -0.1085280     2.0346680
  H       -0.4031770    -1.5700500    -1.4080150
  H       -4.1465921     0.2178940     0.9207281
  H       -2.0253310     2.7815300     0.2022010
  H       -3.1368610     2.2826280     1.5002420
  H       -1.3844770     2.1136550     1.7007310
  H       -2.4977120    -2.9041740    -1.2220500
  H       -4.4499260    -1.9612690     0.0072960
units angstrom
no_reorient  #important for SAPT in psi4, default
symmetry c1  #important for SAPT in psi4, default
}

set PROPERTIES_ORIGIN ["COM"]
properties('MP2/aug-cc-pvtz', properties = ['dipole'])
--------------------------------------------------------------------------

    Molecular point group: c1
  Charge       = 0
  Multiplicity = 1
  Basis Set: AUG-CC-PVTZ
    Blend: AUG-CC-PVTZ
  Basis Set: (AUG-CC-PVTZ AUX)
    Blend: AUG-CC-PVTZ-JKFIT

    Orbital Energies [Eh]
    ---------------------

    Doubly Occupied:

       1A    -20.510387     2A    -15.583529     3A    -11.348869
       4A    -11.266819     5A    -11.254384     6A    -11.250479
       7A    -11.245749     8A    -11.243903     9A    -11.241317
      10A    -11.238009    11A    -11.230429    12A    -11.228141
      13A    -11.225482    14A    -11.220653    15A    -11.212916
      16A     -1.366596    17A     -1.249255    18A     -1.162463
      19A     -1.083572    20A     -1.050811    21A     -1.041331
      22A     -1.026021    23A     -0.946280    24A     -0.918873
      25A     -0.867843    26A     -0.851256    27A     -0.823297
      28A     -0.790551    29A     -0.748326    30A     -0.719979
      31A     -0.666137    32A     -0.652493    33A     -0.649301
      34A     -0.637832    35A     -0.625888    36A     -0.615877
      37A     -0.600489    38A     -0.587991    39A     -0.577389
      40A     -0.571840    41A     -0.560661    42A     -0.549292
      43A     -0.543671    44A     -0.524543    45A     -0.508211
      46A     -0.501633    47A     -0.494346    48A     -0.489440
      49A     -0.478467    50A     -0.469410    51A     -0.461326
      52A     -0.416542    53A     -0.365934    54A     -0.339484
      55A     -0.329081

  @DF-RHF Final Energy:  -631.69654570716966

   => Energetics <=

    Nuclear Repulsion Energy =           1001.2188524127664095
    One-Electron Energy =               -2845.5011993923444606
    Two-Electron Energy =                1212.5858012724083892
    Total Energy =                       -631.6965457071696619
  Basis Set: (AUG-CC-PVTZ AUX)
    Blend: AUG-CC-PVTZ-RI
    Molecular point group: c1

    Geometry (in Angstrom), charge = 0, multiplicity = 1:

       Center              X                  Y                   Z               Mass
    ------------   -----------------  -----------------  -----------------  -----------------
         O            0.055846271989     1.937323136093    -1.183286095719    15.994914619570
         N            1.255411271989     0.449700136093     0.085261904281    14.003074004430
         C            3.726519271989    -0.964147863907     0.432862904281    12.000000000000
         C            3.579138271989     0.156125136093    -0.597459095719    12.000000000000
         C            2.378472271989    -1.631204863907     0.709458904281    12.000000000000
         C            2.509118271989     1.154528136093    -0.165520095719    12.000000000000
         C            1.336391271989    -0.589185863907     1.106145904281    12.000000000000
         C            0.097643271989     0.915668136093    -0.484167095719    12.000000000000
         C           -1.135907728011     0.088887136093    -0.269009095719    12.000000000000
         C           -2.237477728011     0.642482136093     0.409092904281    12.000000000000
         C           -1.217361728011    -1.184833863907    -0.844964095719    12.000000000000
         C           -3.400501728011    -0.128535863907     0.513548904281    12.000000000000
         C           -2.161665728011     2.023687136093     1.006560904281    12.000000000000
         C           -2.391732728011    -1.931364863907    -0.741936095719    12.000000000000
         C           -3.485544728011    -1.400665863907    -0.057303095719    12.000000000000
         H            4.458013271989    -1.705990863907     0.092763904281     1.007825032230
         H            4.115921271989    -0.542455863907     1.369853904281     1.007825032230
         H            4.532741271989     0.678798136093    -0.739722095719     1.007825032230
         H            3.290680271989    -0.266108863907    -1.567773095719     1.007825032230
         H            2.028113271989    -2.152976863907    -0.189644095719     1.007825032230
         H            2.471663271989    -2.378360863907     1.507090904281     1.007825032230
         H            2.821792271989     1.671619136093     0.754766904281     1.007825032230
         H            2.312106271989     1.908891136093    -0.928440095719     1.007825032230
         H            0.351871271989    -1.037506863907     1.242656904281     1.007825032230
         H            1.628332271989    -0.121687863907     2.060247904281     1.007825032230
         H           -0.358258728011    -1.583209863907    -1.382435095719     1.007825032230
         H           -4.101673828011     0.204734136093     0.946308004281     1.007825032230
         H           -1.980412728011     2.768370136093     0.227780904281     1.007825032230
         H           -3.091942728011     2.269468136093     1.525821904281     1.007825032230
         H           -1.339558728011     2.100495136093     1.726310904281     1.007825032230
         H           -2.452793728011    -2.917333863907    -1.196470095719     1.007825032230
         H           -4.405007728011    -1.974428863907     0.032875904281     1.007825032230

  Basis Set: AUG-CC-PVTZ
    Blend: AUG-CC-PVTZ
  Basis Set: (AUG-CC-PVTZ AUX)
    Blend: AUG-CC-PVTZ-JKFIT
	 Reference Energy          =    -631.6965457071696619 [Eh]
	 Singles Energy            =      -0.0000000000000000 [Eh]
	 Same-Spin Energy          =      -0.6887355223450239 [Eh]
	 Opposite-Spin Energy      =      -2.2115746805723635 [Eh]
	 Correlation Energy        =      -2.9003102029173875 [Eh]
	 Total Energy              =    -634.5968559100870152 [Eh]

	 ================> DF-SCS-MP2 Energies <==================
	-----------------------------------------------------------
	 SCS Same-Spin Scale       =       0.3333333333333333 [-]
	 SCS Opposite-Spin Scale   =       1.2000000000000000 [-]
	 SCS Same-Spin Energy      =      -0.2295785074483413 [Eh]
	 SCS Opposite-Spin Energy  =      -2.6538896166868362 [Eh]
	 SCS Correlation Energy    =      -2.8834681241351774 [Eh]
	 SCS Total Energy          =    -634.5800138313048819 [Eh]
	-----------------------------------------------------------

  Dipole Moment: [D]
     X:     1.3550      Y:    -2.4994      Z:     2.3294     Total:     3.6755

*** Psi4 exiting successfully. Buy a developer a beer!
