                               Psi4 1.4a3.dev225

  ==> Input File <==

--------------------------------------------------------------------------
#psi4
#
memory 32 gb

molecule  {
0 1
  O        0.0109280     1.9504830    -1.2088660
  N        1.2104930     0.4628600     0.0596820
  C        3.6816010    -0.9509880     0.4072830
  C        3.5342200     0.1692850    -0.6230390
  C        2.3335540    -1.6180450     0.6838790
  C        2.4642000     1.1676880    -0.1911000
  C        1.2914730    -0.5760260     1.0805660
  C        0.0527250     0.9288280    -0.5097470
  C       -1.1808260     0.1020470    -0.2945890
  C       -2.2823960     0.6556420     0.3835130
  C       -1.2622800    -1.1716740    -0.8705440
  C       -3.4454200    -0.1153760     0.4879690
  C       -2.2065840     2.0368470     0.9809810
  C       -2.4366510    -1.9182050    -0.7675160
  C       -3.5304630    -1.3875060    -0.0828830
  H        4.4130950    -1.6928310     0.0671840
  H        4.0710030    -0.5292960     1.3442740
  H        4.4878230     0.6919580    -0.7653020
  H        3.2457620    -0.2529490    -1.5933530
  H        1.9831950    -2.1398170    -0.2152240
  H        2.4267450    -2.3652010     1.4815110
  H        2.7768740     1.6847790     0.7291870
  H        2.2671880     1.9220510    -0.9540200
  H        0.1263684    -1.1065798     1.2421164
  H        1.5834140    -0.1085280     2.0346680
  H       -0.4031770    -1.5700500    -1.4080150
  H       -4.3043690     0.2928860     1.0181070
  H       -2.0253310     2.7815300     0.2022010
  H       -3.1368610     2.2826280     1.5002420
  H       -1.3844770     2.1136550     1.7007310
  H       -2.4977120    -2.9041740    -1.2220500
  H       -4.4499260    -1.9612690     0.0072960
units angstrom
no_reorient  #important for SAPT in psi4, default
symmetry c1  #important for SAPT in psi4, default
}

set PROPERTIES_ORIGIN ["COM"]
properties('MP2/aug-cc-pvtz', properties = ['dipole'])
--------------------------------------------------------------------------

    Molecular point group: c1
  Charge       = 0
  Multiplicity = 1
  Basis Set: AUG-CC-PVTZ
    Blend: AUG-CC-PVTZ
  Basis Set: (AUG-CC-PVTZ AUX)
    Blend: AUG-CC-PVTZ-JKFIT

    Orbital Energies [Eh]
    ---------------------

    Doubly Occupied:

       1A    -20.511421     2A    -15.585690     3A    -11.349986
       4A    -11.286657     5A    -11.256340     6A    -11.251241
       7A    -11.245889     8A    -11.244706     9A    -11.242222
      10A    -11.238808    11A    -11.236716    12A    -11.231841
      13A    -11.229486    14A    -11.226663    15A    -11.220024
      16A     -1.367584    17A     -1.249851    18A     -1.161183
      19A     -1.084568    20A     -1.050430    21A     -1.035341
      22A     -1.020817    23A     -0.942714    24A     -0.917257
      25A     -0.861804    26A     -0.844210    27A     -0.815152
      28A     -0.791408    29A     -0.739509    30A     -0.708024
      31A     -0.664707    32A     -0.652374    33A     -0.648707
      34A     -0.625396    35A     -0.616109    36A     -0.614811
      37A     -0.595510    38A     -0.587146    39A     -0.575357
      40A     -0.571768    41A     -0.556930    42A     -0.542196
      43A     -0.539041    44A     -0.525366    45A     -0.508184
      46A     -0.502671    47A     -0.491084    48A     -0.488129
      49A     -0.479256    50A     -0.467174    51A     -0.453508
      52A     -0.417152    53A     -0.367387    54A     -0.337811
      55A     -0.329350

  @DF-RHF Final Energy:  -631.70847231355515

   => Energetics <=

    Nuclear Repulsion Energy =            999.2748972172131516
    One-Electron Energy =               -2841.7574116099513049
    Two-Electron Energy =                1210.7740420791831184
    Total Energy =                       -631.7084723135551485
  Basis Set: (AUG-CC-PVTZ AUX)
    Blend: AUG-CC-PVTZ-RI
    Molecular point group: c1

    Geometry (in Angstrom), charge = 0, multiplicity = 1:

       Center              X                  Y                   Z               Mass
    ------------   -----------------  -----------------  -----------------  -----------------
         O            0.057525036756     1.937359060983    -1.183893468393    15.994914619570
         N            1.257090036756     0.449736060983     0.084654531607    14.003074004430
         C            3.728198036756    -0.964111939017     0.432255531607    12.000000000000
         C            3.580817036756     0.156161060983    -0.598066468393    12.000000000000
         C            2.380151036756    -1.631168939017     0.708851531607    12.000000000000
         C            2.510797036756     1.154564060983    -0.166127468393    12.000000000000
         C            1.338070036756    -0.589149939017     1.105538531607    12.000000000000
         C            0.099322036756     0.915704060983    -0.484774468393    12.000000000000
         C           -1.134228963244     0.088923060983    -0.269616468393    12.000000000000
         C           -2.235798963244     0.642518060983     0.408485531607    12.000000000000
         C           -1.215682963244    -1.184797939017    -0.845571468393    12.000000000000
         C           -3.398822963244    -0.128499939017     0.512941531607    12.000000000000
         C           -2.159986963244     2.023723060983     1.005953531607    12.000000000000
         C           -2.390053963244    -1.931328939017    -0.742543468393    12.000000000000
         C           -3.483865963244    -1.400629939017    -0.057910468393    12.000000000000
         H            4.459692036756    -1.705954939017     0.092156531607     1.007825032230
         H            4.117600036756    -0.542419939017     1.369246531607     1.007825032230
         H            4.534420036756     0.678834060983    -0.740329468393     1.007825032230
         H            3.292359036756    -0.266072939017    -1.568380468393     1.007825032230
         H            2.029792036756    -2.152940939017    -0.190251468393     1.007825032230
         H            2.473342036756    -2.378324939017     1.506483531607     1.007825032230
         H            2.823471036756     1.671655060983     0.754159531607     1.007825032230
         H            2.313785036756     1.908927060983    -0.929047468393     1.007825032230
         H            0.172965436756    -1.119703739017     1.267088931607     1.007825032230
         H            1.630011036756    -0.121651939017     2.059640531607     1.007825032230
         H           -0.356579963244    -1.583173939017    -1.383042468393     1.007825032230
         H           -4.257771963244     0.279762060983     1.043079531607     1.007825032230
         H           -1.978733963244     2.768406060983     0.227173531607     1.007825032230
         H           -3.090263963244     2.269504060983     1.525214531607     1.007825032230
         H           -1.337879963244     2.100531060983     1.725703531607     1.007825032230
         H           -2.451114963244    -2.917297939017    -1.197077468393     1.007825032230
         H           -4.403328963244    -1.974392939017     0.032268531607     1.007825032230

  Basis Set: AUG-CC-PVTZ
    Blend: AUG-CC-PVTZ
  Basis Set: (AUG-CC-PVTZ AUX)
    Blend: AUG-CC-PVTZ-JKFIT
	 Reference Energy          =    -631.7084723135551485 [Eh]
	 Singles Energy            =      -0.0000000000000000 [Eh]
	 Same-Spin Energy          =      -0.6900542511565748 [Eh]
	 Opposite-Spin Energy      =      -2.2150293469633131 [Eh]
	 Correlation Energy        =      -2.9050835981198881 [Eh]
	 Total Energy              =    -634.6135559116750073 [Eh]

	 ================> DF-SCS-MP2 Energies <==================
	-----------------------------------------------------------
	 SCS Same-Spin Scale       =       0.3333333333333333 [-]
	 SCS Opposite-Spin Scale   =       1.2000000000000000 [-]
	 SCS Same-Spin Energy      =      -0.2300180837188583 [Eh]
	 SCS Opposite-Spin Energy  =      -2.6580352163559757 [Eh]
	 SCS Correlation Energy    =      -2.8880533000748341 [Eh]
	 SCS Total Energy          =    -634.5965256136299786 [Eh]
	-----------------------------------------------------------

  Dipole Moment: [D]
     X:     1.4662      Y:    -2.4778      Z:     2.2400     Total:     3.6479

*** Psi4 exiting successfully. Buy a developer a beer!
