                               Psi4 1.4a3.dev225

  ==> Input File <==

--------------------------------------------------------------------------
#psi4
#
memory 32 gb

molecule  {
0 1
  O        0.0109280     1.9504830    -1.2088660
  N        1.2104930     0.4628600     0.0596820
  C        3.6816010    -0.9509880     0.4072830
  C        3.5342200     0.1692850    -0.6230390
  C        2.3335540    -1.6180450     0.6838790
  C        2.4642000     1.1676880    -0.1911000
  C        1.2914730    -0.5760260     1.0805660
  C        0.0527250     0.9288280    -0.5097470
  C       -1.1808260     0.1020470    -0.2945890
  C       -2.2823960     0.6556420     0.3835130
  C       -1.2622800    -1.1716740    -0.8705440
  C       -3.4454200    -0.1153760     0.4879690
  C       -2.2065840     2.0368470     0.9809810
  C       -2.4366510    -1.9182050    -0.7675160
  C       -3.5304630    -1.3875060    -0.0828830
  H        4.4130950    -1.6928310     0.0671840
  H        4.0710030    -0.5292960     1.3442740
  H        4.4878230     0.6919580    -0.7653020
  H        3.2457620    -0.2529490    -1.5933530
  H        1.9831997    -2.2045825    -0.1743805
  H        2.4267450    -2.3652010     1.4815110
  H        2.7768740     1.6847790     0.7291870
  H        2.2671880     1.9220510    -0.9540200
  H        0.3069530    -1.0243470     1.2170770
  H        1.5834140    -0.1085280     2.0346680
  H       -0.4031770    -1.5700500    -1.4080150
  H       -4.3043690     0.2928860     1.0181070
  H       -2.0253310     2.7815300     0.2022010
  H       -3.1368610     2.2826280     1.5002420
  H       -1.3844770     2.1136550     1.7007310
  H       -2.4977120    -2.9041740    -1.2220500
  H       -4.4499260    -1.9612690     0.0072960
units angstrom
no_reorient  #important for SAPT in psi4, default
symmetry c1  #important for SAPT in psi4, default
}

set PROPERTIES_ORIGIN ["COM"]
properties('MP2/aug-cc-pvtz', properties = ['dipole'])
--------------------------------------------------------------------------

    Molecular point group: c1
  Charge       = 0
  Multiplicity = 1
  Basis Set: AUG-CC-PVTZ
    Blend: AUG-CC-PVTZ
  Basis Set: (AUG-CC-PVTZ AUX)
    Blend: AUG-CC-PVTZ-JKFIT

    Orbital Energies [Eh]
    ---------------------

    Doubly Occupied:

       1A    -20.510688     2A    -15.583790     3A    -11.349368
       4A    -11.267498     5A    -11.254588     6A    -11.251810
       7A    -11.246268     8A    -11.244951     9A    -11.242614
      10A    -11.239098    11A    -11.236939    12A    -11.230445
      13A    -11.228750    14A    -11.225577    15A    -11.220314
      16A     -1.366905    17A     -1.249458    18A     -1.161382
      19A     -1.083285    20A     -1.050758    21A     -1.037189
      22A     -1.023141    23A     -0.943140    24A     -0.918806
      25A     -0.867861    26A     -0.844453    27A     -0.815432
      28A     -0.791315    29A     -0.742207    30A     -0.712129
      31A     -0.666784    32A     -0.652738    33A     -0.648881
      34A     -0.627656    35A     -0.619870    36A     -0.615820
      37A     -0.595493    38A     -0.587818    39A     -0.575674
      40A     -0.571512    41A     -0.560499    42A     -0.547002
      43A     -0.541518    44A     -0.524873    45A     -0.508170
      46A     -0.501844    47A     -0.491288    48A     -0.489520
      49A     -0.478576    50A     -0.469877    51A     -0.461092
      52A     -0.416852    53A     -0.366185    54A     -0.339947
      55A     -0.329967

  @DF-RHF Final Energy:  -631.73021092058514

   => Energetics <=

    Nuclear Repulsion Energy =            999.8068630902699852
    One-Electron Energy =               -2842.8149086312696454
    Two-Electron Energy =                1211.2778346204147510
    Total Energy =                       -631.7302109205850229
  Basis Set: (AUG-CC-PVTZ AUX)
    Blend: AUG-CC-PVTZ-RI
    Molecular point group: c1

    Geometry (in Angstrom), charge = 0, multiplicity = 1:

       Center              X                  Y                   Z               Mass
    ------------   -----------------  -----------------  -----------------  -----------------
         O            0.056629051385     1.937272397791    -1.183971879696    15.994914619570
         N            1.256194051385     0.449649397791     0.084576120304    14.003074004430
         C            3.727302051385    -0.964198602209     0.432177120304    12.000000000000
         C            3.579921051385     0.156074397791    -0.598144879696    12.000000000000
         C            2.379255051385    -1.631255602209     0.708773120304    12.000000000000
         C            2.509901051385     1.154477397791    -0.166205879696    12.000000000000
         C            1.337174051385    -0.589236602209     1.105460120304    12.000000000000
         C            0.098426051385     0.915617397791    -0.484852879696    12.000000000000
         C           -1.135124948615     0.088836397791    -0.269694879696    12.000000000000
         C           -2.236694948615     0.642431397791     0.408407120304    12.000000000000
         C           -1.216578948615    -1.184884602209    -0.845649879696    12.000000000000
         C           -3.399718948615    -0.128586602209     0.512863120304    12.000000000000
         C           -2.160882948615     2.023636397791     1.005875120304    12.000000000000
         C           -2.390949948615    -1.931415602209    -0.742621879696    12.000000000000
         C           -3.484761948615    -1.400716602209    -0.057988879696    12.000000000000
         H            4.458796051385    -1.706041602209     0.092078120304     1.007825032230
         H            4.116704051385    -0.542506602209     1.369168120304     1.007825032230
         H            4.533524051385     0.678747397791    -0.740407879696     1.007825032230
         H            3.291463051385    -0.266159602209    -1.568458879696     1.007825032230
         H            2.028900751385    -2.217793102209    -0.149486379696     1.007825032230
         H            2.472446051385    -2.378411602209     1.506405120304     1.007825032230
         H            2.822575051385     1.671568397791     0.754081120304     1.007825032230
         H            2.312889051385     1.908840397791    -0.929125879696     1.007825032230
         H            0.352654051385    -1.037557602209     1.241971120304     1.007825032230
         H            1.629115051385    -0.121738602209     2.059562120304     1.007825032230
         H           -0.357475948615    -1.583260602209    -1.383120879696     1.007825032230
         H           -4.258667948615     0.279675397791     1.043001120304     1.007825032230
         H           -1.979629948615     2.768319397791     0.227095120304     1.007825032230
         H           -3.091159948615     2.269417397791     1.525136120304     1.007825032230
         H           -1.338775948615     2.100444397791     1.725625120304     1.007825032230
         H           -2.452010948615    -2.917384602209    -1.197155879696     1.007825032230
         H           -4.404224948615    -1.974479602209     0.032190120304     1.007825032230

  Basis Set: AUG-CC-PVTZ
    Blend: AUG-CC-PVTZ
  Basis Set: (AUG-CC-PVTZ AUX)
    Blend: AUG-CC-PVTZ-JKFIT
	 Reference Energy          =    -631.7302109205851366 [Eh]
	 Singles Energy            =      -0.0000000000000000 [Eh]
	 Same-Spin Energy          =      -0.6889712052466238 [Eh]
	 Opposite-Spin Energy      =      -2.2121571282746388 [Eh]
	 Correlation Energy        =      -2.9011283335212625 [Eh]
	 Total Energy              =    -634.6313392541063649 [Eh]

	 ================> DF-SCS-MP2 Energies <==================
	-----------------------------------------------------------
	 SCS Same-Spin Scale       =       0.3333333333333333 [-]
	 SCS Opposite-Spin Scale   =       1.2000000000000000 [-]
	 SCS Same-Spin Energy      =      -0.2296570684155413 [Eh]
	 SCS Opposite-Spin Energy  =      -2.6545885539295666 [Eh]
	 SCS Correlation Energy    =      -2.8842456223451078 [Eh]
	 SCS Total Energy          =    -634.6144565429302702 [Eh]
	-----------------------------------------------------------

  Dipole Moment: [D]
     X:     1.4081      Y:    -2.5410      Z:     2.3066     Total:     3.7094

*** Psi4 exiting successfully. Buy a developer a beer!
