                               Psi4 1.4a3.dev225

  ==> Input File <==

--------------------------------------------------------------------------
#psi4
#
memory 32 gb

molecule  {
0 1
  O        0.0109280     1.9504830    -1.2088660
  N        1.2104930     0.4628600     0.0596820
  C        3.6816010    -0.9509880     0.4072830
  C        3.5342200     0.1692850    -0.6230390
  C        2.3335540    -1.6180450     0.6838790
  C        2.4642000     1.1676880    -0.1911000
  C        1.2914730    -0.5760260     1.0805660
  C        0.0527250     0.9288280    -0.5097470
  C       -1.1808260     0.1020470    -0.2945890
  C       -2.2823960     0.6556420     0.3835130
  C       -1.2622800    -1.1716740    -0.8705440
  C       -3.4454200    -0.1153760     0.4879690
  C       -2.2116153     1.9451821     0.9413295
  C       -2.4366510    -1.9182050    -0.7675160
  C       -3.5304630    -1.3875060    -0.0828830
  H        4.4130950    -1.6928310     0.0671840
  H        4.0710030    -0.5292960     1.3442740
  H        4.4878230     0.6919580    -0.7653020
  H        3.2457620    -0.2529490    -1.5933530
  H        1.9831950    -2.1398170    -0.2152240
  H        2.4267450    -2.3652010     1.4815110
  H        2.7768740     1.6847790     0.7291870
  H        2.2671880     1.9220510    -0.9540200
  H        0.3069530    -1.0243470     1.2170770
  H        1.5834140    -0.1085280     2.0346680
  H       -0.4031770    -1.5700500    -1.4080150
  H       -4.3043690     0.2928860     1.0181070
  H       -2.0253310     2.7815300     0.2022010
  H       -3.1368610     2.2826280     1.5002420
  H       -1.3844770     2.1136550     1.7007310
  H       -2.4977120    -2.9041740    -1.2220500
  H       -4.4499260    -1.9612690     0.0072960
units angstrom
no_reorient  #important for SAPT in psi4, default
symmetry c1  #important for SAPT in psi4, default
}

set PROPERTIES_ORIGIN ["COM"]
properties('MP2/aug-cc-pvtz', properties = ['dipole'])
--------------------------------------------------------------------------

    Molecular point group: c1
  Charge       = 0
  Multiplicity = 1
  Basis Set: AUG-CC-PVTZ
    Blend: AUG-CC-PVTZ
  Basis Set: (AUG-CC-PVTZ AUX)
    Blend: AUG-CC-PVTZ-JKFIT

    Orbital Energies [Eh]
    ---------------------

    Doubly Occupied:

       1A    -20.510707     2A    -15.583938     3A    -11.349633
       4A    -11.267085     5A    -11.254630     6A    -11.247272
       7A    -11.246562     8A    -11.245123     9A    -11.242837
      10A    -11.239368    11A    -11.237009    12A    -11.230654
      13A    -11.228332    14A    -11.225688    15A    -11.224054
      16A     -1.367034    17A     -1.249596    18A     -1.165969
      19A     -1.083651    20A     -1.062387    21A     -1.038087
      22A     -1.023552    23A     -0.943076    24A     -0.917448
      25A     -0.867475    26A     -0.845267    27A     -0.814205
      28A     -0.790540    29A     -0.742832    30A     -0.712699
      31A     -0.670824    32A     -0.654971    33A     -0.649476
      34A     -0.628866    35A     -0.622104    36A     -0.616074
      37A     -0.597388    38A     -0.588180    39A     -0.586115
      40A     -0.565999    41A     -0.560978    42A     -0.547154
      43A     -0.533614    44A     -0.523601    45A     -0.505244
      46A     -0.502592    47A     -0.491436    48A     -0.486075
      49A     -0.478069    50A     -0.469620    51A     -0.461386
      52A     -0.416587    53A     -0.366083    54A     -0.340308
      55A     -0.326793

  @DF-RHF Final Energy:  -631.71822102590249

   => Energetics <=

    Nuclear Repulsion Energy =           1001.9370346786192840
    One-Electron Energy =               -2847.0180156358937893
    Two-Electron Energy =                1213.3627599313720111
    Total Energy =                       -631.7182210259024941
  Basis Set: (AUG-CC-PVTZ AUX)
    Blend: AUG-CC-PVTZ-RI
    Molecular point group: c1

    Geometry (in Angstrom), charge = 0, multiplicity = 1:

       Center              X                  Y                   Z               Mass
    ------------   -----------------  -----------------  -----------------  -----------------
         O            0.056926299627     1.942366186704    -1.181426817320    15.994914619570
         N            1.256491299627     0.454743186704     0.087121182680    14.003074004430
         C            3.727599299627    -0.959104813296     0.434722182680    12.000000000000
         C            3.580218299627     0.161168186704    -0.595599817320    12.000000000000
         C            2.379552299627    -1.626161813296     0.711318182680    12.000000000000
         C            2.510198299627     1.159571186704    -0.163660817320    12.000000000000
         C            1.337471299627    -0.584142813296     1.108005182680    12.000000000000
         C            0.098723299627     0.920711186704    -0.482307817320    12.000000000000
         C           -1.134827700373     0.093930186704    -0.267149817320    12.000000000000
         C           -2.236397700373     0.647525186704     0.410952182680    12.000000000000
         C           -1.216281700373    -1.179790813296    -0.843104817320    12.000000000000
         C           -3.399421700373    -0.123492813296     0.515408182680    12.000000000000
         C           -2.165617000373     1.937065286704     0.968768682680    12.000000000000
         C           -2.390652700373    -1.926321813296    -0.740076817320    12.000000000000
         C           -3.484464700373    -1.395622813296    -0.055443817320    12.000000000000
         H            4.459093299627    -1.700947813296     0.094623182680     1.007825032230
         H            4.117001299627    -0.537412813296     1.371713182680     1.007825032230
         H            4.533821299627     0.683841186704    -0.737862817320     1.007825032230
         H            3.291760299627    -0.261065813296    -1.565913817320     1.007825032230
         H            2.029193299627    -2.147933813296    -0.187784817320     1.007825032230
         H            2.472743299627    -2.373317813296     1.508950182680     1.007825032230
         H            2.822872299627     1.676662186704     0.756626182680     1.007825032230
         H            2.313186299627     1.913934186704    -0.926580817320     1.007825032230
         H            0.352951299627    -1.032463813296     1.244516182680     1.007825032230
         H            1.629412299627    -0.116644813296     2.062107182680     1.007825032230
         H           -0.357178700373    -1.578166813296    -1.380575817320     1.007825032230
         H           -4.258370700373     0.284769186704     1.045546182680     1.007825032230
         H           -1.979332700373     2.773413186704     0.229640182680     1.007825032230
         H           -3.090862700373     2.274511186704     1.527681182680     1.007825032230
         H           -1.338478700373     2.105538186704     1.728170182680     1.007825032230
         H           -2.451713700373    -2.912290813296    -1.194610817320     1.007825032230
         H           -4.403927700373    -1.969385813296     0.034735182680     1.007825032230

  Basis Set: AUG-CC-PVTZ
    Blend: AUG-CC-PVTZ
  Basis Set: (AUG-CC-PVTZ AUX)
    Blend: AUG-CC-PVTZ-JKFIT
	 Reference Energy          =    -631.7182210259024941 [Eh]
	 Singles Energy            =      -0.0000000000000000 [Eh]
	 Same-Spin Energy          =      -0.6904303706322172 [Eh]
	 Opposite-Spin Energy      =      -2.2138697759870745 [Eh]
	 Correlation Energy        =      -2.9043001466192919 [Eh]
	 Total Energy              =    -634.6225211725218287 [Eh]

	 ================> DF-SCS-MP2 Energies <==================
	-----------------------------------------------------------
	 SCS Same-Spin Scale       =       0.3333333333333333 [-]
	 SCS Opposite-Spin Scale   =       1.2000000000000000 [-]
	 SCS Same-Spin Energy      =      -0.2301434568774057 [Eh]
	 SCS Opposite-Spin Energy  =      -2.6566437311844893 [Eh]
	 SCS Correlation Energy    =      -2.8867871880618949 [Eh]
	 SCS Total Energy          =    -634.6050082139644246 [Eh]
	-----------------------------------------------------------

  Dipole Moment: [D]
     X:     1.4184      Y:    -2.4890      Z:     2.3003     Total:     3.6740

*** Psi4 exiting successfully. Buy a developer a beer!
