                               Psi4 1.4a3.dev225

  ==> Input File <==

--------------------------------------------------------------------------
#psi4
#
memory 32 gb

molecule  {
0 1
  O        0.0109280     1.9504830    -1.2088660
  N        1.2104930     0.4628600     0.0596820
  C        3.6816010    -0.9509880     0.4072830
  C        3.5342200     0.1692850    -0.6230390
  C        2.3335540    -1.6180450     0.6838790
  C        2.4642000     1.1676880    -0.1911000
  C        1.2914730    -0.5760260     1.0805660
  C        0.0527250     0.9288280    -0.5097470
  C       -1.1808260     0.1020470    -0.2945890
  C       -2.2823960     0.6556420     0.3835130
  C       -1.2622800    -1.1716740    -0.8705440
  C       -3.4454200    -0.1153760     0.4879690
  C       -2.2065840     2.0368470     0.9809810
  C       -2.4366510    -1.9182050    -0.7675160
  C       -3.5304630    -1.3875060    -0.0828830
  H        4.4130950    -1.6928310     0.0671840
  H        4.0710030    -0.5292960     1.3442740
  H        4.4878230     0.6919580    -0.7653020
  H        3.2457620    -0.2529490    -1.5933530
  H        1.9831950    -2.1398170    -0.2152240
  H        2.4267450    -2.3652010     1.4815110
  H        2.7484734     1.6378110     0.6455962
  H        2.2671880     1.9220510    -0.9540200
  H        0.3069530    -1.0243470     1.2170770
  H        1.5834140    -0.1085280     2.0346680
  H       -0.4031770    -1.5700500    -1.4080150
  H       -4.3043690     0.2928860     1.0181070
  H       -2.0253310     2.7815300     0.2022010
  H       -3.1368610     2.2826280     1.5002420
  H       -1.3844770     2.1136550     1.7007310
  H       -2.4977120    -2.9041740    -1.2220500
  H       -4.4499260    -1.9612690     0.0072960
units angstrom
no_reorient  #important for SAPT in psi4, default
symmetry c1  #important for SAPT in psi4, default
}

set PROPERTIES_ORIGIN ["COM"]
properties('MP2/aug-cc-pvtz', properties = ['dipole'])
--------------------------------------------------------------------------

    Molecular point group: c1
  Charge       = 0
  Multiplicity = 1
  Basis Set: AUG-CC-PVTZ
    Blend: AUG-CC-PVTZ
  Basis Set: (AUG-CC-PVTZ AUX)
    Blend: AUG-CC-PVTZ-JKFIT

    Orbital Energies [Eh]
    ---------------------

    Doubly Occupied:

       1A    -20.510020     2A    -15.582612     3A    -11.348740
       4A    -11.267001     5A    -11.251558     6A    -11.246013
       7A    -11.244665     8A    -11.242389     9A    -11.241986
      10A    -11.238893    11A    -11.236744    12A    -11.230498
      13A    -11.228282    14A    -11.224658    15A    -11.220182
      16A     -1.366325    17A     -1.249546    18A     -1.161181
      19A     -1.083623    20A     -1.050619    21A     -1.039192
      22A     -1.023755    23A     -0.943627    24A     -0.921072
      25A     -0.868051    26A     -0.845963    27A     -0.814987
      28A     -0.792614    29A     -0.747197    30A     -0.711905
      31A     -0.666467    32A     -0.654596    33A     -0.650655
      34A     -0.629275    35A     -0.620348    36A     -0.616983
      37A     -0.597132    38A     -0.588291    39A     -0.575395
      40A     -0.571881    41A     -0.559647    42A     -0.546942
      43A     -0.541586    44A     -0.525865    45A     -0.509653
      46A     -0.505173    47A     -0.491717    48A     -0.489228
      49A     -0.478588    50A     -0.469674    51A     -0.461478
      52A     -0.416289    53A     -0.366297    54A     -0.339717
      55A     -0.329730

  @DF-RHF Final Energy:  -631.72522964459290

   => Energetics <=

    Nuclear Repulsion Energy =           1000.5482888907060897
    One-Electron Energy =               -2844.2740211503360115
    Two-Electron Energy =                1212.0005026150370213
    Total Energy =                       -631.7252296445929005
  Basis Set: (AUG-CC-PVTZ AUX)
    Blend: AUG-CC-PVTZ-RI
    Molecular point group: c1

    Geometry (in Angstrom), charge = 0, multiplicity = 1:

       Center              X                  Y                   Z               Mass
    ------------   -----------------  -----------------  -----------------  -----------------
         O            0.056769982953     1.937184096327    -1.183354504733    15.994914619570
         N            1.256334982953     0.449561096327     0.085193495267    14.003074004430
         C            3.727442982953    -0.964286903673     0.432794495267    12.000000000000
         C            3.580061982953     0.155986096327    -0.597527504733    12.000000000000
         C            2.379395982953    -1.631343903673     0.709390495267    12.000000000000
         C            2.510041982953     1.154389096327    -0.165588504733    12.000000000000
         C            1.337314982953    -0.589324903673     1.106077495267    12.000000000000
         C            0.098566982953     0.915529096327    -0.484235504733    12.000000000000
         C           -1.134984017047     0.088748096327    -0.269077504733    12.000000000000
         C           -2.236554017047     0.642343096327     0.409024495267    12.000000000000
         C           -1.216438017047    -1.184972903673    -0.845032504733    12.000000000000
         C           -3.399578017047    -0.128674903673     0.513480495267    12.000000000000
         C           -2.160742017047     2.023548096327     1.006492495267    12.000000000000
         C           -2.390809017047    -1.931503903673    -0.742004504733    12.000000000000
         C           -3.484621017047    -1.400804903673    -0.057371504733    12.000000000000
         H            4.458936982953    -1.706129903673     0.092695495267     1.007825032230
         H            4.116844982953    -0.542594903673     1.369785495267     1.007825032230
         H            4.533664982953     0.678659096327    -0.739790504733     1.007825032230
         H            3.291603982953    -0.266247903673    -1.567841504733     1.007825032230
         H            2.029036982953    -2.153115903673    -0.189712504733     1.007825032230
         H            2.472586982953    -2.378499903673     1.507022495267     1.007825032230
         H            2.794315382953     1.624512096327     0.671107695267     1.007825032230
         H            2.313029982953     1.908752096327    -0.928508504733     1.007825032230
         H            0.352794982953    -1.037645903673     1.242588495267     1.007825032230
         H            1.629255982953    -0.121826903673     2.060179495267     1.007825032230
         H           -0.357335017047    -1.583348903673    -1.382503504733     1.007825032230
         H           -4.258527017047     0.279587096327     1.043618495267     1.007825032230
         H           -1.979489017047     2.768231096327     0.227712495267     1.007825032230
         H           -3.091019017047     2.269329096327     1.525753495267     1.007825032230
         H           -1.338635017047     2.100356096327     1.726242495267     1.007825032230
         H           -2.451870017047    -2.917472903673    -1.196538504733     1.007825032230
         H           -4.404084017047    -1.974567903673     0.032807495267     1.007825032230

  Basis Set: AUG-CC-PVTZ
    Blend: AUG-CC-PVTZ
  Basis Set: (AUG-CC-PVTZ AUX)
    Blend: AUG-CC-PVTZ-JKFIT
	 Reference Energy          =    -631.7252296445929005 [Eh]
	 Singles Energy            =      -0.0000000000000000 [Eh]
	 Same-Spin Energy          =      -0.6889268909534130 [Eh]
	 Opposite-Spin Energy      =      -2.2116991212158825 [Eh]
	 Correlation Energy        =      -2.9006260121692957 [Eh]
	 Total Energy              =    -634.6258556567621554 [Eh]

	 ================> DF-SCS-MP2 Energies <==================
	-----------------------------------------------------------
	 SCS Same-Spin Scale       =       0.3333333333333333 [-]
	 SCS Opposite-Spin Scale   =       1.2000000000000000 [-]
	 SCS Same-Spin Energy      =      -0.2296422969844710 [Eh]
	 SCS Opposite-Spin Energy  =      -2.6540389454590589 [Eh]
	 SCS Correlation Energy    =      -2.8836812424435299 [Eh]
	 SCS Total Energy          =    -634.6089108870364726 [Eh]
	-----------------------------------------------------------

  Dipole Moment: [D]
     X:     1.4557      Y:    -2.4800      Z:     2.3522     Total:     3.7151

*** Psi4 exiting successfully. Buy a developer a beer!
