                               Psi4 1.4a3.dev225

  ==> Input File <==

--------------------------------------------------------------------------
#psi4
#
memory 32 gb

molecule  {
0 1
  O        0.0109280     1.9504830    -1.2088660
  N        1.2104930     0.4628600     0.0596820
  C        3.6816010    -0.9509880     0.4072830
  C        3.5342200     0.1692850    -0.6230390
  C        2.3335540    -1.6180450     0.6838790
  C        2.5314746     1.0630287    -0.1023688
  C        1.2914730    -0.5760260     1.0805660
  C        0.0527250     0.9288280    -0.5097470
  C       -1.1808260     0.1020470    -0.2945890
  C       -2.2823960     0.6556420     0.3835130
  C       -1.2622800    -1.1716740    -0.8705440
  C       -3.4454200    -0.1153760     0.4879690
  C       -2.2065840     2.0368470     0.9809810
  C       -2.4366510    -1.9182050    -0.7675160
  C       -3.5304630    -1.3875060    -0.0828830
  H        4.4130950    -1.6928310     0.0671840
  H        4.0710030    -0.5292960     1.3442740
  H        4.4878230     0.6919580    -0.7653020
  H        3.2457620    -0.2529490    -1.5933530
  H        1.9831950    -2.1398170    -0.2152240
  H        2.4267450    -2.3652010     1.4815110
  H        2.7768740     1.6847790     0.7291870
  H        2.2671880     1.9220510    -0.9540200
  H        0.3069530    -1.0243470     1.2170770
  H        1.5834140    -0.1085280     2.0346680
  H       -0.4031770    -1.5700500    -1.4080150
  H       -4.3043690     0.2928860     1.0181070
  H       -2.0253310     2.7815300     0.2022010
  H       -3.1368610     2.2826280     1.5002420
  H       -1.3844770     2.1136550     1.7007310
  H       -2.4977120    -2.9041740    -1.2220500
  H       -4.4499260    -1.9612690     0.0072960
units angstrom
no_reorient  #important for SAPT in psi4, default
symmetry c1  #important for SAPT in psi4, default
}

set PROPERTIES_ORIGIN ["COM"]
properties('MP2/aug-cc-pvtz', properties = ['dipole'])
--------------------------------------------------------------------------

    Molecular point group: c1
  Charge       = 0
  Multiplicity = 1
  Basis Set: AUG-CC-PVTZ
    Blend: AUG-CC-PVTZ
  Basis Set: (AUG-CC-PVTZ AUX)
    Blend: AUG-CC-PVTZ-JKFIT

    Orbital Energies [Eh]
    ---------------------

    Doubly Occupied:

       1A    -20.511433     2A    -15.584027     3A    -11.352068
       4A    -11.264205     5A    -11.258876     6A    -11.252493
       7A    -11.247157     8A    -11.245976     9A    -11.243133
      10A    -11.239483    11A    -11.237345    12A    -11.230592
      13A    -11.226783    14A    -11.223520    15A    -11.220624
      16A     -1.366384    17A     -1.252514    18A     -1.162069
      19A     -1.092360    20A     -1.051098    21A     -1.038016
      22A     -1.026938    23A     -0.943955    24A     -0.920643
      25A     -0.865673    26A     -0.841720    27A     -0.816764
      28A     -0.795275    29A     -0.744583    30A     -0.712617
      31A     -0.666315    32A     -0.653750    33A     -0.650087
      34A     -0.631355    35A     -0.619698    36A     -0.617515
      37A     -0.596708    38A     -0.589514    39A     -0.575577
      40A     -0.572513    41A     -0.555904    42A     -0.548409
      43A     -0.540576    44A     -0.524417    45A     -0.511806
      46A     -0.504507    47A     -0.492208    48A     -0.489193
      49A     -0.483608    50A     -0.468786    51A     -0.434332
      52A     -0.412392    53A     -0.370477    54A     -0.340272
      55A     -0.330442

  @DF-RHF Final Energy:  -631.70327945605368

   => Energetics <=

    Nuclear Repulsion Energy =           1000.9102725707311947
    One-Electron Energy =               -2844.9297322540446658
    Two-Electron Energy =                1212.3161802272597924
    Total Energy =                       -631.7032794560536786
  Basis Set: (AUG-CC-PVTZ AUX)
    Blend: AUG-CC-PVTZ-RI
    Molecular point group: c1

    Geometry (in Angstrom), charge = 0, multiplicity = 1:

       Center              X                  Y                   Z               Mass
    ------------   -----------------  -----------------  -----------------  -----------------
         O            0.052654816005     1.943133833145    -1.189011047656    15.994914619570
         N            1.252219816005     0.455510833145     0.079536952344    14.003074004430
         C            3.723327816005    -0.958337166855     0.427137952344    12.000000000000
         C            3.575946816005     0.161935833145    -0.603184047656    12.000000000000
         C            2.375280816005    -1.625394166855     0.703733952344    12.000000000000
         C            2.573201416005     1.055679533145    -0.082513847656    12.000000000000
         C            1.333199816005    -0.583375166855     1.100420952344    12.000000000000
         C            0.094451816005     0.921478833145    -0.489892047656    12.000000000000
         C           -1.139099183995     0.094697833145    -0.274734047656    12.000000000000
         C           -2.240669183995     0.648292833145     0.403367952344    12.000000000000
         C           -1.220553183995    -1.179023166855    -0.850689047656    12.000000000000
         C           -3.403693183995    -0.122725166855     0.507823952344    12.000000000000
         C           -2.164857183995     2.029497833145     1.000835952344    12.000000000000
         C           -2.394924183995    -1.925554166855    -0.747661047656    12.000000000000
         C           -3.488736183995    -1.394855166855    -0.063028047656    12.000000000000
         H            4.454821816005    -1.700180166855     0.087038952344     1.007825032230
         H            4.112729816005    -0.536645166855     1.364128952344     1.007825032230
         H            4.529549816005     0.684608833145    -0.745447047656     1.007825032230
         H            3.287488816005    -0.260298166855    -1.573498047656     1.007825032230
         H            2.024921816005    -2.147166166855    -0.195369047656     1.007825032230
         H            2.468471816005    -2.372550166855     1.501365952344     1.007825032230
         H            2.818600816005     1.677429833145     0.749041952344     1.007825032230
         H            2.308914816005     1.914701833145    -0.934165047656     1.007825032230
         H            0.348679816005    -1.031696166855     1.236931952344     1.007825032230
         H            1.625140816005    -0.115877166855     2.054522952344     1.007825032230
         H           -0.361450183995    -1.577399166855    -1.388160047656     1.007825032230
         H           -4.262642183995     0.285536833145     1.037961952344     1.007825032230
         H           -1.983604183995     2.774180833145     0.222055952344     1.007825032230
         H           -3.095134183995     2.275278833145     1.520096952344     1.007825032230
         H           -1.342750183995     2.106305833145     1.720585952344     1.007825032230
         H           -2.455985183995    -2.911523166855    -1.202195047656     1.007825032230
         H           -4.408199183995    -1.968618166855     0.027150952344     1.007825032230

  Basis Set: AUG-CC-PVTZ
    Blend: AUG-CC-PVTZ
  Basis Set: (AUG-CC-PVTZ AUX)
    Blend: AUG-CC-PVTZ-JKFIT
	 Reference Energy          =    -631.7032794560536786 [Eh]
	 Singles Energy            =      -0.0000000000000000 [Eh]
	 Same-Spin Energy          =      -0.6909748261162384 [Eh]
	 Opposite-Spin Energy      =      -2.2154097423877528 [Eh]
	 Correlation Energy        =      -2.9063845685039911 [Eh]
	 Total Energy              =    -634.6096640245576737 [Eh]

	 ================> DF-SCS-MP2 Energies <==================
	-----------------------------------------------------------
	 SCS Same-Spin Scale       =       0.3333333333333333 [-]
	 SCS Opposite-Spin Scale   =       1.2000000000000000 [-]
	 SCS Same-Spin Energy      =      -0.2303249420387461 [Eh]
	 SCS Opposite-Spin Energy  =      -2.6584916908653033 [Eh]
	 SCS Correlation Energy    =      -2.8888166329040494 [Eh]
	 SCS Total Energy          =    -634.5920960889577600 [Eh]
	-----------------------------------------------------------

  Dipole Moment: [D]
     X:     1.3715      Y:    -2.5420      Z:     2.3067     Total:     3.6965

*** Psi4 exiting successfully. Buy a developer a beer!
