                               Psi4 1.4a3.dev225

  ==> Input File <==

--------------------------------------------------------------------------
#psi4
#
memory 32 gb

molecule  {
0 1
  O        0.0109280     1.9504830    -1.2088660
  N        1.2104930     0.4628600     0.0596820
  C        3.6816010    -0.9509880     0.4072830
  C        3.5415928     0.2226226    -0.7149308
  C        2.3335540    -1.6180450     0.6838790
  C        2.4642000     1.1676880    -0.1911000
  C        1.2914730    -0.5760260     1.0805660
  C        0.0527250     0.9288280    -0.5097470
  C       -1.1808260     0.1020470    -0.2945890
  C       -2.2823960     0.6556420     0.3835130
  C       -1.2622800    -1.1716740    -0.8705440
  C       -3.4454200    -0.1153760     0.4879690
  C       -2.2065840     2.0368470     0.9809810
  C       -2.4366510    -1.9182050    -0.7675160
  C       -3.5304630    -1.3875060    -0.0828830
  H        4.4130950    -1.6928310     0.0671840
  H        4.0710030    -0.5292960     1.3442740
  H        4.4878230     0.6919580    -0.7653020
  H        3.2457620    -0.2529490    -1.5933530
  H        1.9831950    -2.1398170    -0.2152240
  H        2.4267450    -2.3652010     1.4815110
  H        2.7768740     1.6847790     0.7291870
  H        2.2671880     1.9220510    -0.9540200
  H        0.3069530    -1.0243470     1.2170770
  H        1.5834140    -0.1085280     2.0346680
  H       -0.4031770    -1.5700500    -1.4080150
  H       -4.3043690     0.2928860     1.0181070
  H       -2.0253310     2.7815300     0.2022010
  H       -3.1368610     2.2826280     1.5002420
  H       -1.3844770     2.1136550     1.7007310
  H       -2.4977120    -2.9041740    -1.2220500
  H       -4.4499260    -1.9612690     0.0072960
units angstrom
no_reorient  #important for SAPT in psi4, default
symmetry c1  #important for SAPT in psi4, default
}

set PROPERTIES_ORIGIN ["COM"]
properties('MP2/aug-cc-pvtz', properties = ['dipole'])
--------------------------------------------------------------------------

    Molecular point group: c1
  Charge       = 0
  Multiplicity = 1
  Basis Set: AUG-CC-PVTZ
    Blend: AUG-CC-PVTZ
  Basis Set: (AUG-CC-PVTZ AUX)
    Blend: AUG-CC-PVTZ-JKFIT

    Orbital Energies [Eh]
    ---------------------

    Doubly Occupied:

       1A    -20.510724     2A    -15.584431     3A    -11.349675
       4A    -11.266434     5A    -11.254259     6A    -11.251884
       7A    -11.246442     8A    -11.245128     9A    -11.242685
      10A    -11.239188    11A    -11.237005    12A    -11.230727
      13A    -11.229977    14A    -11.222990    15A    -11.220345
      16A     -1.366898    17A     -1.248622    18A     -1.161419
      19A     -1.074089    20A     -1.050687    21A     -1.037783
      22A     -1.022458    23A     -0.942148    24A     -0.915997
      25A     -0.870279    26A     -0.841825    27A     -0.815637
      28A     -0.794347    29A     -0.743024    30A     -0.711557
      31A     -0.665978    32A     -0.653873    33A     -0.648733
      34A     -0.630881    35A     -0.621149    36A     -0.614409
      37A     -0.595976    38A     -0.585246    39A     -0.575664
      40A     -0.570649    41A     -0.556268    42A     -0.548152
      43A     -0.541111    44A     -0.525775    45A     -0.513638
      46A     -0.505918    47A     -0.493303    48A     -0.489519
      49A     -0.482368    50A     -0.474094    51A     -0.438234
      52A     -0.415959    53A     -0.367166    54A     -0.339994
      55A     -0.330010

  @DF-RHF Final Energy:  -631.72137546743352

   => Energetics <=

    Nuclear Repulsion Energy =            998.7153254836970291
    One-Electron Energy =               -2840.6479416241768376
    Two-Electron Energy =                1210.2112406730461771
    Total Energy =                       -631.7213754674335178
  Basis Set: (AUG-CC-PVTZ AUX)
    Blend: AUG-CC-PVTZ-RI
    Molecular point group: c1

    Geometry (in Angstrom), charge = 0, multiplicity = 1:

       Center              X                  Y                   Z               Mass
    ------------   -----------------  -----------------  -----------------  -----------------
         O            0.056193525261     1.933800138791    -1.178340712509    15.994914619570
         N            1.255758525261     0.446177138791     0.090207287491    14.003074004430
         C            3.726866525261    -0.967670861209     0.437808287491    12.000000000000
         C            3.586858325261     0.205939738791    -0.684405512509    12.000000000000
         C            2.378819525261    -1.634727861209     0.714404287491    12.000000000000
         C            2.509465525261     1.151005138791    -0.160574712509    12.000000000000
         C            1.336738525261    -0.592708861209     1.111091287491    12.000000000000
         C            0.097990525261     0.912145138791    -0.479221712509    12.000000000000
         C           -1.135560474739     0.085364138791    -0.264063712509    12.000000000000
         C           -2.237130474739     0.638959138791     0.414038287491    12.000000000000
         C           -1.217014474739    -1.188356861209    -0.840018712509    12.000000000000
         C           -3.400154474739    -0.132058861209     0.518494287491    12.000000000000
         C           -2.161318474739     2.020164138791     1.011506287491    12.000000000000
         C           -2.391385474739    -1.934887861209    -0.736990712509    12.000000000000
         C           -3.485197474739    -1.404188861209    -0.052357712509    12.000000000000
         H            4.458360525261    -1.709513861209     0.097709287491     1.007825032230
         H            4.116268525261    -0.545978861209     1.374799287491     1.007825032230
         H            4.533088525261     0.675275138791    -0.734776712509     1.007825032230
         H            3.291027525261    -0.269631861209    -1.562827712509     1.007825032230
         H            2.028460525261    -2.156499861209    -0.184698712509     1.007825032230
         H            2.472010525261    -2.381883861209     1.512036287491     1.007825032230
         H            2.822139525261     1.668096138791     0.759712287491     1.007825032230
         H            2.312453525261     1.905368138791    -0.923494712509     1.007825032230
         H            0.352218525261    -1.041029861209     1.247602287491     1.007825032230
         H            1.628679525261    -0.125210861209     2.065193287491     1.007825032230
         H           -0.357911474739    -1.586732861209    -1.377489712509     1.007825032230
         H           -4.259103474739     0.276203138791     1.048632287491     1.007825032230
         H           -1.980065474739     2.764847138791     0.232726287491     1.007825032230
         H           -3.091595474739     2.265945138791     1.530767287491     1.007825032230
         H           -1.339211474739     2.096972138791     1.731256287491     1.007825032230
         H           -2.452446474739    -2.920856861209    -1.191524712509     1.007825032230
         H           -4.404660474739    -1.977951861209     0.037821287491     1.007825032230

  Basis Set: AUG-CC-PVTZ
    Blend: AUG-CC-PVTZ
  Basis Set: (AUG-CC-PVTZ AUX)
    Blend: AUG-CC-PVTZ-JKFIT
	 Reference Energy          =    -631.7213754674335178 [Eh]
	 Singles Energy            =      -0.0000000000000000 [Eh]
	 Same-Spin Energy          =      -0.6887104198758188 [Eh]
	 Opposite-Spin Energy      =      -2.2124278388426317 [Eh]
	 Correlation Energy        =      -2.9011382587184507 [Eh]
	 Total Energy              =    -634.6225137261519649 [Eh]

	 ================> DF-SCS-MP2 Energies <==================
	-----------------------------------------------------------
	 SCS Same-Spin Scale       =       0.3333333333333333 [-]
	 SCS Opposite-Spin Scale   =       1.2000000000000000 [-]
	 SCS Same-Spin Energy      =      -0.2295701399586063 [Eh]
	 SCS Opposite-Spin Energy  =      -2.6549134066111582 [Eh]
	 SCS Correlation Energy    =      -2.8844835465697645 [Eh]
	 SCS Total Energy          =    -634.6058590140032720 [Eh]
	-----------------------------------------------------------

  Dipole Moment: [D]
     X:     1.3883      Y:    -2.4940      Z:     2.2700     Total:     3.6470

*** Psi4 exiting successfully. Buy a developer a beer!
