                               Psi4 1.4a3.dev225

  ==> Input File <==

--------------------------------------------------------------------------
#psi4
#
memory 32 gb

molecule  {
0 1
  O        0.0109280     1.9504830    -1.2088660
  N        1.2104930     0.4628600     0.0596820
  C        3.6816010    -0.9509880     0.4072830
  C        3.5342200     0.1692850    -0.6230390
  C        2.3335540    -1.6180450     0.6838790
  C        2.4642000     1.1676880    -0.1911000
  C        1.2914730    -0.5760260     1.0805660
  C        0.0527250     0.9288280    -0.5097470
  C       -1.1808260     0.1020470    -0.2945890
  C       -2.2823960     0.6556420     0.3835130
  C       -1.2622800    -1.1716740    -0.8705440
  C       -3.4454200    -0.1153760     0.4879690
  C       -2.2065840     2.0368470     0.9809810
  C       -2.4366510    -1.9182050    -0.7675160
  C       -3.5304630    -1.3875060    -0.0828830
  H        4.4130950    -1.6928310     0.0671840
  H        4.0710030    -0.5292960     1.3442740
  H        4.4878230     0.6919580    -0.7653020
  H        3.2457620    -0.2529490    -1.5933530
  H        1.9831950    -2.1398170    -0.2152240
  H        2.4267450    -2.3652010     1.4815110
  H        2.7768740     1.6847790     0.7291870
  H        2.2671880     1.9220510    -0.9540200
  H        0.3069530    -1.0243470     1.2170770
  H        1.5834140    -0.1085280     2.0346680
  H       -0.4031770    -1.5700500    -1.4080150
  H       -4.3043690     0.2928860     1.0181070
  H       -1.9935172     2.7919308     0.2204846
  H       -3.1368610     2.2826280     1.5002420
  H       -1.3844770     2.1136550     1.7007310
  H       -2.4977120    -2.9041740    -1.2220500
  H       -4.4499260    -1.9612690     0.0072960
units angstrom
no_reorient  #important for SAPT in psi4, default
symmetry c1  #important for SAPT in psi4, default
}

set PROPERTIES_ORIGIN ["COM"]
properties('MP2/aug-cc-pvtz', properties = ['dipole'])
--------------------------------------------------------------------------

    Molecular point group: c1
  Charge       = 0
  Multiplicity = 1
  Basis Set: AUG-CC-PVTZ
    Blend: AUG-CC-PVTZ
  Basis Set: (AUG-CC-PVTZ AUX)
    Blend: AUG-CC-PVTZ-JKFIT

    Orbital Energies [Eh]
    ---------------------

    Doubly Occupied:

       1A    -20.510884     2A    -15.583987     3A    -11.349561
       4A    -11.267103     5A    -11.254698     6A    -11.252072
       7A    -11.246394     8A    -11.245084     9A    -11.242715
      10A    -11.239202    11A    -11.237111    12A    -11.230665
      13A    -11.228355    14A    -11.225724    15A    -11.220250
      16A     -1.367116    17A     -1.249668    18A     -1.161470
      19A     -1.083655    20A     -1.050738    21A     -1.037341
      22A     -1.023238    23A     -0.943212    24A     -0.918903
      25A     -0.867503    26A     -0.844201    27A     -0.815406
      28A     -0.791149    29A     -0.742785    30A     -0.712485
      31A     -0.666970    32A     -0.653012    33A     -0.648557
      34A     -0.627928    35A     -0.620493    36A     -0.615451
      37A     -0.596352    38A     -0.587966    39A     -0.576065
      40A     -0.569209    41A     -0.560296    42A     -0.547396
      43A     -0.542863    44A     -0.524954    45A     -0.508594
      46A     -0.502092    47A     -0.491272    48A     -0.489421
      49A     -0.478623    50A     -0.469667    51A     -0.461597
      52A     -0.417075    53A     -0.366299    54A     -0.340052
      55A     -0.329904

  @DF-RHF Final Energy:  -631.73053099350227

   => Energetics <=

    Nuclear Repulsion Energy =            999.9775162059519289
    One-Electron Energy =               -2843.1465222651281692
    Two-Electron Energy =                1211.4384750656740835
    Total Energy =                       -631.7305309935022706
  Basis Set: (AUG-CC-PVTZ AUX)
    Blend: AUG-CC-PVTZ-RI
    Molecular point group: c1

    Geometry (in Angstrom), charge = 0, multiplicity = 1:

       Center              X                  Y                   Z               Mass
    ------------   -----------------  -----------------  -----------------  -----------------
         O            0.056471232022     1.936899463707    -1.183859949807    15.994914619570
         N            1.256036232022     0.449276463707     0.084688050193    14.003074004430
         C            3.727144232022    -0.964571536293     0.432289050193    12.000000000000
         C            3.579763232022     0.155701463707    -0.598032949807    12.000000000000
         C            2.379097232022    -1.631628536293     0.708885050193    12.000000000000
         C            2.509743232022     1.154104463707    -0.166093949807    12.000000000000
         C            1.337016232022    -0.589609536293     1.105572050193    12.000000000000
         C            0.098268232022     0.915244463707    -0.484740949807    12.000000000000
         C           -1.135282767978     0.088463463707    -0.269582949807    12.000000000000
         C           -2.236852767978     0.642058463707     0.408519050193    12.000000000000
         C           -1.216736767978    -1.185257536293    -0.845537949807    12.000000000000
         C           -3.399876767978    -0.128959536293     0.512975050193    12.000000000000
         C           -2.161040767978     2.023263463707     1.005987050193    12.000000000000
         C           -2.391107767978    -1.931788536293    -0.742509949807    12.000000000000
         C           -3.484919767978    -1.401089536293    -0.057876949807    12.000000000000
         H            4.458638232022    -1.706414536293     0.092190050193     1.007825032230
         H            4.116546232022    -0.542879536293     1.369280050193     1.007825032230
         H            4.533366232022     0.678374463707    -0.740295949807     1.007825032230
         H            3.291305232022    -0.266532536293    -1.568346949807     1.007825032230
         H            2.028738232022    -2.153400536293    -0.190217949807     1.007825032230
         H            2.472288232022    -2.378784536293     1.506517050193     1.007825032230
         H            2.822417232022     1.671195463707     0.754193050193     1.007825032230
         H            2.312731232022     1.908467463707    -0.929013949807     1.007825032230
         H            0.352496232022    -1.037930536293     1.242083050193     1.007825032230
         H            1.628957232022    -0.122111536293     2.059674050193     1.007825032230
         H           -0.357633767978    -1.583633536293    -1.383008949807     1.007825032230
         H           -4.258825767978     0.279302463707     1.043113050193     1.007825032230
         H           -1.947973967978     2.778347263707     0.245490650193     1.007825032230
         H           -3.091317767978     2.269044463707     1.525248050193     1.007825032230
         H           -1.338933767978     2.100071463707     1.725737050193     1.007825032230
         H           -2.452168767978    -2.917757536293    -1.197043949807     1.007825032230
         H           -4.404382767978    -1.974852536293     0.032302050193     1.007825032230

  Basis Set: AUG-CC-PVTZ
    Blend: AUG-CC-PVTZ
  Basis Set: (AUG-CC-PVTZ AUX)
    Blend: AUG-CC-PVTZ-JKFIT
	 Reference Energy          =    -631.7305309935022706 [Eh]
	 Singles Energy            =      -0.0000000000000000 [Eh]
	 Same-Spin Energy          =      -0.6890369115059000 [Eh]
	 Opposite-Spin Energy      =      -2.2122597317719013 [Eh]
	 Correlation Energy        =      -2.9012966432778011 [Eh]
	 Total Energy              =    -634.6318276367800308 [Eh]

	 ================> DF-SCS-MP2 Energies <==================
	-----------------------------------------------------------
	 SCS Same-Spin Scale       =       0.3333333333333333 [-]
	 SCS Opposite-Spin Scale   =       1.2000000000000000 [-]
	 SCS Same-Spin Energy      =      -0.2296789705019666 [Eh]
	 SCS Opposite-Spin Energy  =      -2.6547116781262816 [Eh]
	 SCS Correlation Energy    =      -2.8843906486282482 [Eh]
	 SCS Total Energy          =    -634.6149216421305255 [Eh]
	-----------------------------------------------------------

  Dipole Moment: [D]
     X:     1.4195      Y:    -2.5209      Z:     2.3063     Total:     3.6998

*** Psi4 exiting successfully. Buy a developer a beer!
