                               Psi4 1.4a3.dev225

  ==> Input File <==

--------------------------------------------------------------------------
#psi4
#
memory 32 gb

molecule  {
0 1
  O        0.0109280     1.9504830    -1.2088660
  N        1.2104930     0.4628600     0.0596820
  C        3.6816010    -0.9509880     0.4072830
  C        3.5342200     0.1692850    -0.6230390
  C        2.3335540    -1.6180450     0.6838790
  C        2.4642000     1.1676880    -0.1911000
  C        1.2914730    -0.5760260     1.0805660
  C        0.0527250     0.9288280    -0.5097470
  C       -1.1808260     0.1020470    -0.2945890
  C       -2.2823960     0.6556420     0.3835130
  C       -1.2622800    -1.1716740    -0.8705440
  C       -3.4454200    -0.1153760     0.4879690
  C       -2.2065840     2.0368470     0.9809810
  C       -2.4366510    -1.9182050    -0.7675160
  C       -3.5304630    -1.3875060    -0.0828830
  H        4.4130950    -1.6928310     0.0671840
  H        4.0710030    -0.5292960     1.3442740
  H        4.4878230     0.6919580    -0.7653020
  H        3.2457620    -0.2529490    -1.5933530
  H        1.9831950    -2.1398170    -0.2152240
  H        2.4267450    -2.3652010     1.4815110
  H        2.7825541     1.6941726     0.7459052
  H        2.2671880     1.9220510    -0.9540200
  H        0.3069530    -1.0243470     1.2170770
  H        1.5834140    -0.1085280     2.0346680
  H       -0.4031770    -1.5700500    -1.4080150
  H       -4.3043690     0.2928860     1.0181070
  H       -2.0253310     2.7815300     0.2022010
  H       -3.1368610     2.2826280     1.5002420
  H       -1.3844770     2.1136550     1.7007310
  H       -2.4977120    -2.9041740    -1.2220500
  H       -4.4499260    -1.9612690     0.0072960
units angstrom
no_reorient  #important for SAPT in psi4, default
symmetry c1  #important for SAPT in psi4, default
}

set PROPERTIES_ORIGIN ["COM"]
properties('MP2/aug-cc-pvtz', properties = ['dipole'])
--------------------------------------------------------------------------

    Molecular point group: c1
  Charge       = 0
  Multiplicity = 1
  Basis Set: AUG-CC-PVTZ
    Blend: AUG-CC-PVTZ
  Basis Set: (AUG-CC-PVTZ AUX)
    Blend: AUG-CC-PVTZ-JKFIT

    Orbital Energies [Eh]
    ---------------------

    Doubly Occupied:

       1A    -20.510970     2A    -15.584209     3A    -11.349634
       4A    -11.267096     5A    -11.257099     6A    -11.251916
       7A    -11.246420     8A    -11.245099     9A    -11.242707
      10A    -11.239197    11A    -11.237032    12A    -11.230673
      13A    -11.228341    14A    -11.225918    15A    -11.220374
      16A     -1.367164    17A     -1.249663    18A     -1.161492
      19A     -1.083640    20A     -1.050852    21A     -1.037061
      22A     -1.023103    23A     -0.943128    24A     -0.918480
      25A     -0.867391    26A     -0.843830    27A     -0.815373
      28A     -0.790766    29A     -0.741908    30A     -0.712480
      31A     -0.666850    32A     -0.652858    33A     -0.647819
      34A     -0.627608    35A     -0.620472    36A     -0.614872
      37A     -0.596199    38A     -0.588005    39A     -0.575719
      40A     -0.571785    41A     -0.560401    42A     -0.547596
      43A     -0.541631    44A     -0.524669    45A     -0.507973
      46A     -0.501096    47A     -0.491417    48A     -0.489366
      49A     -0.478505    50A     -0.469592    51A     -0.461560
      52A     -0.417089    53A     -0.366217    54A     -0.340061
      55A     -0.330063

  @DF-RHF Final Energy:  -631.73014259980926

   => Energetics <=

    Nuclear Repulsion Energy =            999.8627703321925537
    One-Electron Energy =               -2842.9209516721530235
    Two-Electron Energy =                1211.3280387401509870
    Total Energy =                       -631.7301425998093691
  Basis Set: (AUG-CC-PVTZ AUX)
    Blend: AUG-CC-PVTZ-RI
    Molecular point group: c1

    Geometry (in Angstrom), charge = 0, multiplicity = 1:

       Center              X                  Y                   Z               Mass
    ------------   -----------------  -----------------  -----------------  -----------------
         O            0.056600893153     1.936904460883    -1.183852183148    15.994914619570
         N            1.256165893153     0.449281460883     0.084695816852    14.003074004430
         C            3.727273893153    -0.964566539117     0.432296816852    12.000000000000
         C            3.579892893153     0.155706460883    -0.598025183148    12.000000000000
         C            2.379226893153    -1.631623539117     0.708892816852    12.000000000000
         C            2.509872893153     1.154109460883    -0.166086183148    12.000000000000
         C            1.337145893153    -0.589604539117     1.105579816852    12.000000000000
         C            0.098397893153     0.915249460883    -0.484733183148    12.000000000000
         C           -1.135153106847     0.088468460883    -0.269575183148    12.000000000000
         C           -2.236723106847     0.642063460883     0.408526816852    12.000000000000
         C           -1.216607106847    -1.185252539117    -0.845530183148    12.000000000000
         C           -3.399747106847    -0.128954539117     0.512982816852    12.000000000000
         C           -2.160911106847     2.023268460883     1.005994816852    12.000000000000
         C           -2.390978106847    -1.931783539117    -0.742502183148    12.000000000000
         C           -3.484790106847    -1.401084539117    -0.057869183148    12.000000000000
         H            4.458767893153    -1.706409539117     0.092197816852     1.007825032230
         H            4.116675893153    -0.542874539117     1.369287816852     1.007825032230
         H            4.533495893153     0.678379460883    -0.740288183148     1.007825032230
         H            3.291434893153    -0.266527539117    -1.568339183148     1.007825032230
         H            2.028867893153    -2.153395539117    -0.190210183148     1.007825032230
         H            2.472417893153    -2.378779539117     1.506524816852     1.007825032230
         H            2.828226993153     1.680594060883     0.770919016852     1.007825032230
         H            2.312860893153     1.908472460883    -0.929006183148     1.007825032230
         H            0.352625893153    -1.037925539117     1.242090816852     1.007825032230
         H            1.629086893153    -0.122106539117     2.059681816852     1.007825032230
         H           -0.357504106847    -1.583628539117    -1.383001183148     1.007825032230
         H           -4.258696106847     0.279307460883     1.043120816852     1.007825032230
         H           -1.979658106847     2.767951460883     0.227214816852     1.007825032230
         H           -3.091188106847     2.269049460883     1.525255816852     1.007825032230
         H           -1.338804106847     2.100076460883     1.725744816852     1.007825032230
         H           -2.452039106847    -2.917752539117    -1.197036183148     1.007825032230
         H           -4.404253106847    -1.974847539117     0.032309816852     1.007825032230

  Basis Set: AUG-CC-PVTZ
    Blend: AUG-CC-PVTZ
  Basis Set: (AUG-CC-PVTZ AUX)
    Blend: AUG-CC-PVTZ-JKFIT
	 Reference Energy          =    -631.7301425998092554 [Eh]
	 Singles Energy            =      -0.0000000000000000 [Eh]
	 Same-Spin Energy          =      -0.6890404177070130 [Eh]
	 Opposite-Spin Energy      =      -2.2124057319111294 [Eh]
	 Correlation Energy        =      -2.9014461496181423 [Eh]
	 Total Energy              =    -634.6315887494273511 [Eh]

	 ================> DF-SCS-MP2 Energies <==================
	-----------------------------------------------------------
	 SCS Same-Spin Scale       =       0.3333333333333333 [-]
	 SCS Opposite-Spin Scale   =       1.2000000000000000 [-]
	 SCS Same-Spin Energy      =      -0.2296801392356710 [Eh]
	 SCS Opposite-Spin Energy  =      -2.6548868782933552 [Eh]
	 SCS Correlation Energy    =      -2.8845670175290263 [Eh]
	 SCS Total Energy          =    -634.6147096173382351 [Eh]
	-----------------------------------------------------------

  Dipole Moment: [D]
     X:     1.3927      Y:    -2.5294      Z:     2.2925     Total:     3.6869

*** Psi4 exiting successfully. Buy a developer a beer!
