                               Psi4 1.4a3.dev225

  ==> Input File <==

--------------------------------------------------------------------------
#psi4
#
memory 32 gb

molecule  {
0 1
  O        0.0109280     1.9504830    -1.2088660
  N        1.2104930     0.4628600     0.0596820
  C        3.6816010    -0.9509880     0.4072830
  C        3.5342200     0.1692850    -0.6230390
  C        2.3335540    -1.6180450     0.6838790
  C        2.4642000     1.1676880    -0.1911000
  C        1.2914730    -0.5760260     1.0805660
  C        0.0527250     0.9288280    -0.5097470
  C       -1.1808260     0.1020470    -0.2945890
  C       -2.3606862     0.6949868     0.4317067
  C       -1.2622800    -1.1716740    -0.8705440
  C       -3.4454200    -0.1153760     0.4879690
  C       -2.2065840     2.0368470     0.9809810
  C       -2.4366510    -1.9182050    -0.7675160
  C       -3.5304630    -1.3875060    -0.0828830
  H        4.4130950    -1.6928310     0.0671840
  H        4.0710030    -0.5292960     1.3442740
  H        4.4878230     0.6919580    -0.7653020
  H        3.2457620    -0.2529490    -1.5933530
  H        1.9831950    -2.1398170    -0.2152240
  H        2.4267450    -2.3652010     1.4815110
  H        2.7768740     1.6847790     0.7291870
  H        2.2671880     1.9220510    -0.9540200
  H        0.3069530    -1.0243470     1.2170770
  H        1.5834140    -0.1085280     2.0346680
  H       -0.4031770    -1.5700500    -1.4080150
  H       -4.3043690     0.2928860     1.0181070
  H       -2.0253310     2.7815300     0.2022010
  H       -3.1368610     2.2826280     1.5002420
  H       -1.3844770     2.1136550     1.7007310
  H       -2.4977120    -2.9041740    -1.2220500
  H       -4.4499260    -1.9612690     0.0072960
units angstrom
no_reorient  #important for SAPT in psi4, default
symmetry c1  #important for SAPT in psi4, default
}

set PROPERTIES_ORIGIN ["COM"]
properties('MP2/aug-cc-pvtz', properties = ['dipole'])
--------------------------------------------------------------------------

    Molecular point group: c1
  Charge       = 0
  Multiplicity = 1
  Basis Set: AUG-CC-PVTZ
    Blend: AUG-CC-PVTZ
  Basis Set: (AUG-CC-PVTZ AUX)
    Blend: AUG-CC-PVTZ-JKFIT

    Orbital Energies [Eh]
    ---------------------

    Doubly Occupied:

       1A    -20.510512     2A    -15.583755     3A    -11.349563
       4A    -11.266481     5A    -11.255122     6A    -11.254544
       7A    -11.253471     8A    -11.245360     9A    -11.243136
      10A    -11.239614    11A    -11.232132    12A    -11.230414
      13A    -11.228171    14A    -11.225573    15A    -11.219765
      16A     -1.366619    17A     -1.249327    18A     -1.157642
      19A     -1.083463    20A     -1.057259    21A     -1.037232
      22A     -1.021649    23A     -0.948401    24A     -0.918620
      25A     -0.868156    26A     -0.845224    27A     -0.804354
      28A     -0.793023    29A     -0.742072    30A     -0.711297
      31A     -0.668259    32A     -0.651224    33A     -0.648736
      34A     -0.627752    35A     -0.620110    36A     -0.614194
      37A     -0.593877    38A     -0.587785    39A     -0.584389
      40A     -0.576289    41A     -0.559356    42A     -0.547437
      43A     -0.542198    44A     -0.525806    45A     -0.517964
      46A     -0.502555    47A     -0.488707    48A     -0.480091
      49A     -0.473001    50A     -0.469448    51A     -0.461388
      52A     -0.416783    53A     -0.366052    54A     -0.346267
      55A     -0.320604

  @DF-RHF Final Energy:  -631.71814367734407

   => Energetics <=

    Nuclear Repulsion Energy =            998.6669688687111375
    One-Electron Energy =               -2840.5057739128847061
    Two-Electron Energy =                1210.1206613668296086
    Total Energy =                       -631.7181436773439600
  Basis Set: (AUG-CC-PVTZ AUX)
    Blend: AUG-CC-PVTZ-RI
    Molecular point group: c1

    Geometry (in Angstrom), charge = 0, multiplicity = 1:

       Center              X                  Y                   Z               Mass
    ------------   -----------------  -----------------  -----------------  -----------------
         O            0.061254081889     1.934626765885    -1.186616287792    15.994914619570
         N            1.260819081889     0.447003765885     0.081931712208    14.003074004430
         C            3.731927081889    -0.966844234115     0.429532712208    12.000000000000
         C            3.584546081889     0.153428765885    -0.600789287792    12.000000000000
         C            2.383880081889    -1.633901234115     0.706128712208    12.000000000000
         C            2.514526081889     1.151831765885    -0.168850287792    12.000000000000
         C            1.341799081889    -0.591882234115     1.102815712208    12.000000000000
         C            0.103051081889     0.912971765885    -0.487497287792    12.000000000000
         C           -1.130499918111     0.086190765885    -0.272339287792    12.000000000000
         C           -2.310360118111     0.679130565885     0.453956412208    12.000000000000
         C           -1.211953918111    -1.187530234115    -0.848294287792    12.000000000000
         C           -3.395093918111    -0.131232234115     0.510218712208    12.000000000000
         C           -2.156257918111     2.020990765885     1.003230712208    12.000000000000
         C           -2.386324918111    -1.934061234115    -0.745266287792    12.000000000000
         C           -3.480136918111    -1.403362234115    -0.060633287792    12.000000000000
         H            4.463421081889    -1.708687234115     0.089433712208     1.007825032230
         H            4.121329081889    -0.545152234115     1.366523712208     1.007825032230
         H            4.538149081889     0.676101765885    -0.743052287792     1.007825032230
         H            3.296088081889    -0.268805234115    -1.571103287792     1.007825032230
         H            2.033521081889    -2.155673234115    -0.192974287792     1.007825032230
         H            2.477071081889    -2.381057234115     1.503760712208     1.007825032230
         H            2.827200081889     1.668922765885     0.751436712208     1.007825032230
         H            2.317514081889     1.906194765885    -0.931770287792     1.007825032230
         H            0.357279081889    -1.040203234115     1.239326712208     1.007825032230
         H            1.633740081889    -0.124384234115     2.056917712208     1.007825032230
         H           -0.352850918111    -1.585906234115    -1.385765287792     1.007825032230
         H           -4.254042918111     0.277029765885     1.040356712208     1.007825032230
         H           -1.975004918111     2.765673765885     0.224450712208     1.007825032230
         H           -3.086534918111     2.266771765885     1.522491712208     1.007825032230
         H           -1.334150918111     2.097798765885     1.722980712208     1.007825032230
         H           -2.447385918111    -2.920030234115    -1.199800287792     1.007825032230
         H           -4.399599918111    -1.977125234115     0.029545712208     1.007825032230

  Basis Set: AUG-CC-PVTZ
    Blend: AUG-CC-PVTZ
  Basis Set: (AUG-CC-PVTZ AUX)
    Blend: AUG-CC-PVTZ-JKFIT
	 Reference Energy          =    -631.7181436773440737 [Eh]
	 Singles Energy            =      -0.0000000000000000 [Eh]
	 Same-Spin Energy          =      -0.6894937808707062 [Eh]
	 Opposite-Spin Energy      =      -2.2136091629280088 [Eh]
	 Correlation Energy        =      -2.9031029437987153 [Eh]
	 Total Energy              =    -634.6212466211427454 [Eh]

	 ================> DF-SCS-MP2 Energies <==================
	-----------------------------------------------------------
	 SCS Same-Spin Scale       =       0.3333333333333333 [-]
	 SCS Opposite-Spin Scale   =       1.2000000000000000 [-]
	 SCS Same-Spin Energy      =      -0.2298312602902354 [Eh]
	 SCS Opposite-Spin Energy  =      -2.6563309955136103 [Eh]
	 SCS Correlation Energy    =      -2.8861622558038458 [Eh]
	 SCS Total Energy          =    -634.6043059331478844 [Eh]
	-----------------------------------------------------------

  Dipole Moment: [D]
     X:     1.4248      Y:    -2.4554      Z:     2.3219     Total:     3.6675

*** Psi4 exiting successfully. Buy a developer a beer!
