                               Psi4 1.4a3.dev225

  ==> Input File <==

--------------------------------------------------------------------------
#psi4
#
memory 32 gb

molecule  {
0 1
  O        0.0109280     1.9504830    -1.2088660
  N        1.2104930     0.4628600     0.0596820
  C        3.6816010    -0.9509880     0.4072830
  C        3.5342200     0.1692850    -0.6230390
  C        2.3335540    -1.6180450     0.6838790
  C        2.4470253     1.1580325    -0.1876645
  C        1.2914730    -0.5760260     1.0805660
  C        0.0527250     0.9288280    -0.5097470
  C       -1.1808260     0.1020470    -0.2945890
  C       -2.2823960     0.6556420     0.3835130
  C       -1.2622800    -1.1716740    -0.8705440
  C       -3.4454200    -0.1153760     0.4879690
  C       -2.2065840     2.0368470     0.9809810
  C       -2.4366510    -1.9182050    -0.7675160
  C       -3.5304630    -1.3875060    -0.0828830
  H        4.4130950    -1.6928310     0.0671840
  H        4.0710030    -0.5292960     1.3442740
  H        4.4878230     0.6919580    -0.7653020
  H        3.2457620    -0.2529490    -1.5933530
  H        1.9831950    -2.1398170    -0.2152240
  H        2.4267450    -2.3652010     1.4815110
  H        2.7768740     1.6847790     0.7291870
  H        2.2671880     1.9220510    -0.9540200
  H        0.3069530    -1.0243470     1.2170770
  H        1.5834140    -0.1085280     2.0346680
  H       -0.4031770    -1.5700500    -1.4080150
  H       -4.3043690     0.2928860     1.0181070
  H       -2.0253310     2.7815300     0.2022010
  H       -3.1368610     2.2826280     1.5002420
  H       -1.3844770     2.1136550     1.7007310
  H       -2.4977120    -2.9041740    -1.2220500
  H       -4.4499260    -1.9612690     0.0072960
units angstrom
no_reorient  #important for SAPT in psi4, default
symmetry c1  #important for SAPT in psi4, default
}

set PROPERTIES_ORIGIN ["COM"]
properties('MP2/aug-cc-pvtz', properties = ['dipole'])
--------------------------------------------------------------------------

    Molecular point group: c1
  Charge       = 0
  Multiplicity = 1
  Basis Set: AUG-CC-PVTZ
    Blend: AUG-CC-PVTZ
  Basis Set: (AUG-CC-PVTZ AUX)
    Blend: AUG-CC-PVTZ-JKFIT

    Orbital Energies [Eh]
    ---------------------

    Doubly Occupied:

       1A    -20.511586     2A    -15.584544     3A    -11.350170
       4A    -11.267522     5A    -11.254068     6A    -11.252176
       7A    -11.246694     8A    -11.245385     9A    -11.242941
      10A    -11.239421    11A    -11.237253    12A    -11.230760
      13A    -11.227869    14A    -11.225319    15A    -11.220600
      16A     -1.368231    17A     -1.253357    18A     -1.161813
      19A     -1.083379    20A     -1.051170    21A     -1.037748
      22A     -1.022760    23A     -0.943588    24A     -0.918811
      25A     -0.868582    26A     -0.843854    27A     -0.815678
      28A     -0.791369    29A     -0.742958    30A     -0.713379
      31A     -0.667023    32A     -0.653496    33A     -0.648955
      34A     -0.627274    35A     -0.621176    36A     -0.615745
      37A     -0.596131    38A     -0.589040    39A     -0.576067
      40A     -0.572074    41A     -0.561261    42A     -0.546877
      43A     -0.541811    44A     -0.524763    45A     -0.508064
      46A     -0.500964    47A     -0.491797    48A     -0.489395
      49A     -0.477793    50A     -0.469664    51A     -0.460760
      52A     -0.417848    53A     -0.365973    54A     -0.340307
      55A     -0.330305

  @DF-RHF Final Energy:  -631.73029460444332

   => Energetics <=

    Nuclear Repulsion Energy =           1000.3829983837993041
    One-Electron Energy =               -2843.9314883464171544
    Two-Electron Energy =                1211.8181953581745347
    Total Energy =                       -631.7302946044433156
  Basis Set: (AUG-CC-PVTZ AUX)
    Blend: AUG-CC-PVTZ-RI
    Molecular point group: c1

    Geometry (in Angstrom), charge = 0, multiplicity = 1:

       Center              X                  Y                   Z               Mass
    ------------   -----------------  -----------------  -----------------  -----------------
         O            0.057643673094     1.937521467132    -1.183972189340    15.994914619570
         N            1.257208673094     0.449898467132     0.084575810660    14.003074004430
         C            3.728316673094    -0.963949532868     0.432176810660    12.000000000000
         C            3.580935673094     0.156323467132    -0.598145189340    12.000000000000
         C            2.380269673094    -1.631006532868     0.708772810660    12.000000000000
         C            2.493740973094     1.145070967132    -0.162770689340    12.000000000000
         C            1.338188673094    -0.588987532868     1.105459810660    12.000000000000
         C            0.099440673094     0.915866467132    -0.484853189340    12.000000000000
         C           -1.134110326906     0.089085467132    -0.269695189340    12.000000000000
         C           -2.235680326906     0.642680467132     0.408406810660    12.000000000000
         C           -1.215564326906    -1.184635532868    -0.845650189340    12.000000000000
         C           -3.398704326906    -0.128337532868     0.512862810660    12.000000000000
         C           -2.159868326906     2.023885467132     1.005874810660    12.000000000000
         C           -2.389935326906    -1.931166532868    -0.742622189340    12.000000000000
         C           -3.483747326906    -1.400467532868    -0.057989189340    12.000000000000
         H            4.459810673094    -1.705792532868     0.092077810660     1.007825032230
         H            4.117718673094    -0.542257532868     1.369167810660     1.007825032230
         H            4.534538673094     0.678996467132    -0.740408189340     1.007825032230
         H            3.292477673094    -0.265910532868    -1.568459189340     1.007825032230
         H            2.029910673094    -2.152778532868    -0.190330189340     1.007825032230
         H            2.473460673094    -2.378162532868     1.506404810660     1.007825032230
         H            2.823589673094     1.671817467132     0.754080810660     1.007825032230
         H            2.313903673094     1.909089467132    -0.929126189340     1.007825032230
         H            0.353668673094    -1.037308532868     1.241970810660     1.007825032230
         H            1.630129673094    -0.121489532868     2.059561810660     1.007825032230
         H           -0.356461326906    -1.583011532868    -1.383121189340     1.007825032230
         H           -4.257653326906     0.279924467132     1.043000810660     1.007825032230
         H           -1.978615326906     2.768568467132     0.227094810660     1.007825032230
         H           -3.090145326906     2.269666467132     1.525135810660     1.007825032230
         H           -1.337761326906     2.100693467132     1.725624810660     1.007825032230
         H           -2.450996326906    -2.917135532868    -1.197156189340     1.007825032230
         H           -4.403210326906    -1.974230532868     0.032189810660     1.007825032230

  Basis Set: AUG-CC-PVTZ
    Blend: AUG-CC-PVTZ
  Basis Set: (AUG-CC-PVTZ AUX)
    Blend: AUG-CC-PVTZ-JKFIT
	 Reference Energy          =    -631.7302946044433156 [Eh]
	 Singles Energy            =      -0.0000000000000000 [Eh]
	 Same-Spin Energy          =      -0.6891291546361424 [Eh]
	 Opposite-Spin Energy      =      -2.2122944073351967 [Eh]
	 Correlation Energy        =      -2.9014235619713391 [Eh]
	 Total Energy              =    -634.6317181664146574 [Eh]

	 ================> DF-SCS-MP2 Energies <==================
	-----------------------------------------------------------
	 SCS Same-Spin Scale       =       0.3333333333333333 [-]
	 SCS Opposite-Spin Scale   =       1.2000000000000000 [-]
	 SCS Same-Spin Energy      =      -0.2297097182120475 [Eh]
	 SCS Opposite-Spin Energy  =      -2.6547532888022358 [Eh]
	 SCS Correlation Energy    =      -2.8844630070142832 [Eh]
	 SCS Total Energy          =    -634.6147576114575486 [Eh]
	-----------------------------------------------------------

  Dipole Moment: [D]
     X:     1.3423      Y:    -2.5332      Z:     2.2991     Total:     3.6749

*** Psi4 exiting successfully. Buy a developer a beer!
