                               Psi4 1.4a3.dev225

  ==> Input File <==

--------------------------------------------------------------------------
#psi4
#
memory 32 gb

molecule  {
0 1
  O        0.0109280     1.9504830    -1.2088660
  N        1.1600972     0.3887986     0.0934921
  C        3.6816010    -0.9509880     0.4072830
  C        3.5342200     0.1692850    -0.6230390
  C        2.3335540    -1.6180450     0.6838790
  C        2.4642000     1.1676880    -0.1911000
  C        1.2914730    -0.5760260     1.0805660
  C        0.0527250     0.9288280    -0.5097470
  C       -1.1808260     0.1020470    -0.2945890
  C       -2.2823960     0.6556420     0.3835130
  C       -1.2622800    -1.1716740    -0.8705440
  C       -3.4454200    -0.1153760     0.4879690
  C       -2.2065840     2.0368470     0.9809810
  C       -2.4366510    -1.9182050    -0.7675160
  C       -3.5304630    -1.3875060    -0.0828830
  H        4.4130950    -1.6928310     0.0671840
  H        4.0710030    -0.5292960     1.3442740
  H        4.4878230     0.6919580    -0.7653020
  H        3.2457620    -0.2529490    -1.5933530
  H        1.9831950    -2.1398170    -0.2152240
  H        2.4267450    -2.3652010     1.4815110
  H        2.7768740     1.6847790     0.7291870
  H        2.2671880     1.9220510    -0.9540200
  H        0.3069530    -1.0243470     1.2170770
  H        1.5834140    -0.1085280     2.0346680
  H       -0.4031770    -1.5700500    -1.4080150
  H       -4.3043690     0.2928860     1.0181070
  H       -2.0253310     2.7815300     0.2022010
  H       -3.1368610     2.2826280     1.5002420
  H       -1.3844770     2.1136550     1.7007310
  H       -2.4977120    -2.9041740    -1.2220500
  H       -4.4499260    -1.9612690     0.0072960
units angstrom
no_reorient  #important for SAPT in psi4, default
symmetry c1  #important for SAPT in psi4, default
}

set PROPERTIES_ORIGIN ["COM"]
properties('MP2/aug-cc-pvtz', properties = ['dipole'])
--------------------------------------------------------------------------

    Molecular point group: c1
  Charge       = 0
  Multiplicity = 1
  Basis Set: AUG-CC-PVTZ
    Blend: AUG-CC-PVTZ
  Basis Set: (AUG-CC-PVTZ AUX)
    Blend: AUG-CC-PVTZ-JKFIT

    Orbital Energies [Eh]
    ---------------------

    Doubly Occupied:

       1A    -20.515571     2A    -15.585873     3A    -11.352317
       4A    -11.262310     5A    -11.261884     6A    -11.249881
       7A    -11.244311     8A    -11.241630     9A    -11.241058
      10A    -11.237767    11A    -11.235599    12A    -11.229361
      13A    -11.228625    14A    -11.227743    15A    -11.219729
      16A     -1.367797    17A     -1.256792    18A     -1.159644
      19A     -1.085507    20A     -1.049174    21A     -1.032132
      22A     -1.026047    23A     -0.943528    24A     -0.920143
      25A     -0.865826    26A     -0.845805    27A     -0.814670
      28A     -0.789252    29A     -0.744245    30A     -0.710431
      31A     -0.667982    32A     -0.655233    33A     -0.649756
      34A     -0.625460    35A     -0.621258    36A     -0.615636
      37A     -0.595582    38A     -0.590345    39A     -0.574014
      40A     -0.572196    41A     -0.555613    42A     -0.548961
      43A     -0.542530    44A     -0.522494    45A     -0.508403
      46A     -0.503061    47A     -0.490099    48A     -0.488300
      49A     -0.479060    50A     -0.470117    51A     -0.460511
      52A     -0.414206    53A     -0.369197    54A     -0.338610
      55A     -0.328508

  @DF-RHF Final Energy:  -631.71907742513690

   => Energetics <=

    Nuclear Repulsion Energy =           1000.4148513931980915
    One-Electron Energy =               -2844.0042929817523145
    Two-Electron Energy =                1211.8703641634172072
    Total Energy =                       -631.7190774251369021
  Basis Set: (AUG-CC-PVTZ AUX)
    Blend: AUG-CC-PVTZ-RI
    Molecular point group: c1

    Geometry (in Angstrom), charge = 0, multiplicity = 1:

       Center              X                  Y                   Z               Mass
    ------------   -----------------  -----------------  -----------------  -----------------
         O            0.060103168110     1.942056576007    -1.186099975361    15.994914619570
         N            1.209272368110     0.380372176007     0.116258124639    14.003074004430
         C            3.730776168110    -0.959414423993     0.430049024639    12.000000000000
         C            3.583395168110     0.160858576007    -0.600272975361    12.000000000000
         C            2.382729168110    -1.626471423993     0.706645024639    12.000000000000
         C            2.513375168110     1.159261576007    -0.168333975361    12.000000000000
         C            1.340648168110    -0.584452423993     1.103332024639    12.000000000000
         C            0.101900168110     0.920401576007    -0.486980975361    12.000000000000
         C           -1.131650831890     0.093620576007    -0.271822975361    12.000000000000
         C           -2.233220831890     0.647215576007     0.406279024639    12.000000000000
         C           -1.213104831890    -1.180100423993    -0.847777975361    12.000000000000
         C           -3.396244831890    -0.123802423993     0.510735024639    12.000000000000
         C           -2.157408831890     2.028420576007     1.003747024639    12.000000000000
         C           -2.387475831890    -1.926631423993    -0.744749975361    12.000000000000
         C           -3.481287831890    -1.395932423993    -0.060116975361    12.000000000000
         H            4.462270168110    -1.701257423993     0.089950024639     1.007825032230
         H            4.120178168110    -0.537722423993     1.367040024639     1.007825032230
         H            4.536998168110     0.683531576007    -0.742535975361     1.007825032230
         H            3.294937168110    -0.261375423993    -1.570586975361     1.007825032230
         H            2.032370168110    -2.148243423993    -0.192457975361     1.007825032230
         H            2.475920168110    -2.373627423993     1.504277024639     1.007825032230
         H            2.826049168110     1.676352576007     0.751953024639     1.007825032230
         H            2.316363168110     1.913624576007    -0.931253975361     1.007825032230
         H            0.356128168110    -1.032773423993     1.239843024639     1.007825032230
         H            1.632589168110    -0.116954423993     2.057434024639     1.007825032230
         H           -0.354001831890    -1.578476423993    -1.385248975361     1.007825032230
         H           -4.255193831890     0.284459576007     1.040873024639     1.007825032230
         H           -1.976155831890     2.773103576007     0.224967024639     1.007825032230
         H           -3.087685831890     2.274201576007     1.523008024639     1.007825032230
         H           -1.335301831890     2.105228576007     1.723497024639     1.007825032230
         H           -2.448536831890    -2.912600423993    -1.199283975361     1.007825032230
         H           -4.400750831890    -1.969695423993     0.030062024639     1.007825032230

  Basis Set: AUG-CC-PVTZ
    Blend: AUG-CC-PVTZ
  Basis Set: (AUG-CC-PVTZ AUX)
    Blend: AUG-CC-PVTZ-JKFIT
	 Reference Energy          =    -631.7190774251369021 [Eh]
	 Singles Energy            =      -0.0000000000000000 [Eh]
	 Same-Spin Energy          =      -0.6898380619341481 [Eh]
	 Opposite-Spin Energy      =      -2.2138388598978946 [Eh]
	 Correlation Energy        =      -2.9036769218320426 [Eh]
	 Total Energy              =    -634.6227543469689181 [Eh]

	 ================> DF-SCS-MP2 Energies <==================
	-----------------------------------------------------------
	 SCS Same-Spin Scale       =       0.3333333333333333 [-]
	 SCS Opposite-Spin Scale   =       1.2000000000000000 [-]
	 SCS Same-Spin Energy      =      -0.2299460206447160 [Eh]
	 SCS Opposite-Spin Energy  =      -2.6566066318774735 [Eh]
	 SCS Correlation Energy    =      -2.8865526525221896 [Eh]
	 SCS Total Energy          =    -634.6056300776590433 [Eh]
	-----------------------------------------------------------

  Dipole Moment: [D]
     X:     1.5724      Y:    -2.3371      Z:     2.2100     Total:     3.5802

*** Psi4 exiting successfully. Buy a developer a beer!
