                               Psi4 1.4a3.dev225

  ==> Input File <==

--------------------------------------------------------------------------
#psi4
#
memory 32 gb

molecule  {
0 1
  O        0.0109280     1.9504830    -1.2088660
  N        1.2104930     0.4628600     0.0596820
  C        3.6816010    -0.9509880     0.4072830
  C        3.5342200     0.1692850    -0.6230390
  C        2.3335540    -1.6180450     0.6838790
  C        2.4642000     1.1676880    -0.1911000
  C        1.2914730    -0.5760260     1.0805660
  C        0.0527250     0.9288280    -0.5097470
  C       -1.1808260     0.1020470    -0.2945890
  C       -2.2823960     0.6556420     0.3835130
  C       -1.2622800    -1.1716740    -0.8705440
  C       -3.4454200    -0.1153760     0.4879690
  C       -2.2065840     2.0368470     0.9809810
  C       -2.4366510    -1.9182050    -0.7675160
  C       -3.5304630    -1.3875060    -0.0828830
  H        4.4130950    -1.6928310     0.0671840
  H        4.0710030    -0.5292960     1.3442740
  H        4.4878230     0.6919580    -0.7653020
  H        3.2457620    -0.2529490    -1.5933530
  H        1.9831950    -2.1398170    -0.2152240
  H        2.4267450    -2.3652010     1.4815110
  H        2.7768740     1.6847790     0.7291870
  H        2.2671880     1.9220510    -0.9540200
  H        0.3069530    -1.0243470     1.2170770
  H        1.5834140    -0.1085280     2.0346680
  H       -0.4031770    -1.5700500    -1.4080150
  H       -4.3201467     0.3003852     1.0278449
  H       -2.0253310     2.7815300     0.2022010
  H       -3.1368610     2.2826280     1.5002420
  H       -1.3844770     2.1136550     1.7007310
  H       -2.4977120    -2.9041740    -1.2220500
  H       -4.4499260    -1.9612690     0.0072960
units angstrom
no_reorient  #important for SAPT in psi4, default
symmetry c1  #important for SAPT in psi4, default
}

set PROPERTIES_ORIGIN ["COM"]
properties('MP2/aug-cc-pvtz', properties = ['dipole'])
--------------------------------------------------------------------------

    Molecular point group: c1
  Charge       = 0
  Multiplicity = 1
  Basis Set: AUG-CC-PVTZ
    Blend: AUG-CC-PVTZ
  Basis Set: (AUG-CC-PVTZ AUX)
    Blend: AUG-CC-PVTZ-JKFIT

    Orbital Energies [Eh]
    ---------------------

    Doubly Occupied:

       1A    -20.510847     2A    -15.583961     3A    -11.349544
       4A    -11.267112     5A    -11.254672     6A    -11.252054
       7A    -11.246448     8A    -11.245156     9A    -11.242878
      10A    -11.239389    11A    -11.239171    12A    -11.230668
      13A    -11.228351    14A    -11.225710    15A    -11.220310
      16A     -1.367060    17A     -1.249644    18A     -1.161446
      19A     -1.083637    20A     -1.050874    21A     -1.037124
      22A     -1.022976    23A     -0.943005    24A     -0.918841
      25A     -0.867458    26A     -0.843815    27A     -0.814635
      28A     -0.791069    29A     -0.742364    30A     -0.711692
      31A     -0.666860    32A     -0.652971    33A     -0.648362
      34A     -0.627725    35A     -0.619577    36A     -0.615033
      37A     -0.595711    38A     -0.588077    39A     -0.575353
      40A     -0.571802    41A     -0.560205    42A     -0.547325
      43A     -0.541163    44A     -0.524851    45A     -0.508066
      46A     -0.502079    47A     -0.491317    48A     -0.489076
      49A     -0.478526    50A     -0.469660    51A     -0.461592
      52A     -0.416992    53A     -0.366274    54A     -0.340100
      55A     -0.330125

  @DF-RHF Final Energy:  -631.73002473424276

   => Energetics <=

    Nuclear Repulsion Energy =            999.8620790980284028
    One-Electron Energy =               -2842.9227384925343358
    Two-Electron Energy =                1211.3306346602630583
    Total Energy =                       -631.7300247342427610
  Basis Set: (AUG-CC-PVTZ AUX)
    Blend: AUG-CC-PVTZ-RI
    Molecular point group: c1

    Geometry (in Angstrom), charge = 0, multiplicity = 1:

       Center              X                  Y                   Z               Mass
    ------------   -----------------  -----------------  -----------------  -----------------
         O            0.056707355025     1.936913859860    -1.183817550716    15.994914619570
         N            1.256272355025     0.449290859860     0.084730449284    14.003074004430
         C            3.727380355025    -0.964557140140     0.432331449284    12.000000000000
         C            3.579999355025     0.155715859860    -0.597990550716    12.000000000000
         C            2.379333355025    -1.631614140140     0.708927449284    12.000000000000
         C            2.509979355025     1.154118859860    -0.166051550716    12.000000000000
         C            1.337252355025    -0.589595140140     1.105614449284    12.000000000000
         C            0.098504355025     0.915258859860    -0.484698550716    12.000000000000
         C           -1.135046644975     0.088477859860    -0.269540550716    12.000000000000
         C           -2.236616644975     0.642072859860     0.408561449284    12.000000000000
         C           -1.216500644975    -1.185243140140    -0.845495550716    12.000000000000
         C           -3.399640644975    -0.128945140140     0.513017449284    12.000000000000
         C           -2.160804644975     2.023277859860     1.006029449284    12.000000000000
         C           -2.390871644975    -1.931774140140    -0.742467550716    12.000000000000
         C           -3.484683644975    -1.401075140140    -0.057834550716    12.000000000000
         H            4.458874355025    -1.706400140140     0.092232449284     1.007825032230
         H            4.116782355025    -0.542865140140     1.369322449284     1.007825032230
         H            4.533602355025     0.678388859860    -0.740253550716     1.007825032230
         H            3.291541355025    -0.266518140140    -1.568304550716     1.007825032230
         H            2.028974355025    -2.153386140140    -0.190175550716     1.007825032230
         H            2.472524355025    -2.378770140140     1.506559449284     1.007825032230
         H            2.822653355025     1.671209859860     0.754235449284     1.007825032230
         H            2.312967355025     1.908481859860    -0.928971550716     1.007825032230
         H            0.352732355025    -1.037916140140     1.242125449284     1.007825032230
         H            1.629193355025    -0.122097140140     2.059716449284     1.007825032230
         H           -0.357397644975    -1.583619140140    -1.382966550716     1.007825032230
         H           -4.274367344975     0.286816059860     1.052893349284     1.007825032230
         H           -1.979551644975     2.767960859860     0.227249449284     1.007825032230
         H           -3.091081644975     2.269058859860     1.525290449284     1.007825032230
         H           -1.338697644975     2.100085859860     1.725779449284     1.007825032230
         H           -2.451932644975    -2.917743140140    -1.197001550716     1.007825032230
         H           -4.404146644975    -1.974838140140     0.032344449284     1.007825032230

  Basis Set: AUG-CC-PVTZ
    Blend: AUG-CC-PVTZ
  Basis Set: (AUG-CC-PVTZ AUX)
    Blend: AUG-CC-PVTZ-JKFIT
	 Reference Energy          =    -631.7300247342427610 [Eh]
	 Singles Energy            =      -0.0000000000000000 [Eh]
	 Same-Spin Energy          =      -0.6890670155820687 [Eh]
	 Opposite-Spin Energy      =      -2.2124286484942095 [Eh]
	 Correlation Energy        =      -2.9014956640762781 [Eh]
	 Total Energy              =    -634.6315203983190258 [Eh]

	 ================> DF-SCS-MP2 Energies <==================
	-----------------------------------------------------------
	 SCS Same-Spin Scale       =       0.3333333333333333 [-]
	 SCS Opposite-Spin Scale   =       1.2000000000000000 [-]
	 SCS Same-Spin Energy      =      -0.2296890051940229 [Eh]
	 SCS Opposite-Spin Energy  =      -2.6549143781930513 [Eh]
	 SCS Correlation Energy    =      -2.8846033833870743 [Eh]
	 SCS Total Energy          =    -634.6146281176298771 [Eh]
	-----------------------------------------------------------

  Dipole Moment: [D]
     X:     1.4131      Y:    -2.5229      Z:     2.2998     Total:     3.6948

*** Psi4 exiting successfully. Buy a developer a beer!
