                               Psi4 1.4a3.dev225

  ==> Input File <==

--------------------------------------------------------------------------
#psi4
#
memory 32 gb

molecule  {
0 1
  O        0.0109280     1.9504830    -1.2088660
  N        1.2104930     0.4628600     0.0596820
  C        3.6816010    -0.9509880     0.4072830
  C        3.5342200     0.1692850    -0.6230390
  C        2.3335540    -1.6180450     0.6838790
  C        2.4642000     1.1676880    -0.1911000
  C        1.2914730    -0.5760260     1.0805660
  C        0.0527250     0.9288280    -0.5097470
  C       -1.1808260     0.1020470    -0.2945890
  C       -2.1358576     0.6796060     0.3303371
  C       -1.2622800    -1.1716740    -0.8705440
  C       -3.4454200    -0.1153760     0.4879690
  C       -2.2065840     2.0368470     0.9809810
  C       -2.4366510    -1.9182050    -0.7675160
  C       -3.5304630    -1.3875060    -0.0828830
  H        4.4130950    -1.6928310     0.0671840
  H        4.0710030    -0.5292960     1.3442740
  H        4.4878230     0.6919580    -0.7653020
  H        3.2457620    -0.2529490    -1.5933530
  H        1.9831950    -2.1398170    -0.2152240
  H        2.4267450    -2.3652010     1.4815110
  H        2.7768740     1.6847790     0.7291870
  H        2.2671880     1.9220510    -0.9540200
  H        0.3069530    -1.0243470     1.2170770
  H        1.5834140    -0.1085280     2.0346680
  H       -0.4031770    -1.5700500    -1.4080150
  H       -4.3043690     0.2928860     1.0181070
  H       -2.0253310     2.7815300     0.2022010
  H       -3.1368610     2.2826280     1.5002420
  H       -1.3844770     2.1136550     1.7007310
  H       -2.4977120    -2.9041740    -1.2220500
  H       -4.4499260    -1.9612690     0.0072960
units angstrom
no_reorient  #important for SAPT in psi4, default
symmetry c1  #important for SAPT in psi4, default
}

set PROPERTIES_ORIGIN ["COM"]
properties('MP2/aug-cc-pvtz', properties = ['dipole'])
--------------------------------------------------------------------------

    Molecular point group: c1
  Charge       = 0
  Multiplicity = 1
  Basis Set: AUG-CC-PVTZ
    Blend: AUG-CC-PVTZ
  Basis Set: (AUG-CC-PVTZ AUX)
    Blend: AUG-CC-PVTZ-JKFIT

    Orbital Energies [Eh]
    ---------------------

    Doubly Occupied:

       1A    -20.510373     2A    -15.582965     3A    -11.346641
       4A    -11.267615     5A    -11.254103     6A    -11.249959
       7A    -11.248754     8A    -11.245905     9A    -11.241001
      10A    -11.239748    11A    -11.230600    12A    -11.230092
      13A    -11.228209    14A    -11.225419    15A    -11.222027
      16A     -1.367009    17A     -1.249165    18A     -1.166174
      19A     -1.083379    20A     -1.060172    21A     -1.032897
      22A     -1.018539    23A     -0.942951    24A     -0.920130
      25A     -0.865769    26A     -0.845603    27A     -0.823599
      28A     -0.784743    29A     -0.740543    30A     -0.712516
      31A     -0.666418    32A     -0.652423    33A     -0.646609
      34A     -0.627757    35A     -0.622356    36A     -0.615433
      37A     -0.600220    38A     -0.589111    39A     -0.573834
      40A     -0.568638    41A     -0.562995    42A     -0.549586
      43A     -0.542241    44A     -0.527799    45A     -0.510083
      46A     -0.500624    47A     -0.491898    48A     -0.480450
      49A     -0.476368    50A     -0.469221    51A     -0.461160
      52A     -0.410425    53A     -0.365957    54A     -0.353649
      55A     -0.320886

  @DF-RHF Final Energy:  -631.70167616203958

   => Energetics <=

    Nuclear Repulsion Energy =           1001.7732108455498974
    One-Electron Energy =               -2846.7042991790449378
    Two-Electron Energy =                1213.2294121714555786
    Total Energy =                       -631.7016761620395755
  Basis Set: (AUG-CC-PVTZ AUX)
    Blend: AUG-CC-PVTZ-RI
    Molecular point group: c1

    Geometry (in Angstrom), charge = 0, multiplicity = 1:

       Center              X                  Y                   Z               Mass
    ------------   -----------------  -----------------  -----------------  -----------------
         O            0.047972293231     1.935535389321    -1.180627861037    15.994914619570
         N            1.247537293231     0.447912389321     0.087920138963    14.003074004430
         C            3.718645293231    -0.965935610679     0.435521138963    12.000000000000
         C            3.571264293231     0.154337389321    -0.594800861037    12.000000000000
         C            2.370598293231    -1.632992610679     0.712117138963    12.000000000000
         C            2.501244293231     1.152740389321    -0.162861861037    12.000000000000
         C            1.328517293231    -0.590973610679     1.108804138963    12.000000000000
         C            0.089769293231     0.913880389321    -0.481508861037    12.000000000000
         C           -1.143781706769     0.087099389321    -0.266350861037    12.000000000000
         C           -2.098813306769     0.664658389321     0.358575238963    12.000000000000
         C           -1.225235706769    -1.186621610679    -0.842305861037    12.000000000000
         C           -3.408375706769    -0.130323610679     0.516207138963    12.000000000000
         C           -2.169539706769     2.021899389321     1.009219138963    12.000000000000
         C           -2.399606706769    -1.933152610679    -0.739277861037    12.000000000000
         C           -3.493418706769    -1.402453610679    -0.054644861037    12.000000000000
         H            4.450139293231    -1.707778610679     0.095422138963     1.007825032230
         H            4.108047293231    -0.544243610679     1.372512138963     1.007825032230
         H            4.524867293231     0.677010389321    -0.737063861037     1.007825032230
         H            3.282806293231    -0.267896610679    -1.565114861037     1.007825032230
         H            2.020239293231    -2.154764610679    -0.186985861037     1.007825032230
         H            2.463789293231    -2.380148610679     1.509749138963     1.007825032230
         H            2.813918293231     1.669831389321     0.757425138963     1.007825032230
         H            2.304232293231     1.907103389321    -0.925781861037     1.007825032230
         H            0.343997293231    -1.039294610679     1.245315138963     1.007825032230
         H            1.620458293231    -0.123475610679     2.062906138963     1.007825032230
         H           -0.366132706769    -1.584997610679    -1.379776861037     1.007825032230
         H           -4.267324706769     0.277938389321     1.046345138963     1.007825032230
         H           -1.988286706769     2.766582389321     0.230439138963     1.007825032230
         H           -3.099816706769     2.267680389321     1.528480138963     1.007825032230
         H           -1.347432706769     2.098707389321     1.728969138963     1.007825032230
         H           -2.460667706769    -2.919121610679    -1.193811861037     1.007825032230
         H           -4.412881706769    -1.976216610679     0.035534138963     1.007825032230

  Basis Set: AUG-CC-PVTZ
    Blend: AUG-CC-PVTZ
  Basis Set: (AUG-CC-PVTZ AUX)
    Blend: AUG-CC-PVTZ-JKFIT
	 Reference Energy          =    -631.7016761620395755 [Eh]
	 Singles Energy            =      -0.0000000000000000 [Eh]
	 Same-Spin Energy          =      -0.6882761436448090 [Eh]
	 Opposite-Spin Energy      =      -2.2131282500416249 [Eh]
	 Correlation Energy        =      -2.9014043936864340 [Eh]
	 Total Energy              =    -634.6030805557260237 [Eh]

	 ================> DF-SCS-MP2 Energies <==================
	-----------------------------------------------------------
	 SCS Same-Spin Scale       =       0.3333333333333333 [-]
	 SCS Opposite-Spin Scale   =       1.2000000000000000 [-]
	 SCS Same-Spin Energy      =      -0.2294253812149363 [Eh]
	 SCS Opposite-Spin Energy  =      -2.6557539000499499 [Eh]
	 SCS Correlation Energy    =      -2.8851792812648864 [Eh]
	 SCS Total Energy          =    -634.5868554433044437 [Eh]
	-----------------------------------------------------------

  Dipole Moment: [D]
     X:     1.3444      Y:    -2.4981      Z:     2.3305     Total:     3.6714

*** Psi4 exiting successfully. Buy a developer a beer!
