                               Psi4 1.4a3.dev225

  ==> Input File <==

--------------------------------------------------------------------------
#psi4
#
memory 32 gb

molecule  {
0 1
  O        0.0109280     1.9504830    -1.2088660
  N        1.2104930     0.4628600     0.0596820
  C        3.6816010    -0.9509880     0.4072830
  C        3.5342200     0.1692850    -0.6230390
  C        2.3777785    -1.7108242     0.6550669
  C        2.4642000     1.1676880    -0.1911000
  C        1.2914730    -0.5760260     1.0805660
  C        0.0527250     0.9288280    -0.5097470
  C       -1.1808260     0.1020470    -0.2945890
  C       -2.2823960     0.6556420     0.3835130
  C       -1.2622800    -1.1716740    -0.8705440
  C       -3.4454200    -0.1153760     0.4879690
  C       -2.2065840     2.0368470     0.9809810
  C       -2.4366510    -1.9182050    -0.7675160
  C       -3.5304630    -1.3875060    -0.0828830
  H        4.4130950    -1.6928310     0.0671840
  H        4.0710030    -0.5292960     1.3442740
  H        4.4878230     0.6919580    -0.7653020
  H        3.2457620    -0.2529490    -1.5933530
  H        1.9831950    -2.1398170    -0.2152240
  H        2.4267450    -2.3652010     1.4815110
  H        2.7768740     1.6847790     0.7291870
  H        2.2671880     1.9220510    -0.9540200
  H        0.3069530    -1.0243470     1.2170770
  H        1.5834140    -0.1085280     2.0346680
  H       -0.4031770    -1.5700500    -1.4080150
  H       -4.3043690     0.2928860     1.0181070
  H       -2.0253310     2.7815300     0.2022010
  H       -3.1368610     2.2826280     1.5002420
  H       -1.3844770     2.1136550     1.7007310
  H       -2.4977120    -2.9041740    -1.2220500
  H       -4.4499260    -1.9612690     0.0072960
units angstrom
no_reorient  #important for SAPT in psi4, default
symmetry c1  #important for SAPT in psi4, default
}

set PROPERTIES_ORIGIN ["COM"]
properties('MP2/aug-cc-pvtz', properties = ['dipole'])
--------------------------------------------------------------------------

    Molecular point group: c1
  Charge       = 0
  Multiplicity = 1
  Basis Set: AUG-CC-PVTZ
    Blend: AUG-CC-PVTZ
  Basis Set: (AUG-CC-PVTZ AUX)
    Blend: AUG-CC-PVTZ-JKFIT

    Orbital Energies [Eh]
    ---------------------

    Doubly Occupied:

       1A    -20.510542     2A    -15.584208     3A    -11.349146
       4A    -11.268968     5A    -11.254358     6A    -11.251580
       7A    -11.246226     8A    -11.244855     9A    -11.242440
      10A    -11.239021    11A    -11.236796    12A    -11.228903
      13A    -11.228279    14A    -11.226598    15A    -11.220099
      16A     -1.366646    17A     -1.246792    18A     -1.161168
      19A     -1.081291    20A     -1.050515    21A     -1.034273
      22A     -1.018178    23A     -0.942239    24A     -0.916105
      25A     -0.871937    26A     -0.845082    27A     -0.815664
      28A     -0.792372    29A     -0.741870    30A     -0.710711
      31A     -0.665611    32A     -0.652373    33A     -0.646376
      34A     -0.630558    35A     -0.621692    36A     -0.614840
      37A     -0.599170    38A     -0.586978    39A     -0.575531
      40A     -0.572261    41A     -0.559120    42A     -0.543812
      43A     -0.541008    44A     -0.523705    45A     -0.508034
      46A     -0.504821    47A     -0.491969    48A     -0.489259
      49A     -0.480185    50A     -0.469358    51A     -0.459857
      52A     -0.416450    53A     -0.360957    54A     -0.339663
      55A     -0.329760

  @DF-RHF Final Energy:  -631.72118531949980

   => Energetics <=

    Nuclear Repulsion Energy =            998.1336393333220940
    One-Electron Energy =               -2839.4892229800857422
    Two-Electron Energy =                1209.6343983272638525
    Total Energy =                       -631.7211853194996820
  Basis Set: (AUG-CC-PVTZ AUX)
    Blend: AUG-CC-PVTZ-RI
    Molecular point group: c1

    Geometry (in Angstrom), charge = 0, multiplicity = 1:

       Center              X                  Y                   Z               Mass
    ------------   -----------------  -----------------  -----------------  -----------------
         O            0.054016504673     1.942432014170    -1.182067156760    15.994914619570
         N            1.253581504673     0.454809014170     0.086480843240    14.003074004430
         C            3.724689504673    -0.959038985830     0.434081843240    12.000000000000
         C            3.577308504673     0.161234014170    -0.596240156760    12.000000000000
         C            2.420867004673    -1.718875185830     0.681865743240    12.000000000000
         C            2.507288504673     1.159637014170    -0.164301156760    12.000000000000
         C            1.334561504673    -0.584076985830     1.107364843240    12.000000000000
         C            0.095813504673     0.920777014170    -0.482948156760    12.000000000000
         C           -1.137737495327     0.093996014170    -0.267790156760    12.000000000000
         C           -2.239307495327     0.647591014170     0.410311843240    12.000000000000
         C           -1.219191495327    -1.179724985830    -0.843745156760    12.000000000000
         C           -3.402331495327    -0.123426985830     0.514767843240    12.000000000000
         C           -2.163495495327     2.028796014170     1.007779843240    12.000000000000
         C           -2.393562495327    -1.926255985830    -0.740717156760    12.000000000000
         C           -3.487374495327    -1.395556985830    -0.056084156760    12.000000000000
         H            4.456183504673    -1.700881985830     0.093982843240     1.007825032230
         H            4.114091504673    -0.537346985830     1.371072843240     1.007825032230
         H            4.530911504673     0.683907014170    -0.738503156760     1.007825032230
         H            3.288850504673    -0.260999985830    -1.566554156760     1.007825032230
         H            2.026283504673    -2.147867985830    -0.188425156760     1.007825032230
         H            2.469833504673    -2.373251985830     1.508309843240     1.007825032230
         H            2.819962504673     1.676728014170     0.755985843240     1.007825032230
         H            2.310276504673     1.914000014170    -0.927221156760     1.007825032230
         H            0.350041504673    -1.032397985830     1.243875843240     1.007825032230
         H            1.626502504673    -0.116578985830     2.061466843240     1.007825032230
         H           -0.360088495327    -1.578100985830    -1.381216156760     1.007825032230
         H           -4.261280495327     0.284835014170     1.044905843240     1.007825032230
         H           -1.982242495327     2.773479014170     0.228999843240     1.007825032230
         H           -3.093772495327     2.274577014170     1.527040843240     1.007825032230
         H           -1.341388495327     2.105604014170     1.727529843240     1.007825032230
         H           -2.454623495327    -2.912224985830    -1.195251156760     1.007825032230
         H           -4.406837495327    -1.969319985830     0.034094843240     1.007825032230

  Basis Set: AUG-CC-PVTZ
    Blend: AUG-CC-PVTZ
  Basis Set: (AUG-CC-PVTZ AUX)
    Blend: AUG-CC-PVTZ-JKFIT
	 Reference Energy          =    -631.7211853194997957 [Eh]
	 Singles Energy            =      -0.0000000000000000 [Eh]
	 Same-Spin Energy          =      -0.6888464546977453 [Eh]
	 Opposite-Spin Energy      =      -2.2126241954360464 [Eh]
	 Correlation Energy        =      -2.9014706501337919 [Eh]
	 Total Energy              =    -634.6226559696335698 [Eh]

	 ================> DF-SCS-MP2 Energies <==================
	-----------------------------------------------------------
	 SCS Same-Spin Scale       =       0.3333333333333333 [-]
	 SCS Opposite-Spin Scale   =       1.2000000000000000 [-]
	 SCS Same-Spin Energy      =      -0.2296154848992484 [Eh]
	 SCS Opposite-Spin Energy  =      -2.6551490345232556 [Eh]
	 SCS Correlation Energy    =      -2.8847645194225038 [Eh]
	 SCS Total Energy          =    -634.6059498389222426 [Eh]
	-----------------------------------------------------------

  Dipole Moment: [D]
     X:     1.4069      Y:    -2.5202      Z:     2.2974     Total:     3.6890

*** Psi4 exiting successfully. Buy a developer a beer!
