                               Psi4 1.4a3.dev225

  ==> Input File <==

--------------------------------------------------------------------------
#psi4
#
memory 32 gb

molecule  {
0 1
  O        0.0109280     1.9504830    -1.2088660
  N        1.2104930     0.4628600     0.0596820
  C        3.6816010    -0.9509880     0.4072830
  C        3.5342200     0.1692850    -0.6230390
  C        2.3335540    -1.6180450     0.6838790
  C        2.4642000     1.1676880    -0.1911000
  C        1.2925832    -0.5902692     1.0945624
  C        0.0527250     0.9288280    -0.5097470
  C       -1.1808260     0.1020470    -0.2945890
  C       -2.2823960     0.6556420     0.3835130
  C       -1.2622800    -1.1716740    -0.8705440
  C       -3.4454200    -0.1153760     0.4879690
  C       -2.2065840     2.0368470     0.9809810
  C       -2.4366510    -1.9182050    -0.7675160
  C       -3.5304630    -1.3875060    -0.0828830
  H        4.4130950    -1.6928310     0.0671840
  H        4.0710030    -0.5292960     1.3442740
  H        4.4878230     0.6919580    -0.7653020
  H        3.2457620    -0.2529490    -1.5933530
  H        1.9831950    -2.1398170    -0.2152240
  H        2.4267450    -2.3652010     1.4815110
  H        2.7768740     1.6847790     0.7291870
  H        2.2671880     1.9220510    -0.9540200
  H        0.3069530    -1.0243470     1.2170770
  H        1.5834140    -0.1085280     2.0346680
  H       -0.4031770    -1.5700500    -1.4080150
  H       -4.3043690     0.2928860     1.0181070
  H       -2.0253310     2.7815300     0.2022010
  H       -3.1368610     2.2826280     1.5002420
  H       -1.3844770     2.1136550     1.7007310
  H       -2.4977120    -2.9041740    -1.2220500
  H       -4.4499260    -1.9612690     0.0072960
units angstrom
no_reorient  #important for SAPT in psi4, default
symmetry c1  #important for SAPT in psi4, default
}

set PROPERTIES_ORIGIN ["COM"]
properties('MP2/aug-cc-pvtz', properties = ['dipole'])
--------------------------------------------------------------------------

    Molecular point group: c1
  Charge       = 0
  Multiplicity = 1
  Basis Set: AUG-CC-PVTZ
    Blend: AUG-CC-PVTZ
  Basis Set: (AUG-CC-PVTZ AUX)
    Blend: AUG-CC-PVTZ-JKFIT

    Orbital Energies [Eh]
    ---------------------

    Doubly Occupied:

       1A    -20.509867     2A    -15.583122     3A    -11.348587
       4A    -11.267652     5A    -11.254114     6A    -11.251679
       7A    -11.246155     8A    -11.244776     9A    -11.242529
      10A    -11.239035    11A    -11.236866    12A    -11.231012
      13A    -11.228761    14A    -11.225526    15A    -11.220169
      16A     -1.365840    17A     -1.245607    18A     -1.161240
      19A     -1.083821    20A     -1.050680    21A     -1.037747
      22A     -1.023143    23A     -0.942933    24A     -0.918837
      25A     -0.867162    26A     -0.843529    27A     -0.814897
      28A     -0.790718    29A     -0.742033    30A     -0.711495
      31A     -0.666716    32A     -0.652521    33A     -0.647677
      34A     -0.628207    35A     -0.620477    36A     -0.614639
      37A     -0.596450    38A     -0.588285    39A     -0.575432
      40A     -0.571523    41A     -0.558949    42A     -0.548104
      43A     -0.541163    44A     -0.525119    45A     -0.508537
      46A     -0.502597    47A     -0.491388    48A     -0.489404
      49A     -0.478739    50A     -0.470479    51A     -0.460535
      52A     -0.416258    53A     -0.366307    54A     -0.339959
      55A     -0.329863

  @DF-RHF Final Energy:  -631.73035220808492

   => Energetics <=

    Nuclear Repulsion Energy =            999.6101615188028973
    One-Electron Energy =               -2842.4433126820431426
    Two-Electron Energy =                1211.1027989551553219
    Total Energy =                       -631.7303522080849234
  Basis Set: (AUG-CC-PVTZ AUX)
    Blend: AUG-CC-PVTZ-RI
    Molecular point group: c1

    Geometry (in Angstrom), charge = 0, multiplicity = 1:

       Center              X                  Y                   Z               Mass
    ------------   -----------------  -----------------  -----------------  -----------------
         O            0.056563489446     1.937792486308    -1.184596076345    15.994914619570
         N            1.256128489446     0.450169486308     0.083951923655    14.003074004430
         C            3.727236489446    -0.963678513692     0.431552923655    12.000000000000
         C            3.579855489446     0.156594486308    -0.598769076345    12.000000000000
         C            2.379189489446    -1.630735513692     0.708148923655    12.000000000000
         C            2.509835489446     1.154997486308    -0.166830076345    12.000000000000
         C            1.338218689446    -0.602959713692     1.118832323655    12.000000000000
         C            0.098360489446     0.916137486308    -0.485477076345    12.000000000000
         C           -1.135190510554     0.089356486308    -0.270319076345    12.000000000000
         C           -2.236760510554     0.642951486308     0.407782923655    12.000000000000
         C           -1.216644510554    -1.184364513692    -0.846274076345    12.000000000000
         C           -3.399784510554    -0.128066513692     0.512238923655    12.000000000000
         C           -2.160948510554     2.024156486308     1.005250923655    12.000000000000
         C           -2.391015510554    -1.930895513692    -0.743246076345    12.000000000000
         C           -3.484827510554    -1.400196513692    -0.058613076345    12.000000000000
         H            4.458730489446    -1.705521513692     0.091453923655     1.007825032230
         H            4.116638489446    -0.541986513692     1.368543923655     1.007825032230
         H            4.533458489446     0.679267486308    -0.741032076345     1.007825032230
         H            3.291397489446    -0.265639513692    -1.569083076345     1.007825032230
         H            2.028830489446    -2.152507513692    -0.190954076345     1.007825032230
         H            2.472380489446    -2.377891513692     1.505780923655     1.007825032230
         H            2.822509489446     1.672088486308     0.753456923655     1.007825032230
         H            2.312823489446     1.909360486308    -0.929750076345     1.007825032230
         H            0.352588489446    -1.037037513692     1.241346923655     1.007825032230
         H            1.629049489446    -0.121218513692     2.058937923655     1.007825032230
         H           -0.357541510554    -1.582740513692    -1.383745076345     1.007825032230
         H           -4.258733510554     0.280195486308     1.042376923655     1.007825032230
         H           -1.979695510554     2.768839486308     0.226470923655     1.007825032230
         H           -3.091225510554     2.269937486308     1.524511923655     1.007825032230
         H           -1.338841510554     2.100964486308     1.725000923655     1.007825032230
         H           -2.452076510554    -2.916864513692    -1.197780076345     1.007825032230
         H           -4.404290510554    -1.973959513692     0.031565923655     1.007825032230

  Basis Set: AUG-CC-PVTZ
    Blend: AUG-CC-PVTZ
  Basis Set: (AUG-CC-PVTZ AUX)
    Blend: AUG-CC-PVTZ-JKFIT
	 Reference Energy          =    -631.7303522080849234 [Eh]
	 Singles Energy            =      -0.0000000000000000 [Eh]
	 Same-Spin Energy          =      -0.6889271419795413 [Eh]
	 Opposite-Spin Energy      =      -2.2122703227562077 [Eh]
	 Correlation Energy        =      -2.9011974647357492 [Eh]
	 Total Energy              =    -634.6315496728207108 [Eh]

	 ================> DF-SCS-MP2 Energies <==================
	-----------------------------------------------------------
	 SCS Same-Spin Scale       =       0.3333333333333333 [-]
	 SCS Opposite-Spin Scale   =       1.2000000000000000 [-]
	 SCS Same-Spin Energy      =      -0.2296423806598471 [Eh]
	 SCS Opposite-Spin Energy  =      -2.6547243873074491 [Eh]
	 SCS Correlation Energy    =      -2.8843667679672960 [Eh]
	 SCS Total Energy          =    -634.6147189760522451 [Eh]
	-----------------------------------------------------------

  Dipole Moment: [D]
     X:     1.4312      Y:    -2.5539      Z:     2.3429     Total:     3.7496

*** Psi4 exiting successfully. Buy a developer a beer!
