                               Psi4 1.4a3.dev225

  ==> Input File <==

--------------------------------------------------------------------------
#psi4
#
memory 32 gb

molecule  {
0 1
  O        0.0109280     1.9504830    -1.2088660
  N        1.2104930     0.4628600     0.0596820
  C        3.6816010    -0.9509880     0.4072830
  C        3.5342200     0.1692850    -0.6230390
  C        2.3335540    -1.6180450     0.6838790
  C        2.4642000     1.1676880    -0.1911000
  C        1.2914730    -0.5760260     1.0805660
  C        0.0527250     0.9288280    -0.5097470
  C       -1.1808260     0.1020470    -0.2945890
  C       -2.2823960     0.6556420     0.3835130
  C       -1.2622800    -1.1716740    -0.8705440
  C       -3.3623045    -0.0602752     0.4805041
  C       -2.2065840     2.0368470     0.9809810
  C       -2.4366510    -1.9182050    -0.7675160
  C       -3.5304630    -1.3875060    -0.0828830
  H        4.4130950    -1.6928310     0.0671840
  H        4.0710030    -0.5292960     1.3442740
  H        4.4878230     0.6919580    -0.7653020
  H        3.2457620    -0.2529490    -1.5933530
  H        1.9831950    -2.1398170    -0.2152240
  H        2.4267450    -2.3652010     1.4815110
  H        2.7768740     1.6847790     0.7291870
  H        2.2671880     1.9220510    -0.9540200
  H        0.3069530    -1.0243470     1.2170770
  H        1.5834140    -0.1085280     2.0346680
  H       -0.4031770    -1.5700500    -1.4080150
  H       -4.3043690     0.2928860     1.0181070
  H       -2.0253310     2.7815300     0.2022010
  H       -3.1368610     2.2826280     1.5002420
  H       -1.3844770     2.1136550     1.7007310
  H       -2.4977120    -2.9041740    -1.2220500
  H       -4.4499260    -1.9612690     0.0072960
units angstrom
no_reorient  #important for SAPT in psi4, default
symmetry c1  #important for SAPT in psi4, default
}

set PROPERTIES_ORIGIN ["COM"]
properties('MP2/aug-cc-pvtz', properties = ['dipole'])
--------------------------------------------------------------------------

    Molecular point group: c1
  Charge       = 0
  Multiplicity = 1
  Basis Set: AUG-CC-PVTZ
    Blend: AUG-CC-PVTZ
  Basis Set: (AUG-CC-PVTZ AUX)
    Blend: AUG-CC-PVTZ-JKFIT

    Orbital Energies [Eh]
    ---------------------

    Doubly Occupied:

       1A    -20.510995     2A    -15.584096     3A    -11.349748
       4A    -11.267094     5A    -11.254723     6A    -11.247808
       7A    -11.247587     8A    -11.245446     9A    -11.239807
      10A    -11.238359    11A    -11.234357    12A    -11.230769
      13A    -11.228425    14A    -11.225778    15A    -11.218683
      16A     -1.367245    17A     -1.249740    18A     -1.168943
      19A     -1.083640    20A     -1.057297    21A     -1.036474
      22A     -1.019787    23A     -0.941314    24A     -0.921167
      25A     -0.869554    26A     -0.848891    27A     -0.810253
      28A     -0.792298    29A     -0.742842    30A     -0.711169
      31A     -0.667977    32A     -0.653749    33A     -0.649462
      34A     -0.628045    35A     -0.617161    36A     -0.615070
      37A     -0.591698    38A     -0.588093    39A     -0.577571
      40A     -0.573467    41A     -0.561228    42A     -0.548418
      43A     -0.537124    44A     -0.524617    45A     -0.517672
      46A     -0.502110    47A     -0.492243    48A     -0.480955
      49A     -0.471953    50A     -0.469413    51A     -0.461675
      52A     -0.417785    53A     -0.366368    54A     -0.347630
      55A     -0.329371

  @DF-RHF Final Energy:  -631.71713421548918

   => Energetics <=

    Nuclear Repulsion Energy =           1001.6782811742602917
    One-Electron Energy =               -2846.5205536237976958
    Two-Electron Energy =                1213.1251382340483360
    Total Energy =                       -631.7171342154890681
  Basis Set: (AUG-CC-PVTZ AUX)
    Blend: AUG-CC-PVTZ-RI
    Molecular point group: c1

    Geometry (in Angstrom), charge = 0, multiplicity = 1:

       Center              X                  Y                   Z               Mass
    ------------   -----------------  -----------------  -----------------  -----------------
         O            0.051719012082     1.933695977444    -1.183328246314    15.994914619570
         N            1.251284012082     0.446072977444     0.085219753686    14.003074004430
         C            3.722392012082    -0.967775022556     0.432820753686    12.000000000000
         C            3.575011012082     0.152497977444    -0.597501246314    12.000000000000
         C            2.374345012082    -1.634832022556     0.709416753686    12.000000000000
         C            2.504991012082     1.150900977444    -0.165562246314    12.000000000000
         C            1.332264012082    -0.592813022556     1.106103753686    12.000000000000
         C            0.093516012082     0.912040977444    -0.484209246314    12.000000000000
         C           -1.140034987918     0.085259977444    -0.269051246314    12.000000000000
         C           -2.241604987918     0.638854977444     0.409050753686    12.000000000000
         C           -1.221488987918    -1.188461022556    -0.845006246314    12.000000000000
         C           -3.321513487918    -0.077062222556     0.506041853686    12.000000000000
         C           -2.165792987918     2.020059977444     1.006518753686    12.000000000000
         C           -2.395859987918    -1.934992022556    -0.741978246314    12.000000000000
         C           -3.489671987918    -1.404293022556    -0.057345246314    12.000000000000
         H            4.453886012082    -1.709618022556     0.092721753686     1.007825032230
         H            4.111794012082    -0.546083022556     1.369811753686     1.007825032230
         H            4.528614012082     0.675170977444    -0.739764246314     1.007825032230
         H            3.286553012082    -0.269736022556    -1.567815246314     1.007825032230
         H            2.023986012082    -2.156604022556    -0.189686246314     1.007825032230
         H            2.467536012082    -2.381988022556     1.507048753686     1.007825032230
         H            2.817665012082     1.667991977444     0.754724753686     1.007825032230
         H            2.307979012082     1.905263977444    -0.928482246314     1.007825032230
         H            0.347744012082    -1.041134022556     1.242614753686     1.007825032230
         H            1.624205012082    -0.125315022556     2.060205753686     1.007825032230
         H           -0.362385987918    -1.586837022556    -1.382477246314     1.007825032230
         H           -4.263577987918     0.276098977444     1.043644753686     1.007825032230
         H           -1.984539987918     2.764742977444     0.227738753686     1.007825032230
         H           -3.096069987918     2.265840977444     1.525779753686     1.007825032230
         H           -1.343685987918     2.096867977444     1.726268753686     1.007825032230
         H           -2.456920987918    -2.920961022556    -1.196512246314     1.007825032230
         H           -4.409134987918    -1.978056022556     0.032833753686     1.007825032230

  Basis Set: AUG-CC-PVTZ
    Blend: AUG-CC-PVTZ
  Basis Set: (AUG-CC-PVTZ AUX)
    Blend: AUG-CC-PVTZ-JKFIT
	 Reference Energy          =    -631.7171342154891818 [Eh]
	 Singles Energy            =      -0.0000000000000000 [Eh]
	 Same-Spin Energy          =      -0.6889322558603275 [Eh]
	 Opposite-Spin Energy      =      -2.2128721466183503 [Eh]
	 Correlation Energy        =      -2.9018044024786778 [Eh]
	 Total Energy              =    -634.6189386179678422 [Eh]

	 ================> DF-SCS-MP2 Energies <==================
	-----------------------------------------------------------
	 SCS Same-Spin Scale       =       0.3333333333333333 [-]
	 SCS Opposite-Spin Scale   =       1.2000000000000000 [-]
	 SCS Same-Spin Energy      =      -0.2296440852867758 [Eh]
	 SCS Opposite-Spin Energy  =      -2.6554465759420203 [Eh]
	 SCS Correlation Energy    =      -2.8850906612287961 [Eh]
	 SCS Total Energy          =    -634.6022248767179690 [Eh]
	-----------------------------------------------------------

  Dipole Moment: [D]
     X:     1.4306      Y:    -2.5896      Z:     2.2632     Total:     3.7249

*** Psi4 exiting successfully. Buy a developer a beer!
