                               Psi4 1.4a3.dev225

  ==> Input File <==

--------------------------------------------------------------------------
#psi4
#
memory 32 gb

molecule  {
0 1
  O        0.0109280     1.9504830    -1.2088660
  N        1.1745744     0.4860158     0.0873652
  C        3.6816010    -0.9509880     0.4072830
  C        3.5342200     0.1692850    -0.6230390
  C        2.3335540    -1.6180450     0.6838790
  C        2.4642000     1.1676880    -0.1911000
  C        1.2914730    -0.5760260     1.0805660
  C        0.0527250     0.9288280    -0.5097470
  C       -1.1808260     0.1020470    -0.2945890
  C       -2.2823960     0.6556420     0.3835130
  C       -1.2622800    -1.1716740    -0.8705440
  C       -3.4454200    -0.1153760     0.4879690
  C       -2.2065840     2.0368470     0.9809810
  C       -2.4366510    -1.9182050    -0.7675160
  C       -3.5304630    -1.3875060    -0.0828830
  H        4.4130950    -1.6928310     0.0671840
  H        4.0710030    -0.5292960     1.3442740
  H        4.4878230     0.6919580    -0.7653020
  H        3.2457620    -0.2529490    -1.5933530
  H        1.9831950    -2.1398170    -0.2152240
  H        2.4267450    -2.3652010     1.4815110
  H        2.7768740     1.6847790     0.7291870
  H        2.2671880     1.9220510    -0.9540200
  H        0.3069530    -1.0243470     1.2170770
  H        1.5834140    -0.1085280     2.0346680
  H       -0.4031770    -1.5700500    -1.4080150
  H       -4.3043690     0.2928860     1.0181070
  H       -2.0253310     2.7815300     0.2022010
  H       -3.1368610     2.2826280     1.5002420
  H       -1.3844770     2.1136550     1.7007310
  H       -2.4977120    -2.9041740    -1.2220500
  H       -4.4499260    -1.9612690     0.0072960
units angstrom
no_reorient  #important for SAPT in psi4, default
symmetry c1  #important for SAPT in psi4, default
}

set PROPERTIES_ORIGIN ["COM"]
properties('MP2/aug-cc-pvtz', properties = ['dipole'])
--------------------------------------------------------------------------

    Molecular point group: c1
  Charge       = 0
  Multiplicity = 1
  Basis Set: AUG-CC-PVTZ
    Blend: AUG-CC-PVTZ
  Basis Set: (AUG-CC-PVTZ AUX)
    Blend: AUG-CC-PVTZ-JKFIT

    Orbital Energies [Eh]
    ---------------------

    Doubly Occupied:

       1A    -20.505620     2A    -15.585845     3A    -11.345242
       4A    -11.268621     5A    -11.257844     6A    -11.250506
       7A    -11.245138     8A    -11.243306     9A    -11.241580
      10A    -11.238298    11A    -11.236034    12A    -11.232939
      13A    -11.230005    14A    -11.228508    15A    -11.219150
      16A     -1.365955    17A     -1.249299    18A     -1.160203
      19A     -1.087586    20A     -1.049656    21A     -1.036133
      22A     -1.023116    23A     -0.943782    24A     -0.922628
      25A     -0.868153    26A     -0.843973    27A     -0.815310
      28A     -0.792797    29A     -0.740433    30A     -0.711443
      31A     -0.665566    32A     -0.652888    33A     -0.648696
      34A     -0.628622    35A     -0.621061    36A     -0.615452
      37A     -0.596798    38A     -0.589691    39A     -0.574730
      40A     -0.571151    41A     -0.556915    42A     -0.548918
      43A     -0.540856    44A     -0.524652    45A     -0.507949
      46A     -0.501821    47A     -0.490416    48A     -0.489457
      49A     -0.479140    50A     -0.471442    51A     -0.462789
      52A     -0.414104    53A     -0.368062    54A     -0.338999
      55A     -0.328849

  @DF-RHF Final Energy:  -631.73028965169294

   => Energetics <=

    Nuclear Repulsion Energy =           1000.0450327397772980
    One-Electron Energy =               -2843.2943876771196301
    Two-Electron Energy =                1211.5190652856492761
    Total Energy =                       -631.7302896516930559
  Basis Set: (AUG-CC-PVTZ AUX)
    Blend: AUG-CC-PVTZ-RI
    Molecular point group: c1

    Geometry (in Angstrom), charge = 0, multiplicity = 1:

       Center              X                  Y                   Z               Mass
    ------------   -----------------  -----------------  -----------------  -----------------
         O            0.059105165398     1.935354794638    -1.185677610345    15.994914619570
         N            1.222751565398     0.470887594638     0.110553589655    14.003074004430
         C            3.729778165398    -0.966116205362     0.430471389655    12.000000000000
         C            3.582397165398     0.154156794638    -0.599850610345    12.000000000000
         C            2.381731165398    -1.633173205362     0.707067389655    12.000000000000
         C            2.512377165398     1.152559794638    -0.167911610345    12.000000000000
         C            1.339650165398    -0.591154205362     1.103754389655    12.000000000000
         C            0.100902165398     0.913699794638    -0.486558610345    12.000000000000
         C           -1.132648834602     0.086918794638    -0.271400610345    12.000000000000
         C           -2.234218834602     0.640513794638     0.406701389655    12.000000000000
         C           -1.214102834602    -1.186802205362    -0.847355610345    12.000000000000
         C           -3.397242834602    -0.130504205362     0.511157389655    12.000000000000
         C           -2.158406834602     2.021718794638     1.004169389655    12.000000000000
         C           -2.388473834602    -1.933333205362    -0.744327610345    12.000000000000
         C           -3.482285834602    -1.402634205362    -0.059694610345    12.000000000000
         H            4.461272165398    -1.707959205362     0.090372389655     1.007825032230
         H            4.119180165398    -0.544424205362     1.367462389655     1.007825032230
         H            4.536000165398     0.676829794638    -0.742113610345     1.007825032230
         H            3.293939165398    -0.268077205362    -1.570164610345     1.007825032230
         H            2.031372165398    -2.154945205362    -0.192035610345     1.007825032230
         H            2.474922165398    -2.380329205362     1.504699389655     1.007825032230
         H            2.825051165398     1.669650794638     0.752375389655     1.007825032230
         H            2.315365165398     1.906922794638    -0.930831610345     1.007825032230
         H            0.355130165398    -1.039475205362     1.240265389655     1.007825032230
         H            1.631591165398    -0.123656205362     2.057856389655     1.007825032230
         H           -0.354999834602    -1.585178205362    -1.384826610345     1.007825032230
         H           -4.256191834602     0.277757794638     1.041295389655     1.007825032230
         H           -1.977153834602     2.766401794638     0.225389389655     1.007825032230
         H           -3.088683834602     2.267499794638     1.523430389655     1.007825032230
         H           -1.336299834602     2.098526794638     1.723919389655     1.007825032230
         H           -2.449534834602    -2.919302205362    -1.198861610345     1.007825032230
         H           -4.401748834602    -1.976397205362     0.030484389655     1.007825032230

  Basis Set: AUG-CC-PVTZ
    Blend: AUG-CC-PVTZ
  Basis Set: (AUG-CC-PVTZ AUX)
    Blend: AUG-CC-PVTZ-JKFIT
	 Reference Energy          =    -631.7302896516929422 [Eh]
	 Singles Energy            =      -0.0000000000000000 [Eh]
	 Same-Spin Energy          =      -0.6887728794965990 [Eh]
	 Opposite-Spin Energy      =      -2.2118431920391628 [Eh]
	 Correlation Energy        =      -2.9006160715357616 [Eh]
	 Total Energy              =    -634.6309057232286932 [Eh]

	 ================> DF-SCS-MP2 Energies <==================
	-----------------------------------------------------------
	 SCS Same-Spin Scale       =       0.3333333333333333 [-]
	 SCS Opposite-Spin Scale   =       1.2000000000000000 [-]
	 SCS Same-Spin Energy      =      -0.2295909598321997 [Eh]
	 SCS Opposite-Spin Energy  =      -2.6542118304469953 [Eh]
	 SCS Correlation Energy    =      -2.8838027902791947 [Eh]
	 SCS Total Energy          =    -634.6140924419721614 [Eh]
	-----------------------------------------------------------

  Dipole Moment: [D]
     X:     1.6355      Y:    -2.6142      Z:     2.3386     Total:     3.8701

*** Psi4 exiting successfully. Buy a developer a beer!
