                               Psi4 1.4a3.dev225

  ==> Input File <==

--------------------------------------------------------------------------
#psi4
#
memory 32 gb

molecule  {
0 1
  O        0.0109280     1.9504830    -1.2088660
  N        1.2104930     0.4628600     0.0596820
  C        3.6816010    -0.9509880     0.4072830
  C        3.5342200     0.1692850    -0.6230390
  C        2.3159242    -1.6267688     0.6874963
  C        2.4642000     1.1676880    -0.1911000
  C        1.2914730    -0.5760260     1.0805660
  C        0.0527250     0.9288280    -0.5097470
  C       -1.1808260     0.1020470    -0.2945890
  C       -2.2823960     0.6556420     0.3835130
  C       -1.2622800    -1.1716740    -0.8705440
  C       -3.4454200    -0.1153760     0.4879690
  C       -2.2065840     2.0368470     0.9809810
  C       -2.4366510    -1.9182050    -0.7675160
  C       -3.5304630    -1.3875060    -0.0828830
  H        4.4130950    -1.6928310     0.0671840
  H        4.0710030    -0.5292960     1.3442740
  H        4.4878230     0.6919580    -0.7653020
  H        3.2457620    -0.2529490    -1.5933530
  H        1.9831950    -2.1398170    -0.2152240
  H        2.4267450    -2.3652010     1.4815110
  H        2.7768740     1.6847790     0.7291870
  H        2.2671880     1.9220510    -0.9540200
  H        0.3069530    -1.0243470     1.2170770
  H        1.5834140    -0.1085280     2.0346680
  H       -0.4031770    -1.5700500    -1.4080150
  H       -4.3043690     0.2928860     1.0181070
  H       -2.0253310     2.7815300     0.2022010
  H       -3.1368610     2.2826280     1.5002420
  H       -1.3844770     2.1136550     1.7007310
  H       -2.4977120    -2.9041740    -1.2220500
  H       -4.4499260    -1.9612690     0.0072960
units angstrom
no_reorient  #important for SAPT in psi4, default
symmetry c1  #important for SAPT in psi4, default
}

set PROPERTIES_ORIGIN ["COM"]
properties('MP2/aug-cc-pvtz', properties = ['dipole'])
--------------------------------------------------------------------------

    Molecular point group: c1
  Charge       = 0
  Multiplicity = 1
  Basis Set: AUG-CC-PVTZ
    Blend: AUG-CC-PVTZ
  Basis Set: (AUG-CC-PVTZ AUX)
    Blend: AUG-CC-PVTZ-JKFIT

    Orbital Energies [Eh]
    ---------------------

    Doubly Occupied:

       1A    -20.510872     2A    -15.584043     3A    -11.349566
       4A    -11.266768     5A    -11.254542     6A    -11.251824
       7A    -11.246337     8A    -11.245018     9A    -11.242627
      10A    -11.239132    11A    -11.236965    12A    -11.230080
      13A    -11.228928    14A    -11.225571    15A    -11.220331
      16A     -1.367071    17A     -1.249607    18A     -1.161408
      19A     -1.081608    20A     -1.050751    21A     -1.037603
      22A     -1.023578    23A     -0.943035    24A     -0.918285
      25A     -0.866919    26A     -0.844553    27A     -0.815517
      28A     -0.791265    29A     -0.742680    30A     -0.712341
      31A     -0.666663    32A     -0.653020    33A     -0.648600
      34A     -0.627586    35A     -0.621150    36A     -0.615168
      37A     -0.596614    38A     -0.586540    39A     -0.575563
      40A     -0.571816    41A     -0.559985    42A     -0.548010
      43A     -0.541468    44A     -0.524878    45A     -0.508802
      46A     -0.503210    47A     -0.491623    48A     -0.489565
      49A     -0.479093    50A     -0.468390    51A     -0.459412
      52A     -0.416943    53A     -0.366772    54A     -0.339951
      55A     -0.329973

  @DF-RHF Final Energy:  -631.73048280973671

   => Energetics <=

    Nuclear Repulsion Energy =            999.8901315053933558
    One-Electron Energy =               -2842.9819898238333735
    Two-Electron Energy =                1211.3613755087033041
    Total Energy =                       -631.7304828097367135
  Basis Set: (AUG-CC-PVTZ AUX)
    Blend: AUG-CC-PVTZ-RI
    Molecular point group: c1

    Geometry (in Angstrom), charge = 0, multiplicity = 1:

       Center              X                  Y                   Z               Mass
    ------------   -----------------  -----------------  -----------------  -----------------
         O            0.057670558206     1.937466426793    -1.183982929207    15.994914619570
         N            1.257235558206     0.449843426793     0.084565070793    14.003074004430
         C            3.728343558206    -0.964004573207     0.432166070793    12.000000000000
         C            3.580962558206     0.156268426793    -0.598155929207    12.000000000000
         C            2.362666758206    -1.639785373207     0.712379370793    12.000000000000
         C            2.510942558206     1.154671426793    -0.166216929207    12.000000000000
         C            1.338215558206    -0.589042573207     1.105449070793    12.000000000000
         C            0.099467558206     0.915811426793    -0.484863929207    12.000000000000
         C           -1.134083441794     0.089030426793    -0.269705929207    12.000000000000
         C           -2.235653441794     0.642625426793     0.408396070793    12.000000000000
         C           -1.215537441794    -1.184690573207    -0.845660929207    12.000000000000
         C           -3.398677441794    -0.128392573207     0.512852070793    12.000000000000
         C           -2.159841441794     2.023830426793     1.005864070793    12.000000000000
         C           -2.389908441794    -1.931221573207    -0.742632929207    12.000000000000
         C           -3.483720441794    -1.400522573207    -0.057999929207    12.000000000000
         H            4.459837558206    -1.705847573207     0.092067070793     1.007825032230
         H            4.117745558206    -0.542312573207     1.369157070793     1.007825032230
         H            4.534565558206     0.678941426793    -0.740418929207     1.007825032230
         H            3.292504558206    -0.265965573207    -1.568469929207     1.007825032230
         H            2.029937558206    -2.152833573207    -0.190340929207     1.007825032230
         H            2.473487558206    -2.378217573207     1.506394070793     1.007825032230
         H            2.823616558206     1.671762426793     0.754070070793     1.007825032230
         H            2.313930558206     1.909034426793    -0.929136929207     1.007825032230
         H            0.353695558206    -1.037363573207     1.241960070793     1.007825032230
         H            1.630156558206    -0.121544573207     2.059551070793     1.007825032230
         H           -0.356434441794    -1.583066573207    -1.383131929207     1.007825032230
         H           -4.257626441794     0.279869426793     1.042990070793     1.007825032230
         H           -1.978588441794     2.768513426793     0.227084070793     1.007825032230
         H           -3.090118441794     2.269611426793     1.525125070793     1.007825032230
         H           -1.337734441794     2.100638426793     1.725614070793     1.007825032230
         H           -2.450969441794    -2.917190573207    -1.197166929207     1.007825032230
         H           -4.403183441794    -1.974285573207     0.032179070793     1.007825032230

  Basis Set: AUG-CC-PVTZ
    Blend: AUG-CC-PVTZ
  Basis Set: (AUG-CC-PVTZ AUX)
    Blend: AUG-CC-PVTZ-JKFIT
	 Reference Energy          =    -631.7304828097367135 [Eh]
	 Singles Energy            =      -0.0000000000000000 [Eh]
	 Same-Spin Energy          =      -0.6889415067220234 [Eh]
	 Opposite-Spin Energy      =      -2.2122148811148499 [Eh]
	 Correlation Energy        =      -2.9011563878368731 [Eh]
	 Total Energy              =    -634.6316391975735769 [Eh]

	 ================> DF-SCS-MP2 Energies <==================
	-----------------------------------------------------------
	 SCS Same-Spin Scale       =       0.3333333333333333 [-]
	 SCS Opposite-Spin Scale   =       1.2000000000000000 [-]
	 SCS Same-Spin Energy      =      -0.2296471689073411 [Eh]
	 SCS Opposite-Spin Energy  =      -2.6546578573378197 [Eh]
	 SCS Correlation Energy    =      -2.8843050262451606 [Eh]
	 SCS Total Energy          =    -634.6147878359819288 [Eh]
	-----------------------------------------------------------

  Dipole Moment: [D]
     X:     1.3998      Y:    -2.5238      Z:     2.3052     Total:     3.6936

*** Psi4 exiting successfully. Buy a developer a beer!
