                               Psi4 1.4a3.dev225

  ==> Input File <==

--------------------------------------------------------------------------
#psi4
#
memory 32 gb

molecule  {
0 1
  O        0.0109280     1.9504830    -1.2088660
  N        1.3186651     0.3859186    -0.0157775
  C        3.6816010    -0.9509880     0.4072830
  C        3.5342200     0.1692850    -0.6230390
  C        2.3335540    -1.6180450     0.6838790
  C        2.4642000     1.1676880    -0.1911000
  C        1.2914730    -0.5760260     1.0805660
  C        0.0527250     0.9288280    -0.5097470
  C       -1.1808260     0.1020470    -0.2945890
  C       -2.2823960     0.6556420     0.3835130
  C       -1.2622800    -1.1716740    -0.8705440
  C       -3.4454200    -0.1153760     0.4879690
  C       -2.2065840     2.0368470     0.9809810
  C       -2.4366510    -1.9182050    -0.7675160
  C       -3.5304630    -1.3875060    -0.0828830
  H        4.4130950    -1.6928310     0.0671840
  H        4.0710030    -0.5292960     1.3442740
  H        4.4878230     0.6919580    -0.7653020
  H        3.2457620    -0.2529490    -1.5933530
  H        1.9831950    -2.1398170    -0.2152240
  H        2.4267450    -2.3652010     1.4815110
  H        2.7768740     1.6847790     0.7291870
  H        2.2671880     1.9220510    -0.9540200
  H        0.3069530    -1.0243470     1.2170770
  H        1.5834140    -0.1085280     2.0346680
  H       -0.4031770    -1.5700500    -1.4080150
  H       -4.3043690     0.2928860     1.0181070
  H       -2.0253310     2.7815300     0.2022010
  H       -3.1368610     2.2826280     1.5002420
  H       -1.3844770     2.1136550     1.7007310
  H       -2.4977120    -2.9041740    -1.2220500
  H       -4.4499260    -1.9612690     0.0072960
units angstrom
no_reorient  #important for SAPT in psi4, default
symmetry c1  #important for SAPT in psi4, default
}

set PROPERTIES_ORIGIN ["COM"]
properties('MP2/aug-cc-pvtz', properties = ['dipole'])
--------------------------------------------------------------------------

    Molecular point group: c1
  Charge       = 0
  Multiplicity = 1
  Basis Set: AUG-CC-PVTZ
    Blend: AUG-CC-PVTZ
  Basis Set: (AUG-CC-PVTZ AUX)
    Blend: AUG-CC-PVTZ-JKFIT

    Orbital Energies [Eh]
    ---------------------

    Doubly Occupied:

       1A    -20.528795     2A    -15.577971     3A    -11.361313
       4A    -11.262251     5A    -11.255866     6A    -11.250934
       7A    -11.248947     8A    -11.245812     9A    -11.245261
      10A    -11.241685    11A    -11.239828    12A    -11.223961
      13A    -11.223953    14A    -11.223179    15A    -11.217290
      16A     -1.372396    17A     -1.251618    18A     -1.165073
      19A     -1.071234    20A     -1.054128    21A     -1.040695
      22A     -1.023544    23A     -0.943966    24A     -0.903691
      25A     -0.863818    26A     -0.844087    27A     -0.815903
      28A     -0.783645    29A     -0.749819    30A     -0.713601
      31A     -0.671124    32A     -0.654057    33A     -0.648946
      34A     -0.628020    35A     -0.619479    36A     -0.610300
      37A     -0.597673    38A     -0.583567    39A     -0.578523
      40A     -0.574913    41A     -0.564875    42A     -0.546953
      43A     -0.538744    44A     -0.525321    45A     -0.510499
      46A     -0.500118    47A     -0.493930    48A     -0.489598
      49A     -0.475925    50A     -0.465239    51A     -0.454375
      52A     -0.424459    53A     -0.360762    54A     -0.343017
      55A     -0.333369

  @DF-RHF Final Energy:  -631.71350763704072

   => Energetics <=

    Nuclear Repulsion Energy =            999.6080553356104019
    One-Electron Energy =               -2842.3670219180216918
    Two-Electron Energy =                1211.0454589453704557
    Total Energy =                       -631.7135076370407205
  Basis Set: (AUG-CC-PVTZ AUX)
    Blend: AUG-CC-PVTZ-RI
    Molecular point group: c1

    Geometry (in Angstrom), charge = 0, multiplicity = 1:

       Center              X                  Y                   Z               Mass
    ------------   -----------------  -----------------  -----------------  -----------------
         O            0.049172104493     1.942255112175    -1.178567347705    15.994914619570
         N            1.356909204493     0.377690712175     0.014521152295    14.003074004430
         C            3.719845104493    -0.959215887825     0.437581652295    12.000000000000
         C            3.572464104493     0.161057112175    -0.592740347705    12.000000000000
         C            2.371798104493    -1.626272887825     0.714177652295    12.000000000000
         C            2.502444104493     1.159460112175    -0.160801347705    12.000000000000
         C            1.329717104493    -0.584253887825     1.110864652295    12.000000000000
         C            0.090969104493     0.920600112175    -0.479448347705    12.000000000000
         C           -1.142581895507     0.093819112175    -0.264290347705    12.000000000000
         C           -2.244151895507     0.647414112175     0.413811652295    12.000000000000
         C           -1.224035895507    -1.179901887825    -0.840245347705    12.000000000000
         C           -3.407175895507    -0.123603887825     0.518267652295    12.000000000000
         C           -2.168339895507     2.028619112175     1.011279652295    12.000000000000
         C           -2.398406895507    -1.926432887825    -0.737217347705    12.000000000000
         C           -3.492218895507    -1.395733887825    -0.052584347705    12.000000000000
         H            4.451339104493    -1.701058887825     0.097482652295     1.007825032230
         H            4.109247104493    -0.537523887825     1.374572652295     1.007825032230
         H            4.526067104493     0.683730112175    -0.735003347705     1.007825032230
         H            3.284006104493    -0.261176887825    -1.563054347705     1.007825032230
         H            2.021439104493    -2.148044887825    -0.184925347705     1.007825032230
         H            2.464989104493    -2.373428887825     1.511809652295     1.007825032230
         H            2.815118104493     1.676551112175     0.759485652295     1.007825032230
         H            2.305432104493     1.913823112175    -0.923721347705     1.007825032230
         H            0.345197104493    -1.032574887825     1.247375652295     1.007825032230
         H            1.621658104493    -0.116755887825     2.064966652295     1.007825032230
         H           -0.364932895507    -1.578277887825    -1.377716347705     1.007825032230
         H           -4.266124895507     0.284658112175     1.048405652295     1.007825032230
         H           -1.987086895507     2.773302112175     0.232499652295     1.007825032230
         H           -3.098616895507     2.274400112175     1.530540652295     1.007825032230
         H           -1.346232895507     2.105427112175     1.731029652295     1.007825032230
         H           -2.459467895507    -2.912401887825    -1.191751347705     1.007825032230
         H           -4.411681895507    -1.969496887825     0.037594652295     1.007825032230

  Basis Set: AUG-CC-PVTZ
    Blend: AUG-CC-PVTZ
  Basis Set: (AUG-CC-PVTZ AUX)
    Blend: AUG-CC-PVTZ-JKFIT
	 Reference Energy          =    -631.7135076370407205 [Eh]
	 Singles Energy            =      -0.0000000000000000 [Eh]
	 Same-Spin Energy          =      -0.6903279809677791 [Eh]
	 Opposite-Spin Energy      =      -2.2151221677266912 [Eh]
	 Correlation Energy        =      -2.9054501486944702 [Eh]
	 Total Energy              =    -634.6189577857352333 [Eh]

	 ================> DF-SCS-MP2 Energies <==================
	-----------------------------------------------------------
	 SCS Same-Spin Scale       =       0.3333333333333333 [-]
	 SCS Opposite-Spin Scale   =       1.2000000000000000 [-]
	 SCS Same-Spin Energy      =      -0.2301093269892597 [Eh]
	 SCS Opposite-Spin Energy  =      -2.6581466012720294 [Eh]
	 SCS Correlation Energy    =      -2.8882559282612892 [Eh]
	 SCS Total Energy          =    -634.6017635653020079 [Eh]
	-----------------------------------------------------------

  Dipole Moment: [D]
     X:     0.6279      Y:    -2.1940      Z:     2.1628     Total:     3.1442

*** Psi4 exiting successfully. Buy a developer a beer!
