                               Psi4 1.4a3.dev225

  ==> Input File <==

--------------------------------------------------------------------------
#psi4
#
memory 32 gb

molecule  {
0 1
  O        0.0109280     1.9504830    -1.2088660
  N        1.2104930     0.4628600     0.0596820
  C        3.6816010    -0.9509880     0.4072830
  C        3.5342200     0.1692850    -0.6230390
  C        2.3335540    -1.6180450     0.6838790
  C        2.4642000     1.1676880    -0.1911000
  C        1.2914730    -0.5760260     1.0805660
  C        0.0527250     0.9288280    -0.5097470
  C       -1.1808260     0.1020470    -0.2945890
  C       -2.2980540     0.6635110     0.3931517
  C       -1.2622800    -1.1716740    -0.8705440
  C       -3.4454200    -0.1153760     0.4879690
  C       -2.2065840     2.0368470     0.9809810
  C       -2.4366510    -1.9182050    -0.7675160
  C       -3.5304630    -1.3875060    -0.0828830
  H        4.4130950    -1.6928310     0.0671840
  H        4.0710030    -0.5292960     1.3442740
  H        4.4878230     0.6919580    -0.7653020
  H        3.2457620    -0.2529490    -1.5933530
  H        1.9831950    -2.1398170    -0.2152240
  H        2.4267450    -2.3652010     1.4815110
  H        2.7768740     1.6847790     0.7291870
  H        2.2671880     1.9220510    -0.9540200
  H        0.3069530    -1.0243470     1.2170770
  H        1.5834140    -0.1085280     2.0346680
  H       -0.4031770    -1.5700500    -1.4080150
  H       -4.3043690     0.2928860     1.0181070
  H       -2.0253310     2.7815300     0.2022010
  H       -3.1368610     2.2826280     1.5002420
  H       -1.3844770     2.1136550     1.7007310
  H       -2.4977120    -2.9041740    -1.2220500
  H       -4.4499260    -1.9612690     0.0072960
units angstrom
no_reorient  #important for SAPT in psi4, default
symmetry c1  #important for SAPT in psi4, default
}

set PROPERTIES_ORIGIN ["COM"]
properties('MP2/aug-cc-pvtz', properties = ['dipole'])
--------------------------------------------------------------------------

    Molecular point group: c1
  Charge       = 0
  Multiplicity = 1
  Basis Set: AUG-CC-PVTZ
    Blend: AUG-CC-PVTZ
  Basis Set: (AUG-CC-PVTZ AUX)
    Blend: AUG-CC-PVTZ-JKFIT

    Orbital Energies [Eh]
    ---------------------

    Doubly Occupied:

       1A    -20.510739     2A    -15.583886     3A    -11.349501
       4A    -11.266948     5A    -11.254621     6A    -11.252592
       7A    -11.247484     8A    -11.245679     9A    -11.242756
      10A    -11.239187    11A    -11.235953    12A    -11.230592
      13A    -11.228293    14A    -11.225662    15A    -11.220167
      16A     -1.366929    17A     -1.249546    18A     -1.160467
      19A     -1.083578    20A     -1.051560    21A     -1.037559
      22A     -1.022964    23A     -0.944172    24A     -0.918721
      25A     -0.867561    26A     -0.844216    27A     -0.813151
      28A     -0.791463    29A     -0.742606    30A     -0.712134
      31A     -0.666987    32A     -0.652561    33A     -0.648476
      34A     -0.627836    35A     -0.620334    36A     -0.615073
      37A     -0.595804    38A     -0.587972    39A     -0.577240
      40A     -0.572639    41A     -0.560051    42A     -0.547425
      43A     -0.541741    44A     -0.524858    45A     -0.509770
      46A     -0.502543    47A     -0.490357    48A     -0.487998
      49A     -0.478403    50A     -0.469598    51A     -0.461527
      52A     -0.417060    53A     -0.366198    54A     -0.340850
      55A     -0.328220

  @DF-RHF Final Energy:  -631.72985646342579

   => Energetics <=

    Nuclear Repulsion Energy =            999.7011571772908383
    One-Electron Energy =               -2842.5976095340633947
    Two-Electron Energy =                1211.1665958933465390
    Total Energy =                       -631.7298564634259037
  Basis Set: (AUG-CC-PVTZ AUX)
    Blend: AUG-CC-PVTZ-RI
    Molecular point group: c1

    Geometry (in Angstrom), charge = 0, multiplicity = 1:

       Center              X                  Y                   Z               Mass
    ------------   -----------------  -----------------  -----------------  -----------------
         O            0.057554073778     1.936486204246    -1.184338644459    15.994914619570
         N            1.257119073778     0.448863204246     0.084209355541    14.003074004430
         C            3.728227073778    -0.964984795754     0.431810355541    12.000000000000
         C            3.580846073778     0.155288204246    -0.598511644459    12.000000000000
         C            2.380180073778    -1.632041795754     0.708406355541    12.000000000000
         C            2.510826073778     1.153691204246    -0.166572644459    12.000000000000
         C            1.338099073778    -0.590022795754     1.105093355541    12.000000000000
         C            0.099351073778     0.914831204246    -0.485219644459    12.000000000000
         C           -1.134199926222     0.088050204246    -0.270061644459    12.000000000000
         C           -2.251427926222     0.649514204246     0.417679055541    12.000000000000
         C           -1.215653926222    -1.185670795754    -0.846016644459    12.000000000000
         C           -3.398793926222    -0.129372795754     0.512496355541    12.000000000000
         C           -2.159957926222     2.022850204246     1.005508355541    12.000000000000
         C           -2.390024926222    -1.932201795754    -0.742988644459    12.000000000000
         C           -3.483836926222    -1.401502795754    -0.058355644459    12.000000000000
         H            4.459721073778    -1.706827795754     0.091711355541     1.007825032230
         H            4.117629073778    -0.543292795754     1.368801355541     1.007825032230
         H            4.534449073778     0.677961204246    -0.740774644459     1.007825032230
         H            3.292388073778    -0.266945795754    -1.568825644459     1.007825032230
         H            2.029821073778    -2.153813795754    -0.190696644459     1.007825032230
         H            2.473371073778    -2.379197795754     1.506038355541     1.007825032230
         H            2.823500073778     1.670782204246     0.753714355541     1.007825032230
         H            2.313814073778     1.908054204246    -0.929492644459     1.007825032230
         H            0.353579073778    -1.038343795754     1.241604355541     1.007825032230
         H            1.630040073778    -0.122524795754     2.059195355541     1.007825032230
         H           -0.356550926222    -1.584046795754    -1.383487644459     1.007825032230
         H           -4.257742926222     0.278889204246     1.042634355541     1.007825032230
         H           -1.978704926222     2.767533204246     0.226728355541     1.007825032230
         H           -3.090234926222     2.268631204246     1.524769355541     1.007825032230
         H           -1.337850926222     2.099658204246     1.725258355541     1.007825032230
         H           -2.451085926222    -2.918170795754    -1.197522644459     1.007825032230
         H           -4.403299926222    -1.975265795754     0.031823355541     1.007825032230

  Basis Set: AUG-CC-PVTZ
    Blend: AUG-CC-PVTZ
  Basis Set: (AUG-CC-PVTZ AUX)
    Blend: AUG-CC-PVTZ-JKFIT
	 Reference Energy          =    -631.7298564634257900 [Eh]
	 Singles Energy            =      -0.0000000000000000 [Eh]
	 Same-Spin Energy          =      -0.6891294388005121 [Eh]
	 Opposite-Spin Energy      =      -2.2124515078750511 [Eh]
	 Correlation Energy        =      -2.9015809466755633 [Eh]
	 Total Energy              =    -634.6314374101013982 [Eh]

	 ================> DF-SCS-MP2 Energies <==================
	-----------------------------------------------------------
	 SCS Same-Spin Scale       =       0.3333333333333333 [-]
	 SCS Opposite-Spin Scale   =       1.2000000000000000 [-]
	 SCS Same-Spin Energy      =      -0.2297098129335040 [Eh]
	 SCS Opposite-Spin Energy  =      -2.6549418094500612 [Eh]
	 SCS Correlation Energy    =      -2.8846516223835654 [Eh]
	 SCS Total Energy          =    -634.6145080858093479 [Eh]
	-----------------------------------------------------------

  Dipole Moment: [D]
     X:     1.4096      Y:    -2.5070      Z:     2.3073     Total:     3.6873

*** Psi4 exiting successfully. Buy a developer a beer!
