                               Psi4 1.4a3.dev225

  ==> Input File <==

--------------------------------------------------------------------------
#psi4
#
memory 32 gb

molecule  {
0 1
  O        0.0109280     1.9504830    -1.2088660
  N        1.2104930     0.4628600     0.0596820
  C        3.6816010    -0.9509880     0.4072830
  C        3.5342200     0.1692850    -0.6230390
  C        2.3335540    -1.6180450     0.6838790
  C        2.4642000     1.1676880    -0.1911000
  C        1.2914730    -0.5760260     1.0805660
  C        0.0527250     0.9288280    -0.5097470
  C       -1.1808260     0.1020470    -0.2945890
  C       -2.2823960     0.6556420     0.3835130
  C       -1.2622800    -1.1716740    -0.8705440
  C       -3.4454200    -0.1153760     0.4879690
  C       -2.2065840     2.0368470     0.9809810
  C       -2.4366510    -1.9182050    -0.7675160
  C       -3.5304630    -1.3875060    -0.0828830
  H        4.4130950    -1.6928310     0.0671840
  H        4.0710030    -0.5292960     1.3442740
  H        4.4704328     0.6824264    -0.7627077
  H        3.2457620    -0.2529490    -1.5933530
  H        1.9831950    -2.1398170    -0.2152240
  H        2.4267450    -2.3652010     1.4815110
  H        2.7768740     1.6847790     0.7291870
  H        2.2671880     1.9220510    -0.9540200
  H        0.3069530    -1.0243470     1.2170770
  H        1.5834140    -0.1085280     2.0346680
  H       -0.4031770    -1.5700500    -1.4080150
  H       -4.3043690     0.2928860     1.0181070
  H       -2.0253310     2.7815300     0.2022010
  H       -3.1368610     2.2826280     1.5002420
  H       -1.3844770     2.1136550     1.7007310
  H       -2.4977120    -2.9041740    -1.2220500
  H       -4.4499260    -1.9612690     0.0072960
units angstrom
no_reorient  #important for SAPT in psi4, default
symmetry c1  #important for SAPT in psi4, default
}

set PROPERTIES_ORIGIN ["COM"]
properties('MP2/aug-cc-pvtz', properties = ['dipole'])
--------------------------------------------------------------------------

    Molecular point group: c1
  Charge       = 0
  Multiplicity = 1
  Basis Set: AUG-CC-PVTZ
    Blend: AUG-CC-PVTZ
  Basis Set: (AUG-CC-PVTZ AUX)
    Blend: AUG-CC-PVTZ-JKFIT

    Orbital Energies [Eh]
    ---------------------

    Doubly Occupied:

       1A    -20.510687     2A    -15.583765     3A    -11.349355
       4A    -11.266965     5A    -11.254475     6A    -11.251786
       7A    -11.246275     8A    -11.244948     9A    -11.242590
      10A    -11.239082    11A    -11.236922    12A    -11.230480
      13A    -11.228133    14A    -11.223218    15A    -11.220287
      16A     -1.366900    17A     -1.249465    18A     -1.161369
      19A     -1.083827    20A     -1.050740    21A     -1.037352
      22A     -1.023458    23A     -0.943113    24A     -0.918716
      25A     -0.868316    26A     -0.844068    27A     -0.815355
      28A     -0.791459    29A     -0.742588    30A     -0.712435
      31A     -0.666698    32A     -0.652861    33A     -0.648336
      34A     -0.628616    35A     -0.620590    36A     -0.615312
      37A     -0.596257    38A     -0.588818    39A     -0.575613
      40A     -0.571737    41A     -0.560275    42A     -0.548030
      43A     -0.541574    44A     -0.524728    45A     -0.508026
      46A     -0.501979    47A     -0.491591    48A     -0.489304
      49A     -0.478407    50A     -0.470064    51A     -0.461847
      52A     -0.416885    53A     -0.366111    54A     -0.339933
      55A     -0.329940

  @DF-RHF Final Energy:  -631.73075340548326

   => Energetics <=

    Nuclear Repulsion Energy =           1000.0835991154601743
    One-Electron Energy =               -2843.3653826486838625
    Two-Electron Energy =                1211.5510301277404324
    Total Energy =                       -631.7307534054832558
  Basis Set: (AUG-CC-PVTZ AUX)
    Blend: AUG-CC-PVTZ-RI
    Molecular point group: c1

    Geometry (in Angstrom), charge = 0, multiplicity = 1:

       Center              X                  Y                   Z               Mass
    ------------   -----------------  -----------------  -----------------  -----------------
         O            0.056715355368     1.936998357378    -1.183782108078    15.994914619570
         N            1.256280355368     0.449375357378     0.084765891922    14.003074004430
         C            3.727388355368    -0.964472642622     0.432366891922    12.000000000000
         C            3.580007355368     0.155800357378    -0.597955108078    12.000000000000
         C            2.379341355368    -1.631529642622     0.708962891922    12.000000000000
         C            2.509987355368     1.154203357378    -0.166016108078    12.000000000000
         C            1.337260355368    -0.589510642622     1.105649891922    12.000000000000
         C            0.098512355368     0.915343357378    -0.484663108078    12.000000000000
         C           -1.135038644632     0.088562357378    -0.269505108078    12.000000000000
         C           -2.236608644632     0.642157357378     0.408596891922    12.000000000000
         C           -1.216492644632    -1.185158642622    -0.845460108078    12.000000000000
         C           -3.399632644632    -0.128860642622     0.513052891922    12.000000000000
         C           -2.160796644632     2.023362357378     1.006064891922    12.000000000000
         C           -2.390863644632    -1.931689642622    -0.742432108078    12.000000000000
         C           -3.484675644632    -1.400990642622    -0.057799108078    12.000000000000
         H            4.458882355368    -1.706315642622     0.092267891922     1.007825032230
         H            4.116790355368    -0.542780642622     1.369357891922     1.007825032230
         H            4.516220155368     0.668941757378    -0.737623808078     1.007825032230
         H            3.291549355368    -0.266433642622    -1.568269108078     1.007825032230
         H            2.028982355368    -2.153301642622    -0.190140108078     1.007825032230
         H            2.472532355368    -2.378685642622     1.506594891922     1.007825032230
         H            2.822661355368     1.671294357378     0.754270891922     1.007825032230
         H            2.312975355368     1.908566357378    -0.928936108078     1.007825032230
         H            0.352740355368    -1.037831642622     1.242160891922     1.007825032230
         H            1.629201355368    -0.122012642622     2.059751891922     1.007825032230
         H           -0.357389644632    -1.583534642622    -1.382931108078     1.007825032230
         H           -4.258581644632     0.279401357378     1.043190891922     1.007825032230
         H           -1.979543644632     2.768045357378     0.227284891922     1.007825032230
         H           -3.091073644632     2.269143357378     1.525325891922     1.007825032230
         H           -1.338689644632     2.100170357378     1.725814891922     1.007825032230
         H           -2.451924644632    -2.917658642622    -1.196966108078     1.007825032230
         H           -4.404138644632    -1.974753642622     0.032379891922     1.007825032230

  Basis Set: AUG-CC-PVTZ
    Blend: AUG-CC-PVTZ
  Basis Set: (AUG-CC-PVTZ AUX)
    Blend: AUG-CC-PVTZ-JKFIT
	 Reference Energy          =    -631.7307534054832558 [Eh]
	 Singles Energy            =      -0.0000000000000000 [Eh]
	 Same-Spin Energy          =      -0.6890135594953343 [Eh]
	 Opposite-Spin Energy      =      -2.2121326155028878 [Eh]
	 Correlation Energy        =      -2.9011461749982219 [Eh]
	 Total Energy              =    -634.6318995804814449 [Eh]

	 ================> DF-SCS-MP2 Energies <==================
	-----------------------------------------------------------
	 SCS Same-Spin Scale       =       0.3333333333333333 [-]
	 SCS Opposite-Spin Scale   =       1.2000000000000000 [-]
	 SCS Same-Spin Energy      =      -0.2296711864984448 [Eh]
	 SCS Opposite-Spin Energy  =      -2.6545591386034650 [Eh]
	 SCS Correlation Energy    =      -2.8842303251019099 [Eh]
	 SCS Total Energy          =    -634.6149837305852088 [Eh]
	-----------------------------------------------------------

  Dipole Moment: [D]
     X:     1.4202      Y:    -2.5136      Z:     2.2995     Total:     3.6909

*** Psi4 exiting successfully. Buy a developer a beer!
