                               Psi4 1.4a3.dev225

  ==> Input File <==

--------------------------------------------------------------------------
#psi4
#
memory 32 gb

molecule  {
0 1
  O        0.0109280     1.9504830    -1.2088660
  N        1.2104930     0.4628600     0.0596820
  C        3.6816010    -0.9509880     0.4072830
  C        3.5342200     0.1692850    -0.6230390
  C        2.3335540    -1.6180450     0.6838790
  C        2.4642000     1.1676880    -0.1911000
  C        1.2914730    -0.5760260     1.0805660
  C        0.0527250     0.9288280    -0.5097470
  C       -1.1808260     0.1020470    -0.2945890
  C       -2.2823960     0.6556420     0.3835130
  C       -1.2622800    -1.1716740    -0.8705440
  C       -3.6116509    -0.2255775     0.5028989
  C       -2.2065840     2.0368470     0.9809810
  C       -2.4366510    -1.9182050    -0.7675160
  C       -3.5304630    -1.3875060    -0.0828830
  H        4.4130950    -1.6928310     0.0671840
  H        4.0710030    -0.5292960     1.3442740
  H        4.4878230     0.6919580    -0.7653020
  H        3.2457620    -0.2529490    -1.5933530
  H        1.9831950    -2.1398170    -0.2152240
  H        2.4267450    -2.3652010     1.4815110
  H        2.7768740     1.6847790     0.7291870
  H        2.2671880     1.9220510    -0.9540200
  H        0.3069530    -1.0243470     1.2170770
  H        1.5834140    -0.1085280     2.0346680
  H       -0.4031770    -1.5700500    -1.4080150
  H       -4.3043690     0.2928860     1.0181070
  H       -2.0253310     2.7815300     0.2022010
  H       -3.1368610     2.2826280     1.5002420
  H       -1.3844770     2.1136550     1.7007310
  H       -2.4977120    -2.9041740    -1.2220500
  H       -4.4499260    -1.9612690     0.0072960
units angstrom
no_reorient  #important for SAPT in psi4, default
symmetry c1  #important for SAPT in psi4, default
}

set PROPERTIES_ORIGIN ["COM"]
properties('MP2/aug-cc-pvtz', properties = ['dipole'])
--------------------------------------------------------------------------

    Molecular point group: c1
  Charge       = 0
  Multiplicity = 1
  Basis Set: AUG-CC-PVTZ
    Blend: AUG-CC-PVTZ
  Basis Set: (AUG-CC-PVTZ AUX)
    Blend: AUG-CC-PVTZ-JKFIT

    Orbital Energies [Eh]
    ---------------------

    Doubly Occupied:

       1A    -20.510173     2A    -15.583431     3A    -11.348682
       4A    -11.268784     5A    -11.267084     6A    -11.254408
       7A    -11.248097     8A    -11.241589     9A    -11.239836
      10A    -11.238403    11A    -11.232818    12A    -11.230459
      13A    -11.228160    14A    -11.225491    15A    -11.223006
      16A     -1.366354    17A     -1.249226    18A     -1.153941
      19A     -1.084041    20A     -1.053077    21A     -1.033840
      22A     -1.027317    23A     -0.947984    24A     -0.915470
      25A     -0.865134    26A     -0.839443    27A     -0.819020
      28A     -0.786953    29A     -0.745242    30A     -0.716597
      31A     -0.665022    32A     -0.659487    33A     -0.647269
      34A     -0.630748    35A     -0.626528    36A     -0.612714
      37A     -0.601297    38A     -0.587627    39A     -0.573636
      40A     -0.570258    41A     -0.560470    42A     -0.551815
      43A     -0.543661    44A     -0.525295    45A     -0.507448
      46A     -0.500952    47A     -0.490605    48A     -0.479104
      49A     -0.470283    50A     -0.467647    51A     -0.461213
      52A     -0.412119    53A     -0.366063    54A     -0.356154
      55A     -0.312384

  @DF-RHF Final Energy:  -631.68996357154197

   => Energetics <=

    Nuclear Repulsion Energy =            996.9828883524174898
    One-Electron Energy =               -2837.0979789159773645
    Two-Electron Energy =                1208.4251269920180221
    Total Energy =                       -631.6899635715419663
  Basis Set: (AUG-CC-PVTZ AUX)
    Blend: AUG-CC-PVTZ-RI
    Molecular point group: c1

    Geometry (in Angstrom), charge = 0, multiplicity = 1:

       Center              X                  Y                   Z               Mass
    ------------   -----------------  -----------------  -----------------  -----------------
         O            0.066449194040     1.943461239574    -1.184651223020    15.994914619570
         N            1.266014194040     0.455838239574     0.083896776980    14.003074004430
         C            3.737122194040    -0.958009760426     0.431497776980    12.000000000000
         C            3.589741194040     0.162263239574    -0.598824223020    12.000000000000
         C            2.389075194040    -1.625066760426     0.708093776980    12.000000000000
         C            2.519721194040     1.160666239574    -0.166885223020    12.000000000000
         C            1.346994194040    -0.583047760426     1.104780776980    12.000000000000
         C            0.108246194040     0.921806239574    -0.485532223020    12.000000000000
         C           -1.125304805960     0.095025239574    -0.270374223020    12.000000000000
         C           -2.226874805960     0.648620239574     0.407727776980    12.000000000000
         C           -1.206758805960    -1.178695760426    -0.846329223020    12.000000000000
         C           -3.556129705960    -0.232599260426     0.527113676980    12.000000000000
         C           -2.151062805960     2.029825239574     1.005195776980    12.000000000000
         C           -2.381129805960    -1.925226760426    -0.743301223020    12.000000000000
         C           -3.474941805960    -1.394527760426    -0.058668223020    12.000000000000
         H            4.468616194040    -1.699852760426     0.091398776980     1.007825032230
         H            4.126524194040    -0.536317760426     1.368488776980     1.007825032230
         H            4.543344194040     0.684936239574    -0.741087223020     1.007825032230
         H            3.301283194040    -0.259970760426    -1.569138223020     1.007825032230
         H            2.038716194040    -2.146838760426    -0.191009223020     1.007825032230
         H            2.482266194040    -2.372222760426     1.505725776980     1.007825032230
         H            2.832395194040     1.677757239574     0.753401776980     1.007825032230
         H            2.322709194040     1.915029239574    -0.929805223020     1.007825032230
         H            0.362474194040    -1.031368760426     1.241291776980     1.007825032230
         H            1.638935194040    -0.115549760426     2.058882776980     1.007825032230
         H           -0.347655805960    -1.577071760426    -1.383800223020     1.007825032230
         H           -4.248847805960     0.285864239574     1.042321776980     1.007825032230
         H           -1.969809805960     2.774508239574     0.226415776980     1.007825032230
         H           -3.081339805960     2.275606239574     1.524456776980     1.007825032230
         H           -1.328955805960     2.106633239574     1.724945776980     1.007825032230
         H           -2.442190805960    -2.911195760426    -1.197835223020     1.007825032230
         H           -4.394404805960    -1.968290760426     0.031510776980     1.007825032230

  Basis Set: AUG-CC-PVTZ
    Blend: AUG-CC-PVTZ
  Basis Set: (AUG-CC-PVTZ AUX)
    Blend: AUG-CC-PVTZ-JKFIT
	 Reference Energy          =    -631.6899635715419663 [Eh]
	 Singles Energy            =      -0.0000000000000000 [Eh]
	 Same-Spin Energy          =      -0.6884613122824996 [Eh]
	 Opposite-Spin Energy      =      -2.2140132846132352 [Eh]
	 Correlation Energy        =      -2.9024745968957348 [Eh]
	 Total Energy              =    -634.5924381684377522 [Eh]

	 ================> DF-SCS-MP2 Energies <==================
	-----------------------------------------------------------
	 SCS Same-Spin Scale       =       0.3333333333333333 [-]
	 SCS Opposite-Spin Scale   =       1.2000000000000000 [-]
	 SCS Same-Spin Energy      =      -0.2294871040941665 [Eh]
	 SCS Opposite-Spin Energy  =      -2.6568159415358821 [Eh]
	 SCS Correlation Energy    =      -2.8863030456300485 [Eh]
	 SCS Total Energy          =    -634.5762666171719957 [Eh]
	-----------------------------------------------------------

  Dipole Moment: [D]
     X:     1.3883      Y:    -2.4336      Z:     2.3484     Total:     3.6558

*** Psi4 exiting successfully. Buy a developer a beer!
