                               Psi4 1.4a3.dev225

  ==> Input File <==

--------------------------------------------------------------------------
#psi4
#
memory 32 gb

molecule  {
0 1
  O        0.0109280     1.9504830    -1.2088660
  N        1.2104930     0.4628600     0.0596820
  C        3.6816010    -0.9509880     0.4072830
  C        3.5342200     0.1692850    -0.6230390
  C        2.3335540    -1.6180450     0.6838790
  C        2.4642000     1.1676880    -0.1911000
  C        1.2914730    -0.5760260     1.0805660
  C        0.0527250     0.9288280    -0.5097470
  C       -1.1808260     0.1020470    -0.2945890
  C       -2.2823960     0.6556420     0.3835130
  C       -1.2622800    -1.1716740    -0.8705440
  C       -3.4454200    -0.1153760     0.4879690
  C       -2.2065840     2.0368470     0.9809810
  C       -2.4366510    -1.9182050    -0.7675160
  C       -3.5304630    -1.3875060    -0.0828830
  H        4.4130950    -1.6928310     0.0671840
  H        4.0710030    -0.5292960     1.3442740
  H        4.5052132     0.7014896    -0.7678963
  H        3.2457620    -0.2529490    -1.5933530
  H        1.9831950    -2.1398170    -0.2152240
  H        2.4267450    -2.3652010     1.4815110
  H        2.7768740     1.6847790     0.7291870
  H        2.2671880     1.9220510    -0.9540200
  H        0.3069530    -1.0243470     1.2170770
  H        1.5834140    -0.1085280     2.0346680
  H       -0.4031770    -1.5700500    -1.4080150
  H       -4.3043690     0.2928860     1.0181070
  H       -2.0253310     2.7815300     0.2022010
  H       -3.1368610     2.2826280     1.5002420
  H       -1.3844770     2.1136550     1.7007310
  H       -2.4977120    -2.9041740    -1.2220500
  H       -4.4499260    -1.9612690     0.0072960
units angstrom
no_reorient  #important for SAPT in psi4, default
symmetry c1  #important for SAPT in psi4, default
}

set PROPERTIES_ORIGIN ["COM"]
properties('MP2/aug-cc-pvtz', properties = ['dipole'])
--------------------------------------------------------------------------

    Molecular point group: c1
  Charge       = 0
  Multiplicity = 1
  Basis Set: AUG-CC-PVTZ
    Blend: AUG-CC-PVTZ
  Basis Set: (AUG-CC-PVTZ AUX)
    Blend: AUG-CC-PVTZ-JKFIT

    Orbital Energies [Eh]
    ---------------------

    Doubly Occupied:

       1A    -20.510898     2A    -15.584058     3A    -11.349577
       4A    -11.267189     5A    -11.254806     6A    -11.251911
       7A    -11.246413     8A    -11.245088     9A    -11.242706
      10A    -11.239199    11A    -11.237034    12A    -11.230802
      13A    -11.228659    14A    -11.227980    15A    -11.220390
      16A     -1.367110    17A     -1.249733    18A     -1.161494
      19A     -1.083436    20A     -1.050864    21A     -1.037266
      22A     -1.022933    23A     -0.943229    24A     -0.918918
      25A     -0.866640    26A     -0.844170    27A     -0.815255
      28A     -0.790571    29A     -0.742799    30A     -0.712316
      31A     -0.666850    32A     -0.652949    33A     -0.648364
      34A     -0.627228    35A     -0.620261    36A     -0.615255
      37A     -0.596482    38A     -0.587327    39A     -0.575703
      40A     -0.571871    41A     -0.560241    42A     -0.546873
      43A     -0.541641    44A     -0.524900    45A     -0.508098
      46A     -0.502082    47A     -0.491437    48A     -0.489412
      49A     -0.478662    50A     -0.469239    51A     -0.461161
      52A     -0.416989    53A     -0.366357    54A     -0.340060
      55A     -0.330062

  @DF-RHF Final Energy:  -631.73014103777211

   => Energetics <=

    Nuclear Repulsion Energy =            999.8616261274524959
    One-Electron Energy =               -2842.9176402761431746
    Two-Electron Energy =                1211.3258731109187920
    Total Energy =                       -631.7301410377720003
  Basis Set: (AUG-CC-PVTZ AUX)
    Blend: AUG-CC-PVTZ-RI
    Molecular point group: c1

    Geometry (in Angstrom), charge = 0, multiplicity = 1:

       Center              X                  Y                   Z               Mass
    ------------   -----------------  -----------------  -----------------  -----------------
         O            0.056542794039     1.936903776202    -1.183756365082    15.994914619570
         N            1.256107794039     0.449280776202     0.084791634918    14.003074004430
         C            3.727215794039    -0.964567223798     0.432392634918    12.000000000000
         C            3.579834794039     0.155705776202    -0.597929365082    12.000000000000
         C            2.379168794039    -1.631624223798     0.708988634918    12.000000000000
         C            2.509814794039     1.154108776202    -0.165990365082    12.000000000000
         C            1.337087794039    -0.589605223798     1.105675634918    12.000000000000
         C            0.098339794039     0.915248776202    -0.484637365082    12.000000000000
         C           -1.135211205961     0.088467776202    -0.269479365082    12.000000000000
         C           -2.236781205961     0.642062776202     0.408622634918    12.000000000000
         C           -1.216665205961    -1.185253223798    -0.845434365082    12.000000000000
         C           -3.399805205961    -0.128955223798     0.513078634918    12.000000000000
         C           -2.160969205961     2.023267776202     1.006090634918    12.000000000000
         C           -2.391036205961    -1.931784223798    -0.742406365082    12.000000000000
         C           -3.484848205961    -1.401085223798    -0.057773365082    12.000000000000
         H            4.458709794039    -1.706410223798     0.092293634918     1.007825032230
         H            4.116617794039    -0.542875223798     1.369383634918     1.007825032230
         H            4.550827994039     0.687910376202    -0.742786665082     1.007825032230
         H            3.291376794039    -0.266528223798    -1.568243365082     1.007825032230
         H            2.028809794039    -2.153396223798    -0.190114365082     1.007825032230
         H            2.472359794039    -2.378780223798     1.506620634918     1.007825032230
         H            2.822488794039     1.671199776202     0.754296634918     1.007825032230
         H            2.312802794039     1.908471776202    -0.928910365082     1.007825032230
         H            0.352567794039    -1.037926223798     1.242186634918     1.007825032230
         H            1.629028794039    -0.122107223798     2.059777634918     1.007825032230
         H           -0.357562205961    -1.583629223798    -1.382905365082     1.007825032230
         H           -4.258754205961     0.279306776202     1.043216634918     1.007825032230
         H           -1.979716205961     2.767950776202     0.227310634918     1.007825032230
         H           -3.091246205961     2.269048776202     1.525351634918     1.007825032230
         H           -1.338862205961     2.100075776202     1.725840634918     1.007825032230
         H           -2.452097205961    -2.917753223798    -1.196940365082     1.007825032230
         H           -4.404311205961    -1.974848223798     0.032405634918     1.007825032230

  Basis Set: AUG-CC-PVTZ
    Blend: AUG-CC-PVTZ
  Basis Set: (AUG-CC-PVTZ AUX)
    Blend: AUG-CC-PVTZ-JKFIT
	 Reference Energy          =    -631.7301410377721140 [Eh]
	 Singles Energy            =      -0.0000000000000000 [Eh]
	 Same-Spin Energy          =      -0.6890226628301200 [Eh]
	 Opposite-Spin Energy      =      -2.2124055158338467 [Eh]
	 Correlation Energy        =      -2.9014281786639669 [Eh]
	 Total Energy              =    -634.6315692164361053 [Eh]

	 ================> DF-SCS-MP2 Energies <==================
	-----------------------------------------------------------
	 SCS Same-Spin Scale       =       0.3333333333333333 [-]
	 SCS Opposite-Spin Scale   =       1.2000000000000000 [-]
	 SCS Same-Spin Energy      =      -0.2296742209433733 [Eh]
	 SCS Opposite-Spin Energy  =      -2.6548866190006160 [Eh]
	 SCS Correlation Energy    =      -2.8845608399439895 [Eh]
	 SCS Total Energy          =    -634.6147018777161293 [Eh]
	-----------------------------------------------------------

  Dipole Moment: [D]
     X:     1.3882      Y:    -2.5264      Z:     2.3089     Total:     3.6933

*** Psi4 exiting successfully. Buy a developer a beer!
