                               Psi4 1.4a3.dev225

  ==> Input File <==

--------------------------------------------------------------------------
#psi4
#
memory 32 gb

molecule  {
0 1
  O        0.0109280     1.9504830    -1.2088660
  N        1.2104930     0.4628600     0.0596820
  C        3.6816010    -0.9509880     0.4072830
  C        3.5342200     0.1692850    -0.6230390
  C        2.3335540    -1.6180450     0.6838790
  C        2.4642000     1.1676880    -0.1911000
  C        1.2914730    -0.5760260     1.0805660
  C        0.0527250     0.9288280    -0.5097470
  C       -1.1681062     0.1226027    -0.2902625
  C       -2.2823960     0.6556420     0.3835130
  C       -1.2622800    -1.1716740    -0.8705440
  C       -3.4454200    -0.1153760     0.4879690
  C       -2.2065840     2.0368470     0.9809810
  C       -2.4366510    -1.9182050    -0.7675160
  C       -3.5304630    -1.3875060    -0.0828830
  H        4.4130950    -1.6928310     0.0671840
  H        4.0710030    -0.5292960     1.3442740
  H        4.4878230     0.6919580    -0.7653020
  H        3.2457620    -0.2529490    -1.5933530
  H        1.9831950    -2.1398170    -0.2152240
  H        2.4267450    -2.3652010     1.4815110
  H        2.7768740     1.6847790     0.7291870
  H        2.2671880     1.9220510    -0.9540200
  H        0.3069530    -1.0243470     1.2170770
  H        1.5834140    -0.1085280     2.0346680
  H       -0.4031770    -1.5700500    -1.4080150
  H       -4.3043690     0.2928860     1.0181070
  H       -2.0253310     2.7815300     0.2022010
  H       -3.1368610     2.2826280     1.5002420
  H       -1.3844770     2.1136550     1.7007310
  H       -2.4977120    -2.9041740    -1.2220500
  H       -4.4499260    -1.9612690     0.0072960
units angstrom
no_reorient  #important for SAPT in psi4, default
symmetry c1  #important for SAPT in psi4, default
}

set PROPERTIES_ORIGIN ["COM"]
properties('MP2/aug-cc-pvtz', properties = ['dipole'])
--------------------------------------------------------------------------

    Molecular point group: c1
  Charge       = 0
  Multiplicity = 1
  Basis Set: AUG-CC-PVTZ
    Blend: AUG-CC-PVTZ
  Basis Set: (AUG-CC-PVTZ AUX)
    Blend: AUG-CC-PVTZ-JKFIT

    Orbital Energies [Eh]
    ---------------------

    Doubly Occupied:

       1A    -20.510544     2A    -15.583961     3A    -11.348668
       4A    -11.267031     5A    -11.254671     6A    -11.252371
       7A    -11.248782     8A    -11.245932     9A    -11.243381
      10A    -11.239479    11A    -11.237328    12A    -11.230610
      13A    -11.228303    14A    -11.225667    15A    -11.219689
      16A     -1.367640    17A     -1.249786    18A     -1.159921
      19A     -1.083905    20A     -1.051535    21A     -1.036946
      22A     -1.022518    23A     -0.943911    24A     -0.918495
      25A     -0.868028    26A     -0.845980    27A     -0.814822
      28A     -0.790168    29A     -0.743014    30A     -0.713379
      31A     -0.667747    32A     -0.653399    33A     -0.648357
      34A     -0.628050    35A     -0.619645    36A     -0.615293
      37A     -0.596207    38A     -0.588335    39A     -0.575669
      40A     -0.571560    41A     -0.560343    42A     -0.547366
      43A     -0.541206    44A     -0.525202    45A     -0.509065
      46A     -0.502003    47A     -0.490345    48A     -0.487686
      49A     -0.477902    50A     -0.469595    51A     -0.461559
      52A     -0.418699    53A     -0.366232    54A     -0.337977
      55A     -0.330675

  @DF-RHF Final Energy:  -631.72928122002611

   => Energetics <=

    Nuclear Repulsion Energy =           1000.0383427261514271
    One-Electron Energy =               -2843.2620839127853287
    Two-Electron Energy =                1211.4944599666077920
    Total Energy =                       -631.7292812200262233
  Basis Set: (AUG-CC-PVTZ AUX)
    Blend: AUG-CC-PVTZ-RI
    Molecular point group: c1

    Geometry (in Angstrom), charge = 0, multiplicity = 1:

       Center              X                  Y                   Z               Mass
    ------------   -----------------  -----------------  -----------------  -----------------
         O            0.055877650306     1.935736735236    -1.184024825320    15.994914619570
         N            1.255442650306     0.448113735236     0.084523174680    14.003074004430
         C            3.726550650306    -0.965734264764     0.432124174680    12.000000000000
         C            3.579169650306     0.154538735236    -0.598197825320    12.000000000000
         C            2.378503650306    -1.632791264764     0.708720174680    12.000000000000
         C            2.509149650306     1.152941735236    -0.166258825320    12.000000000000
         C            1.336422650306    -0.590772264764     1.105407174680    12.000000000000
         C            0.097674650306     0.914081735236    -0.484905825320    12.000000000000
         C           -1.123156549694     0.107856435236    -0.265421325320    12.000000000000
         C           -2.237446349694     0.640895735236     0.408354174680    12.000000000000
         C           -1.217330349694    -1.186420264764    -0.845702825320    12.000000000000
         C           -3.400470349694    -0.130122264764     0.512810174680    12.000000000000
         C           -2.161634349694     2.022100735236     1.005822174680    12.000000000000
         C           -2.391701349694    -1.932951264764    -0.742674825320    12.000000000000
         C           -3.485513349694    -1.402252264764    -0.058041825320    12.000000000000
         H            4.458044650306    -1.707577264764     0.092025174680     1.007825032230
         H            4.115952650306    -0.544042264764     1.369115174680     1.007825032230
         H            4.532772650306     0.677211735236    -0.740460825320     1.007825032230
         H            3.290711650306    -0.267695264764    -1.568511825320     1.007825032230
         H            2.028144650306    -2.154563264764    -0.190382825320     1.007825032230
         H            2.471694650306    -2.379947264764     1.506352174680     1.007825032230
         H            2.821823650306     1.670032735236     0.754028174680     1.007825032230
         H            2.312137650306     1.907304735236    -0.929178825320     1.007825032230
         H            0.351902650306    -1.039093264764     1.241918174680     1.007825032230
         H            1.628363650306    -0.123274264764     2.059509174680     1.007825032230
         H           -0.358227349694    -1.584796264764    -1.383173825320     1.007825032230
         H           -4.259419349694     0.278139735236     1.042948174680     1.007825032230
         H           -1.980381349694     2.766783735236     0.227042174680     1.007825032230
         H           -3.091911349694     2.267881735236     1.525083174680     1.007825032230
         H           -1.339527349694     2.098908735236     1.725572174680     1.007825032230
         H           -2.452762349694    -2.918920264764    -1.197208825320     1.007825032230
         H           -4.404976349694    -1.976015264764     0.032137174680     1.007825032230

  Basis Set: AUG-CC-PVTZ
    Blend: AUG-CC-PVTZ
  Basis Set: (AUG-CC-PVTZ AUX)
    Blend: AUG-CC-PVTZ-JKFIT
	 Reference Energy          =    -631.7292812200261096 [Eh]
	 Singles Energy            =      -0.0000000000000000 [Eh]
	 Same-Spin Energy          =      -0.6892671824335638 [Eh]
	 Opposite-Spin Energy      =      -2.2127036789601835 [Eh]
	 Correlation Energy        =      -2.9019708613937474 [Eh]
	 Total Energy              =    -634.6312520814198024 [Eh]

	 ================> DF-SCS-MP2 Energies <==================
	-----------------------------------------------------------
	 SCS Same-Spin Scale       =       0.3333333333333333 [-]
	 SCS Opposite-Spin Scale   =       1.2000000000000000 [-]
	 SCS Same-Spin Energy      =      -0.2297557274778546 [Eh]
	 SCS Opposite-Spin Energy  =      -2.6552444147522203 [Eh]
	 SCS Correlation Energy    =      -2.8850001422300751 [Eh]
	 SCS Total Energy          =    -634.6142813622561789 [Eh]
	-----------------------------------------------------------

  Dipole Moment: [D]
     X:     1.3907      Y:    -2.5384      Z:     2.3059     Total:     3.7006

*** Psi4 exiting successfully. Buy a developer a beer!
