                               Psi4 1.4a3.dev225

  ==> Input File <==

--------------------------------------------------------------------------
#psi4
#
memory 32 gb

molecule  {
0 1
  O        0.0109280     1.9504830    -1.2088660
  N        1.2104930     0.4628600     0.0596820
  C        3.6816010    -0.9509880     0.4072830
  C        3.5342200     0.1692850    -0.6230390
  C        2.3335540    -1.6180450     0.6838790
  C        2.4642000     1.1676880    -0.1911000
  C        1.2914730    -0.5760260     1.0805660
  C        0.0527250     0.9288280    -0.5097470
  C       -1.1808260     0.1020470    -0.2945890
  C       -2.2823960     0.6556420     0.3835130
  C       -1.2622800    -1.1716740    -0.8705440
  C       -3.4454200    -0.1153760     0.4879690
  C       -2.2065840     2.0368470     0.9809810
  C       -2.4366510    -1.9182050    -0.7675160
  C       -3.5304630    -1.3875060    -0.0828830
  H        4.4130950    -1.6928310     0.0671840
  H        4.0710030    -0.5292960     1.3442740
  H        4.4878230     0.6919580    -0.7653020
  H        3.2405021    -0.2606483    -1.6110463
  H        1.9831950    -2.1398170    -0.2152240
  H        2.4267450    -2.3652010     1.4815110
  H        2.7768740     1.6847790     0.7291870
  H        2.2671880     1.9220510    -0.9540200
  H        0.3069530    -1.0243470     1.2170770
  H        1.5834140    -0.1085280     2.0346680
  H       -0.4031770    -1.5700500    -1.4080150
  H       -4.3043690     0.2928860     1.0181070
  H       -2.0253310     2.7815300     0.2022010
  H       -3.1368610     2.2826280     1.5002420
  H       -1.3844770     2.1136550     1.7007310
  H       -2.4977120    -2.9041740    -1.2220500
  H       -4.4499260    -1.9612690     0.0072960
units angstrom
no_reorient  #important for SAPT in psi4, default
symmetry c1  #important for SAPT in psi4, default
}

set PROPERTIES_ORIGIN ["COM"]
properties('MP2/aug-cc-pvtz', properties = ['dipole'])
--------------------------------------------------------------------------

    Molecular point group: c1
  Charge       = 0
  Multiplicity = 1
  Basis Set: AUG-CC-PVTZ
    Blend: AUG-CC-PVTZ
  Basis Set: (AUG-CC-PVTZ AUX)
    Blend: AUG-CC-PVTZ-JKFIT

    Orbital Energies [Eh]
    ---------------------

    Doubly Occupied:

       1A    -20.510799     2A    -15.583928     3A    -11.349479
       4A    -11.267111     5A    -11.254865     6A    -11.251850
       7A    -11.246338     8A    -11.245015     9A    -11.242646
      10A    -11.239135    11A    -11.236976    12A    -11.230669
      13A    -11.228697    14A    -11.228009    15A    -11.220346
      16A     -1.367011    17A     -1.249611    18A     -1.161428
      19A     -1.083367    20A     -1.050804    21A     -1.037223
      22A     -1.022933    23A     -0.943180    24A     -0.918887
      25A     -0.866827    26A     -0.844142    27A     -0.815169
      28A     -0.790256    29A     -0.742362    30A     -0.712392
      31A     -0.666784    32A     -0.652757    33A     -0.648334
      34A     -0.627470    35A     -0.620134    36A     -0.615291
      37A     -0.596140    38A     -0.587976    39A     -0.575657
      40A     -0.571814    41A     -0.560326    42A     -0.547549
      43A     -0.541613    44A     -0.524752    45A     -0.507924
      46A     -0.501347    47A     -0.491403    48A     -0.489256
      49A     -0.477952    50A     -0.469214    51A     -0.461684
      52A     -0.416952    53A     -0.366294    54A     -0.339994
      55A     -0.330001

  @DF-RHF Final Energy:  -631.73017370685818

   => Energetics <=

    Nuclear Repulsion Energy =            999.8801199057637632
    One-Electron Energy =               -2842.9604460422128795
    Two-Electron Energy =                1211.3501524295907075
    Total Energy =                       -631.7301737068582952
  Basis Set: (AUG-CC-PVTZ AUX)
    Blend: AUG-CC-PVTZ-RI
    Molecular point group: c1

    Geometry (in Angstrom), charge = 0, multiplicity = 1:

       Center              X                  Y                   Z               Mass
    ------------   -----------------  -----------------  -----------------  -----------------
         O            0.056655171452     1.936989266507    -1.183681452099    15.994914619570
         N            1.256220171452     0.449366266507     0.084866547901    14.003074004430
         C            3.727328171452    -0.964481733493     0.432467547901    12.000000000000
         C            3.579947171452     0.155791266507    -0.597854452099    12.000000000000
         C            2.379281171452    -1.631538733493     0.709063547901    12.000000000000
         C            2.509927171452     1.154194266507    -0.165915452099    12.000000000000
         C            1.337200171452    -0.589519733493     1.105750547901    12.000000000000
         C            0.098452171452     0.915334266507    -0.484562452099    12.000000000000
         C           -1.135098828548     0.088553266507    -0.269404452099    12.000000000000
         C           -2.236668828548     0.642148266507     0.408697547901    12.000000000000
         C           -1.216552828548    -1.185167733493    -0.845359452099    12.000000000000
         C           -3.399692828548    -0.128869733493     0.513153547901    12.000000000000
         C           -2.160856828548     2.023353266507     1.006165547901    12.000000000000
         C           -2.390923828548    -1.931698733493    -0.742331452099    12.000000000000
         C           -3.484735828548    -1.400999733493    -0.057698452099    12.000000000000
         H            4.458822171452    -1.706324733493     0.092368547901     1.007825032230
         H            4.116730171452    -0.542789733493     1.369458547901     1.007825032230
         H            4.533550171452     0.678464266507    -0.740117452099     1.007825032230
         H            3.286229271452    -0.274142033493    -1.585861752099     1.007825032230
         H            2.028922171452    -2.153310733493    -0.190039452099     1.007825032230
         H            2.472472171452    -2.378694733493     1.506695547901     1.007825032230
         H            2.822601171452     1.671285266507     0.754371547901     1.007825032230
         H            2.312915171452     1.908557266507    -0.928835452099     1.007825032230
         H            0.352680171452    -1.037840733493     1.242261547901     1.007825032230
         H            1.629141171452    -0.122021733493     2.059852547901     1.007825032230
         H           -0.357449828548    -1.583543733493    -1.382830452099     1.007825032230
         H           -4.258641828548     0.279392266507     1.043291547901     1.007825032230
         H           -1.979603828548     2.768036266507     0.227385547901     1.007825032230
         H           -3.091133828548     2.269134266507     1.525426547901     1.007825032230
         H           -1.338749828548     2.100161266507     1.725915547901     1.007825032230
         H           -2.451984828548    -2.917667733493    -1.196865452099     1.007825032230
         H           -4.404198828548    -1.974762733493     0.032480547901     1.007825032230

  Basis Set: AUG-CC-PVTZ
    Blend: AUG-CC-PVTZ
  Basis Set: (AUG-CC-PVTZ AUX)
    Blend: AUG-CC-PVTZ-JKFIT
	 Reference Energy          =    -631.7301737068581815 [Eh]
	 Singles Energy            =      -0.0000000000000000 [Eh]
	 Same-Spin Energy          =      -0.6890244030067877 [Eh]
	 Opposite-Spin Energy      =      -2.2123997132253979 [Eh]
	 Correlation Energy        =      -2.9014241162321857 [Eh]
	 Total Energy              =    -634.6315978230903738 [Eh]

	 ================> DF-SCS-MP2 Energies <==================
	-----------------------------------------------------------
	 SCS Same-Spin Scale       =       0.3333333333333333 [-]
	 SCS Opposite-Spin Scale   =       1.2000000000000000 [-]
	 SCS Same-Spin Energy      =      -0.2296748010022626 [Eh]
	 SCS Opposite-Spin Energy  =      -2.6548796558704773 [Eh]
	 SCS Correlation Energy    =      -2.8845544568727397 [Eh]
	 SCS Total Energy          =    -634.6147281637308879 [Eh]
	-----------------------------------------------------------

  Dipole Moment: [D]
     X:     1.4054      Y:    -2.5162      Z:     2.3159     Total:     3.6972

*** Psi4 exiting successfully. Buy a developer a beer!
