                               Psi4 1.4a3.dev225

  ==> Input File <==

--------------------------------------------------------------------------
#psi4
#
memory 32 gb

molecule  {
0 1
  O        0.0109280     1.9504830    -1.2088660
  N        1.2104930     0.4628600     0.0596820
  C        3.6816010    -0.9509880     0.4072830
  C        3.5342200     0.1692850    -0.6230390
  C        2.3335540    -1.6180450     0.6838790
  C        2.4642000     1.1676880    -0.1911000
  C        1.2914730    -0.5760260     1.0805660
  C        0.0527250     0.9288280    -0.5097470
  C       -1.1096722     0.2276899    -0.2655803
  C       -2.2823960     0.6556420     0.3835130
  C       -1.2622800    -1.1716740    -0.8705440
  C       -3.4454200    -0.1153760     0.4879690
  C       -2.2065840     2.0368470     0.9809810
  C       -2.4366510    -1.9182050    -0.7675160
  C       -3.5304630    -1.3875060    -0.0828830
  H        4.4130950    -1.6928310     0.0671840
  H        4.0710030    -0.5292960     1.3442740
  H        4.4878230     0.6919580    -0.7653020
  H        3.2457620    -0.2529490    -1.5933530
  H        1.9831950    -2.1398170    -0.2152240
  H        2.4267450    -2.3652010     1.4815110
  H        2.7768740     1.6847790     0.7291870
  H        2.2671880     1.9220510    -0.9540200
  H        0.3069530    -1.0243470     1.2170770
  H        1.5834140    -0.1085280     2.0346680
  H       -0.4031770    -1.5700500    -1.4080150
  H       -4.3043690     0.2928860     1.0181070
  H       -2.0253310     2.7815300     0.2022010
  H       -3.1368610     2.2826280     1.5002420
  H       -1.3844770     2.1136550     1.7007310
  H       -2.4977120    -2.9041740    -1.2220500
  H       -4.4499260    -1.9612690     0.0072960
units angstrom
no_reorient  #important for SAPT in psi4, default
symmetry c1  #important for SAPT in psi4, default
}

set PROPERTIES_ORIGIN ["COM"]
properties('MP2/aug-cc-pvtz', properties = ['dipole'])
--------------------------------------------------------------------------

    Molecular point group: c1
  Charge       = 0
  Multiplicity = 1
  Basis Set: AUG-CC-PVTZ
    Blend: AUG-CC-PVTZ
  Basis Set: (AUG-CC-PVTZ AUX)
    Blend: AUG-CC-PVTZ-JKFIT

    Orbital Energies [Eh]
    ---------------------

    Doubly Occupied:

       1A    -20.508903     2A    -15.583702     3A    -11.343050
       4A    -11.266611     5A    -11.261373     6A    -11.255918
       7A    -11.254568     8A    -11.249080     9A    -11.247321
      10A    -11.241547    11A    -11.239501    12A    -11.230320
      13A    -11.228041    14A    -11.225373    15A    -11.216653
      16A     -1.371066    17A     -1.250328    18A     -1.154616
      19A     -1.085707    20A     -1.056926    21A     -1.035947
      22A     -1.020065    23A     -0.948878    24A     -0.915757
      25A     -0.872239    26A     -0.853160    27A     -0.814120
      28A     -0.786292    29A     -0.744801    30A     -0.718880
      31A     -0.673082    32A     -0.655648    33A     -0.648518
      34A     -0.628678    35A     -0.616826    36A     -0.614528
      37A     -0.593045    38A     -0.589600    39A     -0.576339
      40A     -0.570456    41A     -0.560544    42A     -0.546913
      43A     -0.539570    44A     -0.527616    45A     -0.514577
      46A     -0.502142    47A     -0.485814    48A     -0.481702
      49A     -0.470502    50A     -0.466156    51A     -0.461226
      52A     -0.423137    53A     -0.365947    54A     -0.336417
      55A     -0.326657

  @DF-RHF Final Energy:  -631.70059923016208

   => Energetics <=

    Nuclear Repulsion Energy =           1000.4770211639382751
    One-Electron Energy =               -2844.0424753204397348
    Two-Electron Energy =                1211.8648549263391487
    Total Energy =                       -631.7005992301621973
  Basis Set: (AUG-CC-PVTZ AUX)
    Blend: AUG-CC-PVTZ-RI
    Molecular point group: c1

    Geometry (in Angstrom), charge = 0, multiplicity = 1:

       Center              X                  Y                   Z               Mass
    ------------   -----------------  -----------------  -----------------  -----------------
         O            0.052425651591     1.929528690615    -1.185482930579    15.994914619570
         N            1.251990651591     0.441905690615     0.083065069421    14.003074004430
         C            3.723098651591    -0.971942309385     0.430666069421    12.000000000000
         C            3.575717651591     0.148330690615    -0.599655930579    12.000000000000
         C            2.375051651591    -1.638999309385     0.707262069421    12.000000000000
         C            2.505697651591     1.146733690615    -0.167716930579    12.000000000000
         C            1.332970651591    -0.596980309385     1.103949069421    12.000000000000
         C            0.094222651591     0.907873690615    -0.486363930579    12.000000000000
         C           -1.068174548409     0.206735590615    -0.242197230579    12.000000000000
         C           -2.240898348409     0.634687690615     0.406896069421    12.000000000000
         C           -1.220782348409    -1.192628309385    -0.847160930579    12.000000000000
         C           -3.403922348409    -0.136330309385     0.511352069421    12.000000000000
         C           -2.165086348409     2.015892690615     1.004364069421    12.000000000000
         C           -2.395153348409    -1.939159309385    -0.744132930579    12.000000000000
         C           -3.488965348409    -1.408460309385    -0.059499930579    12.000000000000
         H            4.454592651591    -1.713785309385     0.090567069421     1.007825032230
         H            4.112500651591    -0.550250309385     1.367657069421     1.007825032230
         H            4.529320651591     0.671003690615    -0.741918930579     1.007825032230
         H            3.287259651591    -0.273903309385    -1.569969930579     1.007825032230
         H            2.024692651591    -2.160771309385    -0.191840930579     1.007825032230
         H            2.468242651591    -2.386155309385     1.504894069421     1.007825032230
         H            2.818371651591     1.663824690615     0.752570069421     1.007825032230
         H            2.308685651591     1.901096690615    -0.930636930579     1.007825032230
         H            0.348450651591    -1.045301309385     1.240460069421     1.007825032230
         H            1.624911651591    -0.129482309385     2.058051069421     1.007825032230
         H           -0.361679348409    -1.591004309385    -1.384631930579     1.007825032230
         H           -4.262871348409     0.271931690615     1.041490069421     1.007825032230
         H           -1.983833348409     2.760575690615     0.225584069421     1.007825032230
         H           -3.095363348409     2.261673690615     1.523625069421     1.007825032230
         H           -1.342979348409     2.092700690615     1.724114069421     1.007825032230
         H           -2.456214348409    -2.925128309385    -1.198666930579     1.007825032230
         H           -4.408428348409    -1.982223309385     0.030679069421     1.007825032230

  Basis Set: AUG-CC-PVTZ
    Blend: AUG-CC-PVTZ
  Basis Set: (AUG-CC-PVTZ AUX)
    Blend: AUG-CC-PVTZ-JKFIT
	 Reference Energy          =    -631.7005992301620836 [Eh]
	 Singles Energy            =      -0.0000000000000000 [Eh]
	 Same-Spin Energy          =      -0.6911914268787333 [Eh]
	 Opposite-Spin Energy      =      -2.2164590465597045 [Eh]
	 Correlation Energy        =      -2.9076504734384376 [Eh]
	 Total Energy              =    -634.6082497036005634 [Eh]

	 ================> DF-SCS-MP2 Energies <==================
	-----------------------------------------------------------
	 SCS Same-Spin Scale       =       0.3333333333333333 [-]
	 SCS Opposite-Spin Scale   =       1.2000000000000000 [-]
	 SCS Same-Spin Energy      =      -0.2303971422929111 [Eh]
	 SCS Opposite-Spin Energy  =      -2.6597508558716454 [Eh]
	 SCS Correlation Energy    =      -2.8901479981645566 [Eh]
	 SCS Total Energy          =    -634.5907472283266770 [Eh]
	-----------------------------------------------------------

  Dipole Moment: [D]
     X:     1.3107      Y:    -2.6289      Z:     2.3115     Total:     3.7379

*** Psi4 exiting successfully. Buy a developer a beer!
