                               Psi4 1.4a3.dev225

  ==> Input File <==

--------------------------------------------------------------------------
#psi4
#
memory 32 gb

molecule  {
0 1
  O        0.0109280     1.9504830    -1.2088660
  N        1.2104930     0.4628600     0.0596820
  C        3.6816010    -0.9509880     0.4072830
  C        3.5342200     0.1692850    -0.6230390
  C        2.3335540    -1.6180450     0.6838790
  C        2.4642000     1.1676880    -0.1911000
  C        1.2803706    -0.4335941     0.9406021
  C        0.0527250     0.9288280    -0.5097470
  C       -1.1808260     0.1020470    -0.2945890
  C       -2.2823960     0.6556420     0.3835130
  C       -1.2622800    -1.1716740    -0.8705440
  C       -3.4454200    -0.1153760     0.4879690
  C       -2.2065840     2.0368470     0.9809810
  C       -2.4366510    -1.9182050    -0.7675160
  C       -3.5304630    -1.3875060    -0.0828830
  H        4.4130950    -1.6928310     0.0671840
  H        4.0710030    -0.5292960     1.3442740
  H        4.4878230     0.6919580    -0.7653020
  H        3.2457620    -0.2529490    -1.5933530
  H        1.9831950    -2.1398170    -0.2152240
  H        2.4267450    -2.3652010     1.4815110
  H        2.7768740     1.6847790     0.7291870
  H        2.2671880     1.9220510    -0.9540200
  H        0.3069530    -1.0243470     1.2170770
  H        1.5834140    -0.1085280     2.0346680
  H       -0.4031770    -1.5700500    -1.4080150
  H       -4.3043690     0.2928860     1.0181070
  H       -2.0253310     2.7815300     0.2022010
  H       -3.1368610     2.2826280     1.5002420
  H       -1.3844770     2.1136550     1.7007310
  H       -2.4977120    -2.9041740    -1.2220500
  H       -4.4499260    -1.9612690     0.0072960
units angstrom
no_reorient  #important for SAPT in psi4, default
symmetry c1  #important for SAPT in psi4, default
}

set PROPERTIES_ORIGIN ["COM"]
properties('MP2/aug-cc-pvtz', properties = ['dipole'])
--------------------------------------------------------------------------

    Molecular point group: c1
  Charge       = 0
  Multiplicity = 1
  Basis Set: AUG-CC-PVTZ
    Blend: AUG-CC-PVTZ
  Basis Set: (AUG-CC-PVTZ AUX)
    Blend: AUG-CC-PVTZ-JKFIT

    Orbital Energies [Eh]
    ---------------------

    Doubly Occupied:

       1A    -20.521598     2A    -15.588329     3A    -11.358701
       4A    -11.267375     5A    -11.260605     6A    -11.253675
       7A    -11.248776     8A    -11.247423     9A    -11.243929
      10A    -11.240277    11A    -11.238173    12A    -11.227820
      13A    -11.227449    14A    -11.224096    15A    -11.222107
      16A     -1.383830    17A     -1.302059    18A     -1.163514
      19A     -1.084577    20A     -1.052316    21A     -1.034837
      22A     -1.022795    23A     -0.947032    24A     -0.921430
      25A     -0.877797    26A     -0.848877    27A     -0.819744
      28A     -0.795489    29A     -0.746679    30A     -0.719646
      31A     -0.669766    32A     -0.663892    33A     -0.657910
      34A     -0.629920    35A     -0.624988    36A     -0.616760
      37A     -0.597828    38A     -0.592009    39A     -0.577682
      40A     -0.575612    41A     -0.566930    42A     -0.545190
      43A     -0.535406    44A     -0.524460    45A     -0.509749
      46A     -0.495118    47A     -0.491544    48A     -0.487841
      49A     -0.476432    50A     -0.470734    51A     -0.451987
      52A     -0.420312    53A     -0.353643    54A     -0.339933
      55A     -0.331361

  @DF-RHF Final Energy:  -631.68164261482866

   => Energetics <=

    Nuclear Repulsion Energy =           1003.8491695309285205
    One-Electron Energy =               -2850.4657002634739911
    Two-Electron Energy =                1214.9348881177168096
    Total Energy =                       -631.6816426148286610
  Basis Set: (AUG-CC-PVTZ AUX)
    Blend: AUG-CC-PVTZ-RI
    Molecular point group: c1

    Geometry (in Angstrom), charge = 0, multiplicity = 1:

       Center              X                  Y                   Z               Mass
    ------------   -----------------  -----------------  -----------------  -----------------
         O            0.057284950915     1.928536877519    -1.175500844839    15.994914619570
         N            1.256849950915     0.440913877519     0.093047155161    14.003074004430
         C            3.727957950915    -0.972934122481     0.440648155161    12.000000000000
         C            3.580576950915     0.147338877519    -0.589673844839    12.000000000000
         C            2.379910950915    -1.639991122481     0.717244155161    12.000000000000
         C            2.510556950915     1.145741877519    -0.157734844839    12.000000000000
         C            1.326727550915    -0.455540222481     0.973967255161    12.000000000000
         C            0.099081950915     0.906881877519    -0.476381844839    12.000000000000
         C           -1.134469049085     0.080100877519    -0.261223844839    12.000000000000
         C           -2.236039049085     0.633695877519     0.416878155161    12.000000000000
         C           -1.215923049085    -1.193620122481    -0.837178844839    12.000000000000
         C           -3.399063049085    -0.137322122481     0.521334155161    12.000000000000
         C           -2.160227049085     2.014900877519     1.014346155161    12.000000000000
         C           -2.390294049085    -1.940151122481    -0.734150844839    12.000000000000
         C           -3.484106049085    -1.409452122481    -0.049517844839    12.000000000000
         H            4.459451950915    -1.714777122481     0.100549155161     1.007825032230
         H            4.117359950915    -0.551242122481     1.377639155161     1.007825032230
         H            4.534179950915     0.670011877519    -0.731936844839     1.007825032230
         H            3.292118950915    -0.274895122481    -1.559987844839     1.007825032230
         H            2.029551950915    -2.161763122481    -0.181858844839     1.007825032230
         H            2.473101950915    -2.387147122481     1.514876155161     1.007825032230
         H            2.823230950915     1.662832877519     0.762552155161     1.007825032230
         H            2.313544950915     1.900104877519    -0.920654844839     1.007825032230
         H            0.353309950915    -1.046293122481     1.250442155161     1.007825032230
         H            1.629770950915    -0.130474122481     2.068033155161     1.007825032230
         H           -0.356820049085    -1.591996122481    -1.374649844839     1.007825032230
         H           -4.258012049085     0.270939877519     1.051472155161     1.007825032230
         H           -1.978974049085     2.759583877519     0.235566155161     1.007825032230
         H           -3.090504049085     2.260681877519     1.533607155161     1.007825032230
         H           -1.338120049085     2.091708877519     1.734096155161     1.007825032230
         H           -2.451355049085    -2.926120122481    -1.188684844839     1.007825032230
         H           -4.403569049085    -1.983215122481     0.040661155161     1.007825032230

  Basis Set: AUG-CC-PVTZ
    Blend: AUG-CC-PVTZ
  Basis Set: (AUG-CC-PVTZ AUX)
    Blend: AUG-CC-PVTZ-JKFIT
	 Reference Energy          =    -631.6816426148286610 [Eh]
	 Singles Energy            =      -0.0000000000000000 [Eh]
	 Same-Spin Energy          =      -0.6920490175951445 [Eh]
	 Opposite-Spin Energy      =      -2.2156668830202211 [Eh]
	 Correlation Energy        =      -2.9077159006153654 [Eh]
	 Total Energy              =    -634.5893585154440188 [Eh]

	 ================> DF-SCS-MP2 Energies <==================
	-----------------------------------------------------------
	 SCS Same-Spin Scale       =       0.3333333333333333 [-]
	 SCS Opposite-Spin Scale   =       1.2000000000000000 [-]
	 SCS Same-Spin Energy      =      -0.2306830058650481 [Eh]
	 SCS Opposite-Spin Energy  =      -2.6588002596242650 [Eh]
	 SCS Correlation Energy    =      -2.8894832654893130 [Eh]
	 SCS Total Energy          =    -634.5711258803179362 [Eh]
	-----------------------------------------------------------

  Dipole Moment: [D]
     X:     1.1129      Y:    -2.1405      Z:     1.8107     Total:     3.0165

*** Psi4 exiting successfully. Buy a developer a beer!
