                               Psi4 1.4a3.dev225

  ==> Input File <==

--------------------------------------------------------------------------
#psi4
#
memory 32 gb

molecule  {
0 1
  O        0.0109280     1.9504830    -1.2088660
  N        1.2104930     0.4628600     0.0596820
  C        3.6816010    -0.9509880     0.4072830
  C        3.5342200     0.1692850    -0.6230390
  C        2.3335540    -1.6180450     0.6838790
  C        2.4642000     1.1676880    -0.1911000
  C        1.2914730    -0.5760260     1.0805660
  C        0.0527250     0.9288280    -0.5097470
  C       -1.1808260     0.1020470    -0.2945890
  C       -2.2823960     0.6556420     0.3835130
  C       -1.2622800    -1.1716740    -0.8705440
  C       -3.4454200    -0.1153760     0.4879690
  C       -2.2065840     2.0368470     0.9809810
  C       -2.4366510    -1.9182050    -0.7675160
  C       -3.5304630    -1.3875060    -0.0828830
  H        4.4130950    -1.6928310     0.0671840
  H        4.0710030    -0.5292960     1.3442740
  H        4.4878230     0.6919580    -0.7653020
  H        3.2457620    -0.2529490    -1.5933530
  H        1.9831950    -2.1398170    -0.2152240
  H        2.4267450    -2.3652010     1.4815110
  H        2.7768740     1.6847790     0.7291870
  H        2.2671880     1.9220510    -0.9540200
  H        0.3069530    -1.0243470     1.2170770
  H        1.6364046    -0.0236718     2.2078483
  H       -0.4031770    -1.5700500    -1.4080150
  H       -4.3043690     0.2928860     1.0181070
  H       -2.0253310     2.7815300     0.2022010
  H       -3.1368610     2.2826280     1.5002420
  H       -1.3844770     2.1136550     1.7007310
  H       -2.4977120    -2.9041740    -1.2220500
  H       -4.4499260    -1.9612690     0.0072960
units angstrom
no_reorient  #important for SAPT in psi4, default
symmetry c1  #important for SAPT in psi4, default
}

set PROPERTIES_ORIGIN ["COM"]
properties('MP2/aug-cc-pvtz', properties = ['dipole'])
--------------------------------------------------------------------------

    Molecular point group: c1
  Charge       = 0
  Multiplicity = 1
  Basis Set: AUG-CC-PVTZ
    Blend: AUG-CC-PVTZ
  Basis Set: (AUG-CC-PVTZ AUX)
    Blend: AUG-CC-PVTZ-JKFIT

    Orbital Energies [Eh]
    ---------------------

    Doubly Occupied:

       1A    -20.513219     2A    -15.587495     3A    -11.351591
       4A    -11.289853     5A    -11.255013     6A    -11.252766
       7A    -11.247485     8A    -11.246136     9A    -11.243530
      10A    -11.240004    11A    -11.237733    12A    -11.233356
      13A    -11.228519    14A    -11.226126    15A    -11.220687
      16A     -1.369090    17A     -1.250838    18A     -1.162373
      19A     -1.084247    20A     -1.051568    21A     -1.037065
      22A     -1.021803    23A     -0.943167    24A     -0.916720
      25A     -0.864694    26A     -0.845072    27A     -0.816012
      28A     -0.791065    29A     -0.739006    30A     -0.712130
      31A     -0.667534    32A     -0.652551    33A     -0.644283
      34A     -0.628668    35A     -0.617828    36A     -0.614240
      37A     -0.596179    38A     -0.582875    39A     -0.576443
      40A     -0.571818    41A     -0.562009    42A     -0.548788
      43A     -0.541818    44A     -0.522627    45A     -0.508278
      46A     -0.495309    47A     -0.490814    48A     -0.486743
      49A     -0.479373    50A     -0.468142    51A     -0.462179
      52A     -0.418404    53A     -0.365642    54A     -0.341006
      55A     -0.330847

  @DF-RHF Final Energy:  -631.71127882352914

   => Energetics <=

    Nuclear Repulsion Energy =            998.9287814040145577
    One-Electron Energy =               -2840.9745984062874413
    Two-Electron Energy =                1210.3345381787439692
    Total Energy =                       -631.7112788235290282
  Basis Set: (AUG-CC-PVTZ AUX)
    Blend: AUG-CC-PVTZ-RI
    Molecular point group: c1

    Geometry (in Angstrom), charge = 0, multiplicity = 1:

       Center              X                  Y                   Z               Mass
    ------------   -----------------  -----------------  -----------------  -----------------
         O            0.056366164319     1.936530056720    -1.184628462544    15.994914619570
         N            1.255931164319     0.448907056720     0.083919537456    14.003074004430
         C            3.727039164319    -0.964940943280     0.431520537456    12.000000000000
         C            3.579658164319     0.155332056720    -0.598801462544    12.000000000000
         C            2.378992164319    -1.631997943280     0.708116537456    12.000000000000
         C            2.509638164319     1.153735056720    -0.166862462544    12.000000000000
         C            1.336911164319    -0.589978943280     1.104803537456    12.000000000000
         C            0.098163164319     0.914875056720    -0.485509462544    12.000000000000
         C           -1.135387835681     0.088094056720    -0.270351462544    12.000000000000
         C           -2.236957835681     0.641689056720     0.407750537456    12.000000000000
         C           -1.216841835681    -1.185626943280    -0.846306462544    12.000000000000
         C           -3.399981835681    -0.129328943280     0.512206537456    12.000000000000
         C           -2.161145835681     2.022894056720     1.005218537456    12.000000000000
         C           -2.391212835681    -1.932157943280    -0.743278462544    12.000000000000
         C           -3.485024835681    -1.401458943280    -0.058645462544    12.000000000000
         H            4.458533164319    -1.706783943280     0.091421537456     1.007825032230
         H            4.116441164319    -0.543248943280     1.368511537456     1.007825032230
         H            4.533261164319     0.678005056720    -0.741064462544     1.007825032230
         H            3.291200164319    -0.266901943280    -1.569115462544     1.007825032230
         H            2.028633164319    -2.153769943280    -0.190986462544     1.007825032230
         H            2.472183164319    -2.379153943280     1.505748537456     1.007825032230
         H            2.822312164319     1.670826056720     0.753424537456     1.007825032230
         H            2.312626164319     1.908098056720    -0.929782462544     1.007825032230
         H            0.352391164319    -1.038299943280     1.241314537456     1.007825032230
         H            1.681842764319    -0.037624743280     2.232085837456     1.007825032230
         H           -0.357738835681    -1.584002943280    -1.383777462544     1.007825032230
         H           -4.258930835681     0.278933056720     1.042344537456     1.007825032230
         H           -1.979892835681     2.767577056720     0.226438537456     1.007825032230
         H           -3.091422835681     2.268675056720     1.524479537456     1.007825032230
         H           -1.339038835681     2.099702056720     1.724968537456     1.007825032230
         H           -2.452273835681    -2.918126943280    -1.197812462544     1.007825032230
         H           -4.404487835681    -1.975221943280     0.031533537456     1.007825032230

  Basis Set: AUG-CC-PVTZ
    Blend: AUG-CC-PVTZ
  Basis Set: (AUG-CC-PVTZ AUX)
    Blend: AUG-CC-PVTZ-JKFIT
	 Reference Energy          =    -631.7112788235291418 [Eh]
	 Singles Energy            =      -0.0000000000000000 [Eh]
	 Same-Spin Energy          =      -0.6893621484253800 [Eh]
	 Opposite-Spin Energy      =      -2.2140788227562225 [Eh]
	 Correlation Energy        =      -2.9034409711816025 [Eh]
	 Total Energy              =    -634.6147197947107088 [Eh]

	 ================> DF-SCS-MP2 Energies <==================
	-----------------------------------------------------------
	 SCS Same-Spin Scale       =       0.3333333333333333 [-]
	 SCS Opposite-Spin Scale   =       1.2000000000000000 [-]
	 SCS Same-Spin Energy      =      -0.2297873828084600 [Eh]
	 SCS Opposite-Spin Energy  =      -2.6568945873074670 [Eh]
	 SCS Correlation Energy    =      -2.8866819701159270 [Eh]
	 SCS Total Energy          =    -634.5979607936450293 [Eh]
	-----------------------------------------------------------

  Dipole Moment: [D]
     X:     1.3052      Y:    -2.5304      Z:     2.0804     Total:     3.5263

*** Psi4 exiting successfully. Buy a developer a beer!
