                               Psi4 1.4a3.dev225

  ==> Input File <==

--------------------------------------------------------------------------
#psi4
#
memory 32 gb

molecule  {
0 1
  O        0.0109280     1.9504830    -1.2088660
  N        1.2104930     0.4628600     0.0596820
  C        3.6816010    -0.9509880     0.4072830
  C        3.5342200     0.1692850    -0.6230390
  C        2.3335540    -1.6180450     0.6838790
  C        2.5071366     1.1918268    -0.1996887
  C        1.2914730    -0.5760260     1.0805660
  C        0.0527250     0.9288280    -0.5097470
  C       -1.1808260     0.1020470    -0.2945890
  C       -2.2823960     0.6556420     0.3835130
  C       -1.2622800    -1.1716740    -0.8705440
  C       -3.4454200    -0.1153760     0.4879690
  C       -2.2065840     2.0368470     0.9809810
  C       -2.4366510    -1.9182050    -0.7675160
  C       -3.5304630    -1.3875060    -0.0828830
  H        4.4130950    -1.6928310     0.0671840
  H        4.0710030    -0.5292960     1.3442740
  H        4.4878230     0.6919580    -0.7653020
  H        3.2457620    -0.2529490    -1.5933530
  H        1.9831950    -2.1398170    -0.2152240
  H        2.4267450    -2.3652010     1.4815110
  H        2.7768740     1.6847790     0.7291870
  H        2.2671880     1.9220510    -0.9540200
  H        0.3069530    -1.0243470     1.2170770
  H        1.5834140    -0.1085280     2.0346680
  H       -0.4031770    -1.5700500    -1.4080150
  H       -4.3043690     0.2928860     1.0181070
  H       -2.0253310     2.7815300     0.2022010
  H       -3.1368610     2.2826280     1.5002420
  H       -1.3844770     2.1136550     1.7007310
  H       -2.4977120    -2.9041740    -1.2220500
  H       -4.4499260    -1.9612690     0.0072960
units angstrom
no_reorient  #important for SAPT in psi4, default
symmetry c1  #important for SAPT in psi4, default
}

set PROPERTIES_ORIGIN ["COM"]
properties('MP2/aug-cc-pvtz', properties = ['dipole'])
--------------------------------------------------------------------------

    Molecular point group: c1
  Charge       = 0
  Multiplicity = 1
  Basis Set: AUG-CC-PVTZ
    Blend: AUG-CC-PVTZ
  Basis Set: (AUG-CC-PVTZ AUX)
    Blend: AUG-CC-PVTZ-JKFIT

    Orbital Energies [Eh]
    ---------------------

    Doubly Occupied:

       1A    -20.508862     2A    -15.581952     3A    -11.347671
       4A    -11.265947     5A    -11.256625     6A    -11.251010
       7A    -11.245451     8A    -11.244079     9A    -11.241899
      10A    -11.238426    11A    -11.236276    12A    -11.230395
      13A    -11.229446    14A    -11.226735    15A    -11.219673
      16A     -1.364176    17A     -1.240982    18A     -1.160465
      19A     -1.084396    20A     -1.049900    21A     -1.036498
      22A     -1.023994    23A     -0.942190    24A     -0.918947
      25A     -0.864900    26A     -0.844704    27A     -0.814349
      28A     -0.790398    29A     -0.741839    30A     -0.709866
      31A     -0.666222    32A     -0.651531    33A     -0.647014
      34A     -0.629944    35A     -0.619099    36A     -0.614050
      37A     -0.597042    38A     -0.586162    39A     -0.574586
      40A     -0.571194    41A     -0.557746    42A     -0.548407
      43A     -0.541121    44A     -0.524553    45A     -0.509246
      46A     -0.503715    47A     -0.490666    48A     -0.489410
      49A     -0.480016    50A     -0.470958    51A     -0.460835
      52A     -0.414576    53A     -0.366194    54A     -0.339201
      55A     -0.329217

  @DF-RHF Final Energy:  -631.72851506775055

   => Energetics <=

    Nuclear Repulsion Energy =            998.9608100720233779
    One-Electron Energy =               -2841.1891404798780059
    Two-Electron Energy =                1210.4998153401040781
    Total Energy =                       -631.7285150677505499
  Basis Set: (AUG-CC-PVTZ AUX)
    Blend: AUG-CC-PVTZ-RI
    Molecular point group: c1

    Geometry (in Angstrom), charge = 0, multiplicity = 1:

       Center              X                  Y                   Z               Mass
    ------------   -----------------  -----------------  -----------------  -----------------
         O            0.054092587589     1.935525062981    -1.183261857633    15.994914619570
         N            1.253657587589     0.447902062981     0.085286142367    14.003074004430
         C            3.724765587589    -0.965945937019     0.432887142367    12.000000000000
         C            3.577384587589     0.154327062981    -0.597434857633    12.000000000000
         C            2.376718587589    -1.633002937019     0.709483142367    12.000000000000
         C            2.550301187589     1.176868862981    -0.174084557633    12.000000000000
         C            1.334637587589    -0.590983937019     1.106170142367    12.000000000000
         C            0.095889587589     0.913870062981    -0.484142857633    12.000000000000
         C           -1.137661412411     0.087089062981    -0.268984857633    12.000000000000
         C           -2.239231412411     0.640684062981     0.409117142367    12.000000000000
         C           -1.219115412411    -1.186631937019    -0.844939857633    12.000000000000
         C           -3.402255412411    -0.130333937019     0.513573142367    12.000000000000
         C           -2.163419412411     2.021889062981     1.006585142367    12.000000000000
         C           -2.393486412411    -1.933162937019    -0.741911857633    12.000000000000
         C           -3.487298412411    -1.402463937019    -0.057278857633    12.000000000000
         H            4.456259587589    -1.707788937019     0.092788142367     1.007825032230
         H            4.114167587589    -0.544253937019     1.369878142367     1.007825032230
         H            4.530987587589     0.677000062981    -0.739697857633     1.007825032230
         H            3.288926587589    -0.267906937019    -1.567748857633     1.007825032230
         H            2.026359587589    -2.154774937019    -0.189619857633     1.007825032230
         H            2.469909587589    -2.380158937019     1.507115142367     1.007825032230
         H            2.820038587589     1.669821062981     0.754791142367     1.007825032230
         H            2.310352587589     1.907093062981    -0.928415857633     1.007825032230
         H            0.350117587589    -1.039304937019     1.242681142367     1.007825032230
         H            1.626578587589    -0.123485937019     2.060272142367     1.007825032230
         H           -0.360012412411    -1.585007937019    -1.382410857633     1.007825032230
         H           -4.261204412411     0.277928062981     1.043711142367     1.007825032230
         H           -1.982166412411     2.766572062981     0.227805142367     1.007825032230
         H           -3.093696412411     2.267670062981     1.525846142367     1.007825032230
         H           -1.341312412411     2.098697062981     1.726335142367     1.007825032230
         H           -2.454547412411    -2.919131937019    -1.196445857633     1.007825032230
         H           -4.406761412411    -1.976226937019     0.032900142367     1.007825032230

  Basis Set: AUG-CC-PVTZ
    Blend: AUG-CC-PVTZ
  Basis Set: (AUG-CC-PVTZ AUX)
    Blend: AUG-CC-PVTZ-JKFIT
	 Reference Energy          =    -631.7285150677505499 [Eh]
	 Singles Energy            =      -0.0000000000000000 [Eh]
	 Same-Spin Energy          =      -0.6888960530138527 [Eh]
	 Opposite-Spin Energy      =      -2.2124388638805046 [Eh]
	 Correlation Energy        =      -2.9013349168943572 [Eh]
	 Total Energy              =    -634.6298499846449204 [Eh]

	 ================> DF-SCS-MP2 Energies <==================
	-----------------------------------------------------------
	 SCS Same-Spin Scale       =       0.3333333333333333 [-]
	 SCS Opposite-Spin Scale   =       1.2000000000000000 [-]
	 SCS Same-Spin Energy      =      -0.2296320176712842 [Eh]
	 SCS Opposite-Spin Energy  =      -2.6549266366566053 [Eh]
	 SCS Correlation Energy    =      -2.8845586543278894 [Eh]
	 SCS Total Energy          =    -634.6130737220784113 [Eh]
	-----------------------------------------------------------

  Dipole Moment: [D]
     X:     1.5581      Y:    -2.4887      Z:     2.3135     Total:     3.7381

*** Psi4 exiting successfully. Buy a developer a beer!
