                               Psi4 1.4a3.dev225

  ==> Input File <==

--------------------------------------------------------------------------
#psi4
#
memory 32 gb

molecule  {
0 1
  O        0.0109280     1.9504830    -1.2088660
  N        1.2104930     0.4628600     0.0596820
  C        3.6816010    -0.9509880     0.4072830
  C        3.5037398     0.1560460    -0.6646610
  C        2.3335540    -1.6180450     0.6838790
  C        2.4642000     1.1676880    -0.1911000
  C        1.2914730    -0.5760260     1.0805660
  C        0.0527250     0.9288280    -0.5097470
  C       -1.1808260     0.1020470    -0.2945890
  C       -2.2823960     0.6556420     0.3835130
  C       -1.2622800    -1.1716740    -0.8705440
  C       -3.4454200    -0.1153760     0.4879690
  C       -2.2065840     2.0368470     0.9809810
  C       -2.4366510    -1.9182050    -0.7675160
  C       -3.5304630    -1.3875060    -0.0828830
  H        4.4130950    -1.6928310     0.0671840
  H        4.0710030    -0.5292960     1.3442740
  H        4.4878230     0.6919580    -0.7653020
  H        3.2457620    -0.2529490    -1.5933530
  H        1.9831950    -2.1398170    -0.2152240
  H        2.4267450    -2.3652010     1.4815110
  H        2.7768740     1.6847790     0.7291870
  H        2.2671880     1.9220510    -0.9540200
  H        0.3069530    -1.0243470     1.2170770
  H        1.5834140    -0.1085280     2.0346680
  H       -0.4031770    -1.5700500    -1.4080150
  H       -4.3043690     0.2928860     1.0181070
  H       -2.0253310     2.7815300     0.2022010
  H       -3.1368610     2.2826280     1.5002420
  H       -1.3844770     2.1136550     1.7007310
  H       -2.4977120    -2.9041740    -1.2220500
  H       -4.4499260    -1.9612690     0.0072960
units angstrom
no_reorient  #important for SAPT in psi4, default
symmetry c1  #important for SAPT in psi4, default
}

set PROPERTIES_ORIGIN ["COM"]
properties('MP2/aug-cc-pvtz', properties = ['dipole'])
--------------------------------------------------------------------------

    Molecular point group: c1
  Charge       = 0
  Multiplicity = 1
  Basis Set: AUG-CC-PVTZ
    Blend: AUG-CC-PVTZ
  Basis Set: (AUG-CC-PVTZ AUX)
    Blend: AUG-CC-PVTZ-JKFIT

    Orbital Energies [Eh]
    ---------------------

    Doubly Occupied:

       1A    -20.510579     2A    -15.583311     3A    -11.349168
       4A    -11.266836     5A    -11.254640     6A    -11.251774
       7A    -11.246288     8A    -11.244941     9A    -11.242584
      10A    -11.239111    11A    -11.236940    12A    -11.229982
      13A    -11.228996    14A    -11.224919    15A    -11.220304
      16A     -1.366824    17A     -1.249517    18A     -1.161370
      19A     -1.081464    20A     -1.050731    21A     -1.037346
      22A     -1.022703    23A     -0.942846    24A     -0.918051
      25A     -0.867297    26A     -0.843291    27A     -0.815480
      28A     -0.793014    29A     -0.743964    30A     -0.711978
      31A     -0.666537    32A     -0.653448    33A     -0.648239
      34A     -0.627421    35A     -0.620364    36A     -0.615585
      37A     -0.596805    38A     -0.585681    39A     -0.575504
      40A     -0.571720    41A     -0.558611    42A     -0.544627
      43A     -0.541150    44A     -0.525309    45A     -0.511085
      46A     -0.505629    47A     -0.491944    48A     -0.489779
      49A     -0.482737    50A     -0.469411    51A     -0.454010
      52A     -0.416416    53A     -0.366128    54A     -0.339934
      55A     -0.329927

  @DF-RHF Final Energy:  -631.72748265569828

   => Energetics <=

    Nuclear Repulsion Energy =           1000.0848272137199046
    One-Electron Energy =               -2843.3761209509161745
    Two-Electron Energy =                1211.5638110814977608
    Total Energy =                       -631.7274826556983953
  Basis Set: (AUG-CC-PVTZ AUX)
    Blend: AUG-CC-PVTZ-RI
    Molecular point group: c1

    Geometry (in Angstrom), charge = 0, multiplicity = 1:

       Center              X                  Y                   Z               Mass
    ------------   -----------------  -----------------  -----------------  -----------------
         O            0.058429697821     1.937733163018    -1.181310409689    15.994914619570
         N            1.257994697821     0.450110163018     0.087237590311    14.003074004430
         C            3.729102697821    -0.963737836982     0.434838590311    12.000000000000
         C            3.551241497821     0.143296163018    -0.637105409689    12.000000000000
         C            2.381055697821    -1.630794836982     0.711434590311    12.000000000000
         C            2.511701697821     1.154938163018    -0.163544409689    12.000000000000
         C            1.338974697821    -0.588775836982     1.108121590311    12.000000000000
         C            0.100226697821     0.916078163018    -0.482191409689    12.000000000000
         C           -1.133324302179     0.089297163018    -0.267033409689    12.000000000000
         C           -2.234894302179     0.642892163018     0.411068590311    12.000000000000
         C           -1.214778302179    -1.184423836982    -0.842988409689    12.000000000000
         C           -3.397918302179    -0.128125836982     0.515524590311    12.000000000000
         C           -2.159082302179     2.024097163018     1.008536590311    12.000000000000
         C           -2.389149302179    -1.930954836982    -0.739960409689    12.000000000000
         C           -3.482961302179    -1.400255836982    -0.055327409689    12.000000000000
         H            4.460596697821    -1.705580836982     0.094739590311     1.007825032230
         H            4.118504697821    -0.542045836982     1.371829590311     1.007825032230
         H            4.535324697821     0.679208163018    -0.737746409689     1.007825032230
         H            3.293263697821    -0.265698836982    -1.565797409689     1.007825032230
         H            2.030696697821    -2.152566836982    -0.187668409689     1.007825032230
         H            2.474246697821    -2.377950836982     1.509066590311     1.007825032230
         H            2.824375697821     1.672029163018     0.756742590311     1.007825032230
         H            2.314689697821     1.909301163018    -0.926464409689     1.007825032230
         H            0.354454697821    -1.037096836982     1.244632590311     1.007825032230
         H            1.630915697821    -0.121277836982     2.062223590311     1.007825032230
         H           -0.355675302179    -1.582799836982    -1.380459409689     1.007825032230
         H           -4.256867302179     0.280136163018     1.045662590311     1.007825032230
         H           -1.977829302179     2.768780163018     0.229756590311     1.007825032230
         H           -3.089359302179     2.269878163018     1.527797590311     1.007825032230
         H           -1.336975302179     2.100905163018     1.728286590311     1.007825032230
         H           -2.450210302179    -2.916923836982    -1.194494409689     1.007825032230
         H           -4.402424302179    -1.974018836982     0.034851590311     1.007825032230

  Basis Set: AUG-CC-PVTZ
    Blend: AUG-CC-PVTZ
  Basis Set: (AUG-CC-PVTZ AUX)
    Blend: AUG-CC-PVTZ-JKFIT
	 Reference Energy          =    -631.7274826556982816 [Eh]
	 Singles Energy            =      -0.0000000000000000 [Eh]
	 Same-Spin Energy          =      -0.6889904288300259 [Eh]
	 Opposite-Spin Energy      =      -2.2123843715702787 [Eh]
	 Correlation Energy        =      -2.9013748004003048 [Eh]
	 Total Energy              =    -634.6288574560985580 [Eh]

	 ================> DF-SCS-MP2 Energies <==================
	-----------------------------------------------------------
	 SCS Same-Spin Scale       =       0.3333333333333333 [-]
	 SCS Opposite-Spin Scale   =       1.2000000000000000 [-]
	 SCS Same-Spin Energy      =      -0.2296634762766753 [Eh]
	 SCS Opposite-Spin Energy  =      -2.6548612458843341 [Eh]
	 SCS Correlation Energy    =      -2.8845247221610095 [Eh]
	 SCS Total Energy          =    -634.6120073778592996 [Eh]
	-----------------------------------------------------------

  Dipole Moment: [D]
     X:     1.3985      Y:    -2.5211      Z:     2.2928     Total:     3.6836

*** Psi4 exiting successfully. Buy a developer a beer!
