                               Psi4 1.4a3.dev225

  ==> Input File <==

--------------------------------------------------------------------------
#psi4
#
memory 32 gb

molecule  {
0 1
  O        0.0109280     1.9504830    -1.2088660
  N        1.2104930     0.4628600     0.0596820
  C        3.6816010    -0.9509880     0.4072830
  C        3.5342200     0.1692850    -0.6230390
  C        2.3335540    -1.6180450     0.6838790
  C        2.4642000     1.1676880    -0.1911000
  C        1.2914730    -0.5760260     1.0805660
  C        0.0527250     0.9288280    -0.5097470
  C       -1.1808260     0.1020470    -0.2945890
  C       -2.2823960     0.6556420     0.3835130
  C       -1.2622800    -1.1716740    -0.8705440
  C       -3.4454200    -0.1153760     0.4879690
  C       -2.2065840     2.0368470     0.9809810
  C       -2.4366510    -1.9182050    -0.7675160
  C       -3.5304630    -1.3875060    -0.0828830
  H        4.4130950    -1.6928310     0.0671840
  H        4.0710030    -0.5292960     1.3442740
  H        4.4878230     0.6919580    -0.7653020
  H        3.2457620    -0.2529490    -1.5933530
  H        1.9831950    -2.1398170    -0.2152240
  H        2.4267450    -2.3652010     1.4815110
  H        2.7626737     1.6612950     0.6873916
  H        2.2671880     1.9220510    -0.9540200
  H        0.3069530    -1.0243470     1.2170770
  H        1.5834140    -0.1085280     2.0346680
  H       -0.4031770    -1.5700500    -1.4080150
  H       -4.3043690     0.2928860     1.0181070
  H       -2.0253310     2.7815300     0.2022010
  H       -3.1368610     2.2826280     1.5002420
  H       -1.3844770     2.1136550     1.7007310
  H       -2.4977120    -2.9041740    -1.2220500
  H       -4.4499260    -1.9612690     0.0072960
units angstrom
no_reorient  #important for SAPT in psi4, default
symmetry c1  #important for SAPT in psi4, default
}

set PROPERTIES_ORIGIN ["COM"]
properties('MP2/aug-cc-pvtz', properties = ['dipole'])
--------------------------------------------------------------------------

    Molecular point group: c1
  Charge       = 0
  Multiplicity = 1
  Basis Set: AUG-CC-PVTZ
    Blend: AUG-CC-PVTZ
  Basis Set: (AUG-CC-PVTZ AUX)
    Blend: AUG-CC-PVTZ-JKFIT

    Orbital Energies [Eh]
    ---------------------

    Doubly Occupied:

       1A    -20.510378     2A    -15.583216     3A    -11.349075
       4A    -11.267030     5A    -11.251692     6A    -11.248366
       7A    -11.246165     8A    -11.244828     9A    -11.242508
      10A    -11.239006    11A    -11.236851    12A    -11.230558
      13A    -11.228293    14A    -11.225134    15A    -11.220254
      16A     -1.366636    17A     -1.249508    18A     -1.161292
      19A     -1.083581    20A     -1.050693    21A     -1.038082
      22A     -1.023439    23A     -0.943338    24A     -0.919816
      25A     -0.867659    26A     -0.844954    27A     -0.815131
      28A     -0.791715    29A     -0.744830    30A     -0.712118
      31A     -0.666602    32A     -0.653310    33A     -0.649694
      34A     -0.628540    35A     -0.620371    36A     -0.616229
      37A     -0.596767    38A     -0.588202    39A     -0.575516
      40A     -0.571842    41A     -0.559924    42A     -0.547181
      43A     -0.541581    44A     -0.525266    45A     -0.508572
      46A     -0.504005    47A     -0.491654    48A     -0.489299
      49A     -0.478569    50A     -0.469669    51A     -0.461523
      52A     -0.416588    53A     -0.366263    54A     -0.339845
      55A     -0.329855

  @DF-RHF Final Energy:  -631.72989449690499

   => Energetics <=

    Nuclear Repulsion Energy =           1000.2524809062322220
    One-Electron Energy =               -2843.6987241348756470
    Two-Electron Energy =                1211.7163487317384352
    Total Energy =                       -631.7298944969049899
  Basis Set: (AUG-CC-PVTZ AUX)
    Blend: AUG-CC-PVTZ-RI
    Molecular point group: c1

    Geometry (in Angstrom), charge = 0, multiplicity = 1:

       Center              X                  Y                   Z               Mass
    ------------   -----------------  -----------------  -----------------  -----------------
         O            0.056699528829     1.937067581558    -1.183561870657    15.994914619570
         N            1.256264528829     0.449444581558     0.084986129343    14.003074004430
         C            3.727372528829    -0.964403418442     0.432587129343    12.000000000000
         C            3.579991528829     0.155869581558    -0.597734870657    12.000000000000
         C            2.379325528829    -1.631460418442     0.709183129343    12.000000000000
         C            2.509971528829     1.154272581558    -0.165795870657    12.000000000000
         C            1.337244528829    -0.589441418442     1.105870129343    12.000000000000
         C            0.098496528829     0.915412581558    -0.484442870657    12.000000000000
         C           -1.135054471171     0.088631581558    -0.269284870657    12.000000000000
         C           -2.236624471171     0.642226581558     0.408817129343    12.000000000000
         C           -1.216508471171    -1.185089418442    -0.845239870657    12.000000000000
         C           -3.399648471171    -0.128791418442     0.513273129343    12.000000000000
         C           -2.160812471171     2.023431581558     1.006285129343    12.000000000000
         C           -2.390879471171    -1.931620418442    -0.742211870657    12.000000000000
         C           -3.484691471171    -1.400921418442    -0.057578870657    12.000000000000
         H            4.458866528829    -1.706246418442     0.092488129343     1.007825032230
         H            4.116774528829    -0.542711418442     1.369578129343     1.007825032230
         H            4.533594528829     0.678542581558    -0.739997870657     1.007825032230
         H            3.291533528829    -0.266364418442    -1.568048870657     1.007825032230
         H            2.028966528829    -2.153232418442    -0.189919870657     1.007825032230
         H            2.472516528829    -2.378616418442     1.506815129343     1.007825032230
         H            2.808445228829     1.647879581558     0.712695729343     1.007825032230
         H            2.312959528829     1.908635581558    -0.928715870657     1.007825032230
         H            0.352724528829    -1.037762418442     1.242381129343     1.007825032230
         H            1.629185528829    -0.121943418442     2.059972129343     1.007825032230
         H           -0.357405471171    -1.583465418442    -1.382710870657     1.007825032230
         H           -4.258597471171     0.279470581558     1.043411129343     1.007825032230
         H           -1.979559471171     2.768114581558     0.227505129343     1.007825032230
         H           -3.091089471171     2.269212581558     1.525546129343     1.007825032230
         H           -1.338705471171     2.100239581558     1.726035129343     1.007825032230
         H           -2.451940471171    -2.917589418442    -1.196745870657     1.007825032230
         H           -4.404154471171    -1.974684418442     0.032600129343     1.007825032230

  Basis Set: AUG-CC-PVTZ
    Blend: AUG-CC-PVTZ
  Basis Set: (AUG-CC-PVTZ AUX)
    Blend: AUG-CC-PVTZ-JKFIT
	 Reference Energy          =    -631.7298944969049899 [Eh]
	 Singles Energy            =      -0.0000000000000000 [Eh]
	 Same-Spin Energy          =      -0.6889665194267661 [Eh]
	 Opposite-Spin Energy      =      -2.2119492178237601 [Eh]
	 Correlation Energy        =      -2.9009157372505263 [Eh]
	 Total Energy              =    -634.6308102341555468 [Eh]

	 ================> DF-SCS-MP2 Energies <==================
	-----------------------------------------------------------
	 SCS Same-Spin Scale       =       0.3333333333333333 [-]
	 SCS Opposite-Spin Scale   =       1.2000000000000000 [-]
	 SCS Same-Spin Energy      =      -0.2296555064755887 [Eh]
	 SCS Opposite-Spin Energy  =      -2.6543390613885118 [Eh]
	 SCS Correlation Energy    =      -2.8839945678641006 [Eh]
	 SCS Total Energy          =    -634.6138890647690687 [Eh]
	-----------------------------------------------------------

  Dipole Moment: [D]
     X:     1.4321      Y:    -2.4982      Z:     2.3301     Total:     3.7042

*** Psi4 exiting successfully. Buy a developer a beer!
