                               Psi4 1.4a3.dev225

  ==> Input File <==

--------------------------------------------------------------------------
#psi4
#
memory 32 gb

molecule  {
0 1
  O        0.0109280     1.9504830    -1.2088660
  N        1.2104930     0.4628600     0.0596820
  C        3.6816010    -0.9509880     0.4072830
  C        3.6176980     0.2162285    -0.4952215
  C        2.3335540    -1.6180450     0.6838790
  C        2.4642000     1.1676880    -0.1911000
  C        1.2914730    -0.5760260     1.0805660
  C        0.0527250     0.9288280    -0.5097470
  C       -1.1808260     0.1020470    -0.2945890
  C       -2.2823960     0.6556420     0.3835130
  C       -1.2622800    -1.1716740    -0.8705440
  C       -3.4454200    -0.1153760     0.4879690
  C       -2.2065840     2.0368470     0.9809810
  C       -2.4366510    -1.9182050    -0.7675160
  C       -3.5304630    -1.3875060    -0.0828830
  H        4.4130950    -1.6928310     0.0671840
  H        4.0710030    -0.5292960     1.3442740
  H        4.4878230     0.6919580    -0.7653020
  H        3.2457620    -0.2529490    -1.5933530
  H        1.9831950    -2.1398170    -0.2152240
  H        2.4267450    -2.3652010     1.4815110
  H        2.7768740     1.6847790     0.7291870
  H        2.2671880     1.9220510    -0.9540200
  H        0.3069530    -1.0243470     1.2170770
  H        1.5834140    -0.1085280     2.0346680
  H       -0.4031770    -1.5700500    -1.4080150
  H       -4.3043690     0.2928860     1.0181070
  H       -2.0253310     2.7815300     0.2022010
  H       -3.1368610     2.2826280     1.5002420
  H       -1.3844770     2.1136550     1.7007310
  H       -2.4977120    -2.9041740    -1.2220500
  H       -4.4499260    -1.9612690     0.0072960
units angstrom
no_reorient  #important for SAPT in psi4, default
symmetry c1  #important for SAPT in psi4, default
}

set PROPERTIES_ORIGIN ["COM"]
properties('MP2/aug-cc-pvtz', properties = ['dipole'])
--------------------------------------------------------------------------

    Molecular point group: c1
  Charge       = 0
  Multiplicity = 1
  Basis Set: AUG-CC-PVTZ
    Blend: AUG-CC-PVTZ
  Basis Set: (AUG-CC-PVTZ AUX)
    Blend: AUG-CC-PVTZ-JKFIT

    Orbital Energies [Eh]
    ---------------------

    Doubly Occupied:

       1A    -20.511765     2A    -15.586240     3A    -11.350724
       4A    -11.268325     5A    -11.257223     6A    -11.252250
       7A    -11.246673     8A    -11.245420     9A    -11.242984
      10A    -11.239356    11A    -11.237235    12A    -11.233431
      13A    -11.233092    14A    -11.228675    15A    -11.220615
      16A     -1.367916    17A     -1.250578    18A     -1.161795
      19A     -1.091086    20A     -1.051181    21A     -1.038142
      22A     -1.025467    23A     -0.944559    24A     -0.921694
      25A     -0.871058    26A     -0.846952    27A     -0.815789
      28A     -0.789404    29A     -0.739544    30A     -0.714211
      31A     -0.667984    32A     -0.653386    33A     -0.649634
      34A     -0.632904    35A     -0.622233    36A     -0.616339
      37A     -0.598012    38A     -0.591034    39A     -0.576364
      40A     -0.572458    41A     -0.566294    42A     -0.554378
      43A     -0.542273    44A     -0.525478    45A     -0.508381
      46A     -0.497809    47A     -0.492354    48A     -0.491086
      49A     -0.479982    50A     -0.475416    51A     -0.432094
      52A     -0.418215    53A     -0.366196    54A     -0.340340
      55A     -0.330377

  @DF-RHF Final Energy:  -631.70590787056506

   => Energetics <=

    Nuclear Repulsion Energy =            999.6213240439591345
    One-Electron Energy =               -2842.2856553026836082
    Two-Electron Energy =                1210.9584233881594173
    Total Energy =                       -631.7059078705649426
  Basis Set: (AUG-CC-PVTZ AUX)
    Blend: AUG-CC-PVTZ-RI
    Molecular point group: c1

    Geometry (in Angstrom), charge = 0, multiplicity = 1:

       Center              X                  Y                   Z               Mass
    ------------   -----------------  -----------------  -----------------  -----------------
         O            0.051697597332     1.934177871361    -1.191320077628    15.994914619570
         N            1.251262597332     0.446554871361     0.077227922372    14.003074004430
         C            3.722370597332    -0.967293128639     0.424828922372    12.000000000000
         C            3.658467597332     0.199923371361    -0.477675577628    12.000000000000
         C            2.374323597332    -1.634350128639     0.701424922372    12.000000000000
         C            2.504969597332     1.151382871361    -0.173554077628    12.000000000000
         C            1.332242597332    -0.592331128639     1.098111922372    12.000000000000
         C            0.093494597332     0.912522871361    -0.492201077628    12.000000000000
         C           -1.140056402668     0.085741871361    -0.277043077628    12.000000000000
         C           -2.241626402668     0.639336871361     0.401058922372    12.000000000000
         C           -1.221510402668    -1.187979128639    -0.852998077628    12.000000000000
         C           -3.404650402668    -0.131681128639     0.505514922372    12.000000000000
         C           -2.165814402668     2.020541871361     0.998526922372    12.000000000000
         C           -2.395881402668    -1.934510128639    -0.749970077628    12.000000000000
         C           -3.489693402668    -1.403811128639    -0.065337077628    12.000000000000
         H            4.453864597332    -1.709136128639     0.084729922372     1.007825032230
         H            4.111772597332    -0.545601128639     1.361819922372     1.007825032230
         H            4.528592597332     0.675652871361    -0.747756077628     1.007825032230
         H            3.286531597332    -0.269254128639    -1.575807077628     1.007825032230
         H            2.023964597332    -2.156122128639    -0.197678077628     1.007825032230
         H            2.467514597332    -2.381506128639     1.499056922372     1.007825032230
         H            2.817643597332     1.668473871361     0.746732922372     1.007825032230
         H            2.307957597332     1.905745871361    -0.936474077628     1.007825032230
         H            0.347722597332    -1.040652128639     1.234622922372     1.007825032230
         H            1.624183597332    -0.124833128639     2.052213922372     1.007825032230
         H           -0.362407402668    -1.586355128639    -1.390469077628     1.007825032230
         H           -4.263599402668     0.276580871361     1.035652922372     1.007825032230
         H           -1.984561402668     2.765224871361     0.219746922372     1.007825032230
         H           -3.096091402668     2.266322871361     1.517787922372     1.007825032230
         H           -1.343707402668     2.097349871361     1.718276922372     1.007825032230
         H           -2.456942402668    -2.920479128639    -1.204504077628     1.007825032230
         H           -4.409156402668    -1.977574128639     0.024841922372     1.007825032230

  Basis Set: AUG-CC-PVTZ
    Blend: AUG-CC-PVTZ
  Basis Set: (AUG-CC-PVTZ AUX)
    Blend: AUG-CC-PVTZ-JKFIT
	 Reference Energy          =    -631.7059078705650563 [Eh]
	 Singles Energy            =      -0.0000000000000000 [Eh]
	 Same-Spin Energy          =      -0.6897432724314077 [Eh]
	 Opposite-Spin Energy      =      -2.2137705840951889 [Eh]
	 Correlation Energy        =      -2.9035138565265965 [Eh]
	 Total Energy              =    -634.6094217270916715 [Eh]

	 ================> DF-SCS-MP2 Energies <==================
	-----------------------------------------------------------
	 SCS Same-Spin Scale       =       0.3333333333333333 [-]
	 SCS Opposite-Spin Scale   =       1.2000000000000000 [-]
	 SCS Same-Spin Energy      =      -0.2299144241438025 [Eh]
	 SCS Opposite-Spin Energy  =      -2.6565247009142268 [Eh]
	 SCS Correlation Energy    =      -2.8864391250580295 [Eh]
	 SCS Total Energy          =    -634.5923469956230747 [Eh]
	-----------------------------------------------------------

  Dipole Moment: [D]
     X:     1.3909      Y:    -2.5095      Z:     2.4080     Total:     3.7457

*** Psi4 exiting successfully. Buy a developer a beer!
