                               Psi4 1.4a3.dev225

  ==> Input File <==

--------------------------------------------------------------------------
#psi4
#
memory 32 gb

molecule  {
0 1
  O        0.0109280     1.9504830    -1.2088660
  N        1.2104930     0.4628600     0.0596820
  C        3.6816010    -0.9509880     0.4072830
  C        3.5216342     0.1208116    -0.5290428
  C        2.3335540    -1.6180450     0.6838790
  C        2.4642000     1.1676880    -0.1911000
  C        1.2914730    -0.5760260     1.0805660
  C        0.0527250     0.9288280    -0.5097470
  C       -1.1808260     0.1020470    -0.2945890
  C       -2.2823960     0.6556420     0.3835130
  C       -1.2622800    -1.1716740    -0.8705440
  C       -3.4454200    -0.1153760     0.4879690
  C       -2.2065840     2.0368470     0.9809810
  C       -2.4366510    -1.9182050    -0.7675160
  C       -3.5304630    -1.3875060    -0.0828830
  H        4.4130950    -1.6928310     0.0671840
  H        4.0710030    -0.5292960     1.3442740
  H        4.4878230     0.6919580    -0.7653020
  H        3.2457620    -0.2529490    -1.5933530
  H        1.9831950    -2.1398170    -0.2152240
  H        2.4267450    -2.3652010     1.4815110
  H        2.7768740     1.6847790     0.7291870
  H        2.2671880     1.9220510    -0.9540200
  H        0.3069530    -1.0243470     1.2170770
  H        1.5834140    -0.1085280     2.0346680
  H       -0.4031770    -1.5700500    -1.4080150
  H       -4.3043690     0.2928860     1.0181070
  H       -2.0253310     2.7815300     0.2022010
  H       -3.1368610     2.2826280     1.5002420
  H       -1.3844770     2.1136550     1.7007310
  H       -2.4977120    -2.9041740    -1.2220500
  H       -4.4499260    -1.9612690     0.0072960
units angstrom
no_reorient  #important for SAPT in psi4, default
symmetry c1  #important for SAPT in psi4, default
}

set PROPERTIES_ORIGIN ["COM"]
properties('MP2/aug-cc-pvtz', properties = ['dipole'])
--------------------------------------------------------------------------

    Molecular point group: c1
  Charge       = 0
  Multiplicity = 1
  Basis Set: AUG-CC-PVTZ
    Blend: AUG-CC-PVTZ
  Basis Set: (AUG-CC-PVTZ AUX)
    Blend: AUG-CC-PVTZ-JKFIT

    Orbital Energies [Eh]
    ---------------------

    Doubly Occupied:

       1A    -20.511063     2A    -15.583622     3A    -11.349416
       4A    -11.267980     5A    -11.256509     6A    -11.251900
       7A    -11.246322     8A    -11.244992     9A    -11.242684
      10A    -11.239159    11A    -11.237023    12A    -11.231530
      13A    -11.231375    14A    -11.225328    15A    -11.220418
      16A     -1.367319    17A     -1.251188    18A     -1.161565
      19A     -1.097288    20A     -1.050975    21A     -1.037170
      22A     -1.024276    23A     -0.944973    24A     -0.922339
      25A     -0.866192    26A     -0.846786    27A     -0.814598
      28A     -0.786163    29A     -0.743109    30A     -0.713373
      31A     -0.668181    32A     -0.652293    33A     -0.649431
      34A     -0.629410    35A     -0.619789    36A     -0.615362
      37A     -0.602005    38A     -0.590208    39A     -0.575952
      40A     -0.573264    41A     -0.563598    42A     -0.547450
      43A     -0.542460    44A     -0.524813    45A     -0.508143
      46A     -0.499929    47A     -0.491818    48A     -0.491024
      49A     -0.482841    50A     -0.466228    51A     -0.451725
      52A     -0.416995    53A     -0.365128    54A     -0.340078
      55A     -0.330070

  @DF-RHF Final Energy:  -631.71714138375546

   => Energetics <=

    Nuclear Repulsion Energy =           1001.3482897597242527
    One-Electron Energy =               -2845.8011981155527792
    Two-Electron Energy =                1212.7357669720731792
    Total Energy =                       -631.7171413837554610
  Basis Set: (AUG-CC-PVTZ AUX)
    Blend: AUG-CC-PVTZ-RI
    Molecular point group: c1

    Geometry (in Angstrom), charge = 0, multiplicity = 1:

       Center              X                  Y                   Z               Mass
    ------------   -----------------  -----------------  -----------------  -----------------
         O            0.057372583028     1.939814641328    -1.189322078447    15.994914619570
         N            1.256937583028     0.452191641328     0.079225921553    14.003074004430
         C            3.728045583028    -0.961656358672     0.426826921553    12.000000000000
         C            3.568078783028     0.110143241328    -0.509498878447    12.000000000000
         C            2.379998583028    -1.628713358672     0.703422921553    12.000000000000
         C            2.510644583028     1.157019641328    -0.171556078447    12.000000000000
         C            1.337917583028    -0.586694358672     1.100109921553    12.000000000000
         C            0.099169583028     0.918159641328    -0.490203078447    12.000000000000
         C           -1.134381416972     0.091378641328    -0.275045078447    12.000000000000
         C           -2.235951416972     0.644973641328     0.403056921553    12.000000000000
         C           -1.215835416972    -1.182342358672    -0.851000078447    12.000000000000
         C           -3.398975416972    -0.126044358672     0.507512921553    12.000000000000
         C           -2.160139416972     2.026178641328     1.000524921553    12.000000000000
         C           -2.390206416972    -1.928873358672    -0.747972078447    12.000000000000
         C           -3.484018416972    -1.398174358672    -0.063339078447    12.000000000000
         H            4.459539583028    -1.703499358672     0.086727921553     1.007825032230
         H            4.117447583028    -0.539964358672     1.363817921553     1.007825032230
         H            4.534267583028     0.681289641328    -0.745758078447     1.007825032230
         H            3.292206583028    -0.263617358672    -1.573809078447     1.007825032230
         H            2.029639583028    -2.150485358672    -0.195680078447     1.007825032230
         H            2.473189583028    -2.375869358672     1.501054921553     1.007825032230
         H            2.823318583028     1.674110641328     0.748730921553     1.007825032230
         H            2.313632583028     1.911382641328    -0.934476078447     1.007825032230
         H            0.353397583028    -1.035015358672     1.236620921553     1.007825032230
         H            1.629858583028    -0.119196358672     2.054211921553     1.007825032230
         H           -0.356732416972    -1.580718358672    -1.388471078447     1.007825032230
         H           -4.257924416972     0.282217641328     1.037650921553     1.007825032230
         H           -1.978886416972     2.770861641328     0.221744921553     1.007825032230
         H           -3.090416416972     2.271959641328     1.519785921553     1.007825032230
         H           -1.338032416972     2.102986641328     1.720274921553     1.007825032230
         H           -2.451267416972    -2.914842358672    -1.202506078447     1.007825032230
         H           -4.403481416972    -1.971937358672     0.026839921553     1.007825032230

  Basis Set: AUG-CC-PVTZ
    Blend: AUG-CC-PVTZ
  Basis Set: (AUG-CC-PVTZ AUX)
    Blend: AUG-CC-PVTZ-JKFIT
	 Reference Energy          =    -631.7171413837554610 [Eh]
	 Singles Energy            =      -0.0000000000000000 [Eh]
	 Same-Spin Energy          =      -0.6901422657388612 [Eh]
	 Opposite-Spin Energy      =      -2.2136774880775780 [Eh]
	 Correlation Energy        =      -2.9038197538164390 [Eh]
	 Total Energy              =    -634.6209611375719533 [Eh]

	 ================> DF-SCS-MP2 Energies <==================
	-----------------------------------------------------------
	 SCS Same-Spin Scale       =       0.3333333333333333 [-]
	 SCS Opposite-Spin Scale   =       1.2000000000000000 [-]
	 SCS Same-Spin Energy      =      -0.2300474219129537 [Eh]
	 SCS Opposite-Spin Energy  =      -2.6564129856930934 [Eh]
	 SCS Correlation Energy    =      -2.8864604076060472 [Eh]
	 SCS Total Energy          =    -634.6036017913614842 [Eh]
	-----------------------------------------------------------

  Dipole Moment: [D]
     X:     1.3989      Y:    -2.5512      Z:     2.3626     Total:     3.7480

*** Psi4 exiting successfully. Buy a developer a beer!
