                               Psi4 1.4a3.dev225

  ==> Input File <==

--------------------------------------------------------------------------
#psi4
#
memory 32 gb

molecule  {
0 1
  O        0.0109280     1.9504830    -1.2088660
  N        1.2602142     0.4061754     0.1282305
  C        3.6816010    -0.9509880     0.4072830
  C        3.5342200     0.1692850    -0.6230390
  C        2.3335540    -1.6180450     0.6838790
  C        2.4642000     1.1676880    -0.1911000
  C        1.2914730    -0.5760260     1.0805660
  C        0.0527250     0.9288280    -0.5097470
  C       -1.1808260     0.1020470    -0.2945890
  C       -2.2823960     0.6556420     0.3835130
  C       -1.2622800    -1.1716740    -0.8705440
  C       -3.4454200    -0.1153760     0.4879690
  C       -2.2065840     2.0368470     0.9809810
  C       -2.4366510    -1.9182050    -0.7675160
  C       -3.5304630    -1.3875060    -0.0828830
  H        4.4130950    -1.6928310     0.0671840
  H        4.0710030    -0.5292960     1.3442740
  H        4.4878230     0.6919580    -0.7653020
  H        3.2457620    -0.2529490    -1.5933530
  H        1.9831950    -2.1398170    -0.2152240
  H        2.4267450    -2.3652010     1.4815110
  H        2.7768740     1.6847790     0.7291870
  H        2.2671880     1.9220510    -0.9540200
  H        0.3069530    -1.0243470     1.2170770
  H        1.5834140    -0.1085280     2.0346680
  H       -0.4031770    -1.5700500    -1.4080150
  H       -4.3043690     0.2928860     1.0181070
  H       -2.0253310     2.7815300     0.2022010
  H       -3.1368610     2.2826280     1.5002420
  H       -1.3844770     2.1136550     1.7007310
  H       -2.4977120    -2.9041740    -1.2220500
  H       -4.4499260    -1.9612690     0.0072960
units angstrom
no_reorient  #important for SAPT in psi4, default
symmetry c1  #important for SAPT in psi4, default
}

set PROPERTIES_ORIGIN ["COM"]
properties('MP2/aug-cc-pvtz', properties = ['dipole'])
--------------------------------------------------------------------------

    Molecular point group: c1
  Charge       = 0
  Multiplicity = 1
  Basis Set: AUG-CC-PVTZ
    Blend: AUG-CC-PVTZ
  Basis Set: (AUG-CC-PVTZ AUX)
    Blend: AUG-CC-PVTZ-JKFIT

    Orbital Energies [Eh]
    ---------------------

    Doubly Occupied:

       1A    -20.529238     2A    -15.578040     3A    -11.363826
       4A    -11.255726     5A    -11.254224     6A    -11.252776
       7A    -11.248630     8A    -11.247444     9A    -11.244484
      10A    -11.240702    11A    -11.238709    12A    -11.224949
      13A    -11.223877    14A    -11.222620    15A    -11.221884
      16A     -1.371898    17A     -1.259082    18A     -1.163605
      19A     -1.074720    20A     -1.052558    21A     -1.036546
      22A     -1.027753    23A     -0.943240    24A     -0.905290
      25A     -0.867367    26A     -0.847418    27A     -0.817033
      28A     -0.786518    29A     -0.745416    30A     -0.712118
      31A     -0.671155    32A     -0.654159    33A     -0.649473
      34A     -0.623934    35A     -0.622326    36A     -0.615739
      37A     -0.596964    38A     -0.585009    39A     -0.578213
      40A     -0.574708    41A     -0.569371    42A     -0.546733
      43A     -0.543279    44A     -0.521744    45A     -0.510906
      46A     -0.500024    47A     -0.492490    48A     -0.488966
      49A     -0.479078    50A     -0.464170    51A     -0.463449
      52A     -0.420114    53A     -0.355827    54A     -0.342023
      55A     -0.332080

  @DF-RHF Final Energy:  -631.71307945063063

   => Energetics <=

    Nuclear Repulsion Energy =            999.7796365967759584
    One-Electron Energy =               -2842.6661905489299897
    Two-Electron Energy =                1211.1734745015232875
    Total Energy =                       -631.7130794506306302
  Basis Set: (AUG-CC-PVTZ AUX)
    Blend: AUG-CC-PVTZ-RI
    Molecular point group: c1

    Geometry (in Angstrom), charge = 0, multiplicity = 1:

       Center              X                  Y                   Z               Mass
    ------------   -----------------  -----------------  -----------------  -----------------
         O            0.053201485638     1.940858685978    -1.188494707589    15.994914619570
         N            1.302487685638     0.396551085978     0.148601792411    14.003074004430
         C            3.723874485638    -0.960612314022     0.427654292411    12.000000000000
         C            3.576493485638     0.159660685978    -0.602667707589    12.000000000000
         C            2.375827485638    -1.627669314022     0.704250292411    12.000000000000
         C            2.506473485638     1.158063685978    -0.170728707589    12.000000000000
         C            1.333746485638    -0.585650314022     1.100937292411    12.000000000000
         C            0.094998485638     0.919203685978    -0.489375707589    12.000000000000
         C           -1.138552514362     0.092422685978    -0.274217707589    12.000000000000
         C           -2.240122514362     0.646017685978     0.403884292411    12.000000000000
         C           -1.220006514362    -1.181298314022    -0.850172707589    12.000000000000
         C           -3.403146514362    -0.125000314022     0.508340292411    12.000000000000
         C           -2.164310514362     2.027222685978     1.001352292411    12.000000000000
         C           -2.394377514362    -1.927829314022    -0.747144707589    12.000000000000
         C           -3.488189514362    -1.397130314022    -0.062511707589    12.000000000000
         H            4.455368485638    -1.702455314022     0.087555292411     1.007825032230
         H            4.113276485638    -0.538920314022     1.364645292411     1.007825032230
         H            4.530096485638     0.682333685978    -0.744930707589     1.007825032230
         H            3.288035485638    -0.262573314022    -1.572981707589     1.007825032230
         H            2.025468485638    -2.149441314022    -0.194852707589     1.007825032230
         H            2.469018485638    -2.374825314022     1.501882292411     1.007825032230
         H            2.819147485638     1.675154685978     0.749558292411     1.007825032230
         H            2.309461485638     1.912426685978    -0.933648707589     1.007825032230
         H            0.349226485638    -1.033971314022     1.237448292411     1.007825032230
         H            1.625687485638    -0.118152314022     2.055039292411     1.007825032230
         H           -0.360903514362    -1.579674314022    -1.387643707589     1.007825032230
         H           -4.262095514362     0.283261685978     1.038478292411     1.007825032230
         H           -1.983057514362     2.771905685978     0.222572292411     1.007825032230
         H           -3.094587514362     2.273003685978     1.520613292411     1.007825032230
         H           -1.342203514362     2.104030685978     1.721102292411     1.007825032230
         H           -2.455438514362    -2.913798314022    -1.201678707589     1.007825032230
         H           -4.407652514362    -1.970893314022     0.027667292411     1.007825032230

  Basis Set: AUG-CC-PVTZ
    Blend: AUG-CC-PVTZ
  Basis Set: (AUG-CC-PVTZ AUX)
    Blend: AUG-CC-PVTZ-JKFIT
	 Reference Energy          =    -631.7130794506306302 [Eh]
	 Singles Energy            =      -0.0000000000000000 [Eh]
	 Same-Spin Energy          =      -0.6907040519179958 [Eh]
	 Opposite-Spin Energy      =      -2.2150606636244961 [Eh]
	 Correlation Energy        =      -2.9057647155424919 [Eh]
	 Total Energy              =    -634.6188441661731758 [Eh]

	 ================> DF-SCS-MP2 Energies <==================
	-----------------------------------------------------------
	 SCS Same-Spin Scale       =       0.3333333333333333 [-]
	 SCS Opposite-Spin Scale   =       1.2000000000000000 [-]
	 SCS Same-Spin Energy      =      -0.2302346839726652 [Eh]
	 SCS Opposite-Spin Energy  =      -2.6580727963493951 [Eh]
	 SCS Correlation Energy    =      -2.8883074803220605 [Eh]
	 SCS Total Energy          =    -634.6013869309526854 [Eh]
	-----------------------------------------------------------

  Dipole Moment: [D]
     X:     0.9322      Y:    -2.1960      Z:     1.9703     Total:     3.0941

*** Psi4 exiting successfully. Buy a developer a beer!
