                               Psi4 1.4a3.dev225

  ==> Input File <==

--------------------------------------------------------------------------
#psi4
#
memory 32 gb

molecule  {
0 1
  O        0.0109280     1.9504830    -1.2088660
  N        1.2104930     0.4628600     0.0596820
  C        3.6816010    -0.9509880     0.4072830
  C        3.5342200     0.1692850    -0.6230390
  C        2.4022874    -1.7558532     0.6401992
  C        2.4642000     1.1676880    -0.1911000
  C        1.2914730    -0.5760260     1.0805660
  C        0.0527250     0.9288280    -0.5097470
  C       -1.1808260     0.1020470    -0.2945890
  C       -2.2823960     0.6556420     0.3835130
  C       -1.2622800    -1.1716740    -0.8705440
  C       -3.4454200    -0.1153760     0.4879690
  C       -2.2065840     2.0368470     0.9809810
  C       -2.4366510    -1.9182050    -0.7675160
  C       -3.5304630    -1.3875060    -0.0828830
  H        4.4130950    -1.6928310     0.0671840
  H        4.0710030    -0.5292960     1.3442740
  H        4.4878230     0.6919580    -0.7653020
  H        3.2457620    -0.2529490    -1.5933530
  H        1.9831950    -2.1398170    -0.2152240
  H        2.4267450    -2.3652010     1.4815110
  H        2.7768740     1.6847790     0.7291870
  H        2.2671880     1.9220510    -0.9540200
  H        0.3069530    -1.0243470     1.2170770
  H        1.5834140    -0.1085280     2.0346680
  H       -0.4031770    -1.5700500    -1.4080150
  H       -4.3043690     0.2928860     1.0181070
  H       -2.0253310     2.7815300     0.2022010
  H       -3.1368610     2.2826280     1.5002420
  H       -1.3844770     2.1136550     1.7007310
  H       -2.4977120    -2.9041740    -1.2220500
  H       -4.4499260    -1.9612690     0.0072960
units angstrom
no_reorient  #important for SAPT in psi4, default
symmetry c1  #important for SAPT in psi4, default
}

set PROPERTIES_ORIGIN ["COM"]
properties('MP2/aug-cc-pvtz', properties = ['dipole'])
--------------------------------------------------------------------------

    Molecular point group: c1
  Charge       = 0
  Multiplicity = 1
  Basis Set: AUG-CC-PVTZ
    Blend: AUG-CC-PVTZ
  Basis Set: (AUG-CC-PVTZ AUX)
    Blend: AUG-CC-PVTZ-JKFIT

    Orbital Energies [Eh]
    ---------------------

    Doubly Occupied:

       1A    -20.510444     2A    -15.584400     3A    -11.348995
       4A    -11.269548     5A    -11.254295     6A    -11.251448
       7A    -11.246159     8A    -11.244768     9A    -11.242332
      10A    -11.238950    11A    -11.236697    12A    -11.229348
      13A    -11.228742    14A    -11.227158    15A    -11.219979
      16A     -1.366504    17A     -1.245742    18A     -1.161040
      19A     -1.080702    20A     -1.050396    21A     -1.033562
      22A     -1.015833    23A     -0.941853    24A     -0.914929
      25A     -0.874316    26A     -0.845365    27A     -0.815844
      28A     -0.793027    29A     -0.741602    30A     -0.710059
      31A     -0.665236    32A     -0.652231    33A     -0.645911
      34A     -0.633539    35A     -0.622814    36A     -0.614594
      37A     -0.600308    38A     -0.585885    39A     -0.575468
      40A     -0.572414    41A     -0.558759    42A     -0.544097
      43A     -0.541460    44A     -0.523994    45A     -0.508970
      46A     -0.502862    47A     -0.492007    48A     -0.489571
      49A     -0.481361    50A     -0.472120    51A     -0.451950
      52A     -0.416160    53A     -0.357225    54A     -0.339456
      55A     -0.329632

  @DF-RHF Final Energy:  -631.70985728681853

   => Energetics <=

    Nuclear Repulsion Energy =            997.2373297406513757
    One-Electron Energy =               -2837.6902500364108164
    Two-Electron Energy =                1208.7430630089409078
    Total Energy =                       -631.7098572868185329
  Basis Set: (AUG-CC-PVTZ AUX)
    Blend: AUG-CC-PVTZ-RI
    Molecular point group: c1

    Geometry (in Angstrom), charge = 0, multiplicity = 1:

       Center              X                  Y                   Z               Mass
    ------------   -----------------  -----------------  -----------------  -----------------
         O            0.052568637142     1.945092110179    -1.181188844796    15.994914619570
         N            1.252133637142     0.457469110179     0.087359155204    14.003074004430
         C            3.723241637142    -0.956378889821     0.434960155204    12.000000000000
         C            3.575860637142     0.163894110179    -0.595361844796    12.000000000000
         C            2.443928037142    -1.761244089821     0.667876355204    12.000000000000
         C            2.505840637142     1.162297110179    -0.163422844796    12.000000000000
         C            1.333113637142    -0.581416889821     1.108243155204    12.000000000000
         C            0.094365637142     0.923437110179    -0.482069844796    12.000000000000
         C           -1.139185362858     0.096656110179    -0.266911844796    12.000000000000
         C           -2.240755362858     0.650251110179     0.411190155204    12.000000000000
         C           -1.220639362858    -1.177064889821    -0.842866844796    12.000000000000
         C           -3.403779362858    -0.120766889821     0.515646155204    12.000000000000
         C           -2.164943362858     2.031456110179     1.008658155204    12.000000000000
         C           -2.395010362858    -1.923595889821    -0.739838844796    12.000000000000
         C           -3.488822362858    -1.392896889821    -0.055205844796    12.000000000000
         H            4.454735637142    -1.698221889821     0.094861155204     1.007825032230
         H            4.112643637142    -0.534686889821     1.371951155204     1.007825032230
         H            4.529463637142     0.686567110179    -0.737624844796     1.007825032230
         H            3.287402637142    -0.258339889821    -1.565675844796     1.007825032230
         H            2.024835637142    -2.145207889821    -0.187546844796     1.007825032230
         H            2.468385637142    -2.370591889821     1.509188155204     1.007825032230
         H            2.818514637142     1.679388110179     0.756864155204     1.007825032230
         H            2.308828637142     1.916660110179    -0.926342844796     1.007825032230
         H            0.348593637142    -1.029737889821     1.244754155204     1.007825032230
         H            1.625054637142    -0.113918889821     2.062345155204     1.007825032230
         H           -0.361536362858    -1.575440889821    -1.380337844796     1.007825032230
         H           -4.262728362858     0.287495110179     1.045784155204     1.007825032230
         H           -1.983690362858     2.776139110179     0.229878155204     1.007825032230
         H           -3.095220362858     2.277237110179     1.527919155204     1.007825032230
         H           -1.342836362858     2.108264110179     1.728408155204     1.007825032230
         H           -2.456071362858    -2.909564889821    -1.194372844796     1.007825032230
         H           -4.408285362858    -1.966659889821     0.034973155204     1.007825032230

  Basis Set: AUG-CC-PVTZ
    Blend: AUG-CC-PVTZ
  Basis Set: (AUG-CC-PVTZ AUX)
    Blend: AUG-CC-PVTZ-JKFIT
	 Reference Energy          =    -631.7098572868185329 [Eh]
	 Singles Energy            =      -0.0000000000000000 [Eh]
	 Same-Spin Energy          =      -0.6890686161916999 [Eh]
	 Opposite-Spin Energy      =      -2.2133923710367971 [Eh]
	 Correlation Energy        =      -2.9024609872284968 [Eh]
	 Total Energy              =    -634.6123182740470838 [Eh]

	 ================> DF-SCS-MP2 Energies <==================
	-----------------------------------------------------------
	 SCS Same-Spin Scale       =       0.3333333333333333 [-]
	 SCS Opposite-Spin Scale   =       1.2000000000000000 [-]
	 SCS Same-Spin Energy      =      -0.2296895387305666 [Eh]
	 SCS Opposite-Spin Energy  =      -2.6560708452441566 [Eh]
	 SCS Correlation Energy    =      -2.8857603839747230 [Eh]
	 SCS Total Energy          =    -634.5956176707932173 [Eh]
	-----------------------------------------------------------

  Dipole Moment: [D]
     X:     1.4067      Y:    -2.5107      Z:     2.2923     Total:     3.6793

*** Psi4 exiting successfully. Buy a developer a beer!
