                               Psi4 1.4a3.dev225

  ==> Input File <==

--------------------------------------------------------------------------
#psi4
#
memory 32 gb

molecule  {
0 1
  O        0.0109280     1.9504830    -1.2088660
  N        1.2104930     0.4628600     0.0596820
  C        3.6816010    -0.9509880     0.4072830
  C        3.5342200     0.1692850    -0.6230390
  C        2.3335540    -1.6180450     0.6838790
  C        2.4642000     1.1676880    -0.1911000
  C        1.2914730    -0.5760260     1.0805660
  C        0.0527250     0.9288280    -0.5097470
  C       -1.1808260     0.1020470    -0.2945890
  C       -2.2823960     0.6556420     0.3835130
  C       -1.2622800    -1.1716740    -0.8705440
  C       -3.4038623    -0.0878256     0.4842365
  C       -2.2065840     2.0368470     0.9809810
  C       -2.4366510    -1.9182050    -0.7675160
  C       -3.5304630    -1.3875060    -0.0828830
  H        4.4130950    -1.6928310     0.0671840
  H        4.0710030    -0.5292960     1.3442740
  H        4.4878230     0.6919580    -0.7653020
  H        3.2457620    -0.2529490    -1.5933530
  H        1.9831950    -2.1398170    -0.2152240
  H        2.4267450    -2.3652010     1.4815110
  H        2.7768740     1.6847790     0.7291870
  H        2.2671880     1.9220510    -0.9540200
  H        0.3069530    -1.0243470     1.2170770
  H        1.5834140    -0.1085280     2.0346680
  H       -0.4031770    -1.5700500    -1.4080150
  H       -4.3043690     0.2928860     1.0181070
  H       -2.0253310     2.7815300     0.2022010
  H       -3.1368610     2.2826280     1.5002420
  H       -1.3844770     2.1136550     1.7007310
  H       -2.4977120    -2.9041740    -1.2220500
  H       -4.4499260    -1.9612690     0.0072960
units angstrom
no_reorient  #important for SAPT in psi4, default
symmetry c1  #important for SAPT in psi4, default
}

set PROPERTIES_ORIGIN ["COM"]
properties('MP2/aug-cc-pvtz', properties = ['dipole'])
--------------------------------------------------------------------------

    Molecular point group: c1
  Charge       = 0
  Multiplicity = 1
  Basis Set: AUG-CC-PVTZ
    Blend: AUG-CC-PVTZ
  Basis Set: (AUG-CC-PVTZ AUX)
    Blend: AUG-CC-PVTZ-JKFIT

    Orbital Energies [Eh]
    ---------------------

    Doubly Occupied:

       1A    -20.510892     2A    -15.583999     3A    -11.349604
       4A    -11.267075     5A    -11.254676     6A    -11.246904
       7A    -11.245606     8A    -11.245258     9A    -11.245000
      10A    -11.239470    11A    -11.235959    12A    -11.230695
      13A    -11.228369    14A    -11.225725    15A    -11.219493
      16A     -1.367122    17A     -1.249663    18A     -1.164755
      19A     -1.083597    20A     -1.053497    21A     -1.036983
      22A     -1.021574    23A     -0.942113    24A     -0.919967
      25A     -0.868402    26A     -0.846495    27A     -0.812927
      28A     -0.791838    29A     -0.742688    30A     -0.711651
      31A     -0.667336    32A     -0.653259    33A     -0.648995
      34A     -0.627938    35A     -0.618102    36A     -0.615590
      37A     -0.594011    38A     -0.588152    39A     -0.576512
      40A     -0.572504    41A     -0.560713    42A     -0.547858
      43A     -0.539236    44A     -0.524694    45A     -0.513308
      46A     -0.502087    47A     -0.491465    48A     -0.484359
      49A     -0.477392    50A     -0.469651    51A     -0.461611
      52A     -0.417410    53A     -0.366289    54A     -0.341228
      55A     -0.331670

  @DF-RHF Final Energy:  -631.72753870954898

   => Energetics <=

    Nuclear Repulsion Energy =           1000.8019374290428232
    One-Electron Energy =               -2844.7922187390472573
    Two-Electron Energy =                1212.2627426004553399
    Total Energy =                       -631.7275387095489805
  Basis Set: (AUG-CC-PVTZ AUX)
    Blend: AUG-CC-PVTZ-RI
    Molecular point group: c1

    Geometry (in Angstrom), charge = 0, multiplicity = 1:

       Center              X                  Y                   Z               Mass
    ------------   -----------------  -----------------  -----------------  -----------------
         O            0.054174046347     1.935323522117    -1.183548738493    15.994914619570
         N            1.253739046347     0.447700522117     0.084999261507    14.003074004430
         C            3.724847046347    -0.966147477883     0.432600261507    12.000000000000
         C            3.577466046347     0.154125522117    -0.597721738493    12.000000000000
         C            2.376800046347    -1.633204477883     0.709196261507    12.000000000000
         C            2.507446046347     1.152528522117    -0.165782738493    12.000000000000
         C            1.334719046347    -0.591185477883     1.105883261507    12.000000000000
         C            0.095971046347     0.913668522117    -0.484429738493    12.000000000000
         C           -1.137579953653     0.086887522117    -0.269271738493    12.000000000000
         C           -2.239149953653     0.640482522117     0.408830261507    12.000000000000
         C           -1.219033953653    -1.186833477883    -0.845226738493    12.000000000000
         C           -3.360616253653    -0.102985077883     0.509553761507    12.000000000000
         C           -2.163337953653     2.021687522117     1.006298261507    12.000000000000
         C           -2.393404953653    -1.933364477883    -0.742198738493    12.000000000000
         C           -3.487216953653    -1.402665477883    -0.057565738493    12.000000000000
         H            4.456341046347    -1.707990477883     0.092501261507     1.007825032230
         H            4.114249046347    -0.544455477883     1.369591261507     1.007825032230
         H            4.531069046347     0.676798522117    -0.739984738493     1.007825032230
         H            3.289008046347    -0.268108477883    -1.568035738493     1.007825032230
         H            2.026441046347    -2.154976477883    -0.189906738493     1.007825032230
         H            2.469991046347    -2.380360477883     1.506828261507     1.007825032230
         H            2.820120046347     1.669619522117     0.754504261507     1.007825032230
         H            2.310434046347     1.906891522117    -0.928702738493     1.007825032230
         H            0.350199046347    -1.039506477883     1.242394261507     1.007825032230
         H            1.626660046347    -0.123687477883     2.059985261507     1.007825032230
         H           -0.359930953653    -1.585209477883    -1.382697738493     1.007825032230
         H           -4.261122953653     0.277726522117     1.043424261507     1.007825032230
         H           -1.982084953653     2.766370522117     0.227518261507     1.007825032230
         H           -3.093614953653     2.267468522117     1.525559261507     1.007825032230
         H           -1.341230953653     2.098495522117     1.726048261507     1.007825032230
         H           -2.454465953653    -2.919333477883    -1.196732738493     1.007825032230
         H           -4.406679953653    -1.976428477883     0.032613261507     1.007825032230

  Basis Set: AUG-CC-PVTZ
    Blend: AUG-CC-PVTZ
  Basis Set: (AUG-CC-PVTZ AUX)
    Blend: AUG-CC-PVTZ-JKFIT
	 Reference Energy          =    -631.7275387095489805 [Eh]
	 Singles Energy            =      -0.0000000000000000 [Eh]
	 Same-Spin Energy          =      -0.6890194653664596 [Eh]
	 Opposite-Spin Energy      =      -2.2124488207979587 [Eh]
	 Correlation Energy        =      -2.9014682861644183 [Eh]
	 Total Energy              =    -634.6290069957134392 [Eh]

	 ================> DF-SCS-MP2 Energies <==================
	-----------------------------------------------------------
	 SCS Same-Spin Scale       =       0.3333333333333333 [-]
	 SCS Opposite-Spin Scale   =       1.2000000000000000 [-]
	 SCS Same-Spin Energy      =      -0.2296731551221532 [Eh]
	 SCS Opposite-Spin Energy  =      -2.6549385849575504 [Eh]
	 SCS Correlation Energy    =      -2.8846117400797038 [Eh]
	 SCS Total Energy          =    -634.6121504496286434 [Eh]
	-----------------------------------------------------------

  Dipole Moment: [D]
     X:     1.4149      Y:    -2.5526      Z:     2.2855     Total:     3.7069

*** Psi4 exiting successfully. Buy a developer a beer!
