                               Psi4 1.4a3.dev225

  ==> Input File <==

--------------------------------------------------------------------------
#psi4
#
memory 32 gb

molecule  {
0 1
  O        0.0109280     1.9504830    -1.2088660
  N        1.2104930     0.4628600     0.0596820
  C        3.6816010    -0.9509880     0.4072830
  C        3.5342200     0.1692850    -0.6230390
  C        2.3335540    -1.6180450     0.6838790
  C        2.4642000     1.1676880    -0.1911000
  C        1.2914730    -0.5760260     1.0805660
  C        0.0527250     0.9288280    -0.5097470
  C       -1.1808260     0.1020470    -0.2945890
  C       -2.2432509     0.6359696     0.3594162
  C       -1.2622800    -1.1716740    -0.8705440
  C       -3.4454200    -0.1153760     0.4879690
  C       -2.2065840     2.0368470     0.9809810
  C       -2.4366510    -1.9182050    -0.7675160
  C       -3.5304630    -1.3875060    -0.0828830
  H        4.4130950    -1.6928310     0.0671840
  H        4.0710030    -0.5292960     1.3442740
  H        4.4878230     0.6919580    -0.7653020
  H        3.2457620    -0.2529490    -1.5933530
  H        1.9831950    -2.1398170    -0.2152240
  H        2.4267450    -2.3652010     1.4815110
  H        2.7768740     1.6847790     0.7291870
  H        2.2671880     1.9220510    -0.9540200
  H        0.3069530    -1.0243470     1.2170770
  H        1.5834140    -0.1085280     2.0346680
  H       -0.4031770    -1.5700500    -1.4080150
  H       -4.3043690     0.2928860     1.0181070
  H       -2.0253310     2.7815300     0.2022010
  H       -3.1368610     2.2826280     1.5002420
  H       -1.3844770     2.1136550     1.7007310
  H       -2.4977120    -2.9041740    -1.2220500
  H       -4.4499260    -1.9612690     0.0072960
units angstrom
no_reorient  #important for SAPT in psi4, default
symmetry c1  #important for SAPT in psi4, default
}

set PROPERTIES_ORIGIN ["COM"]
properties('MP2/aug-cc-pvtz', properties = ['dipole'])
--------------------------------------------------------------------------

    Molecular point group: c1
  Charge       = 0
  Multiplicity = 1
  Basis Set: AUG-CC-PVTZ
    Blend: AUG-CC-PVTZ
  Basis Set: (AUG-CC-PVTZ AUX)
    Blend: AUG-CC-PVTZ-JKFIT

    Orbital Energies [Eh]
    ---------------------

    Doubly Occupied:

       1A    -20.510924     2A    -15.583957     3A    -11.349356
       4A    -11.267410     5A    -11.254672     6A    -11.249674
       7A    -11.246184     8A    -11.242388     9A    -11.240052
      10A    -11.239570    11A    -11.239066    12A    -11.230751
      13A    -11.228401    14A    -11.225729    15A    -11.220844
      16A     -1.367194    17A     -1.249720    18A     -1.164372
      19A     -1.083709    20A     -1.050683    21A     -1.035764
      22A     -1.023250    23A     -0.940742    24A     -0.919175
      25A     -0.867187    26A     -0.844352    27A     -0.820210
      28A     -0.789746    29A     -0.742829    30A     -0.713020
      31A     -0.666488    32A     -0.653626    33A     -0.647894
      34A     -0.627879    35A     -0.620769    36A     -0.615792
      37A     -0.597833    38A     -0.588344    39A     -0.572163
      40A     -0.569861    41A     -0.560759    42A     -0.547580
      43A     -0.541317    44A     -0.524910    45A     -0.507538
      46A     -0.499734    47A     -0.494040    48A     -0.488839
      49A     -0.478525    50A     -0.469680    51A     -0.461630
      52A     -0.416269    53A     -0.366317    54A     -0.341314
      55A     -0.331712

  @DF-RHF Final Energy:  -631.72850396339402

   => Energetics <=

    Nuclear Repulsion Energy =           1000.6722887161903373
    One-Electron Energy =               -2844.5380874002858036
    Two-Electron Energy =                1212.1372947207012203
    Total Energy =                       -631.7285039633941324
  Basis Set: (AUG-CC-PVTZ AUX)
    Blend: AUG-CC-PVTZ-RI
    Molecular point group: c1

    Geometry (in Angstrom), charge = 0, multiplicity = 1:

       Center              X                  Y                   Z               Mass
    ------------   -----------------  -----------------  -----------------  -----------------
         O            0.054316571111     1.938113217242    -1.182345713928    15.994914619570
         N            1.253881571111     0.450490217242     0.086202286072    14.003074004430
         C            3.724989571111    -0.963357782758     0.433803286072    12.000000000000
         C            3.577608571111     0.156915217242    -0.596518713928    12.000000000000
         C            2.376942571111    -1.630414782758     0.710399286072    12.000000000000
         C            2.507588571111     1.155318217242    -0.164579713928    12.000000000000
         C            1.334861571111    -0.588395782758     1.107086286072    12.000000000000
         C            0.096113571111     0.916458217242    -0.483226713928    12.000000000000
         C           -1.137437428889     0.089677217242    -0.268068713928    12.000000000000
         C           -2.199862328889     0.623599817242     0.385936486072    12.000000000000
         C           -1.218891428889    -1.184043782758    -0.844023713928    12.000000000000
         C           -3.402031428889    -0.127745782758     0.514489286072    12.000000000000
         C           -2.163195428889     2.024477217242     1.007501286072    12.000000000000
         C           -2.393262428889    -1.930574782758    -0.740995713928    12.000000000000
         C           -3.487074428889    -1.399875782758    -0.056362713928    12.000000000000
         H            4.456483571111    -1.705200782758     0.093704286072     1.007825032230
         H            4.114391571111    -0.541665782758     1.370794286072     1.007825032230
         H            4.531211571111     0.679588217242    -0.738781713928     1.007825032230
         H            3.289150571111    -0.265318782758    -1.566832713928     1.007825032230
         H            2.026583571111    -2.152186782758    -0.188703713928     1.007825032230
         H            2.470133571111    -2.377570782758     1.508031286072     1.007825032230
         H            2.820262571111     1.672409217242     0.755707286072     1.007825032230
         H            2.310576571111     1.909681217242    -0.927499713928     1.007825032230
         H            0.350341571111    -1.036716782758     1.243597286072     1.007825032230
         H            1.626802571111    -0.120897782758     2.061188286072     1.007825032230
         H           -0.359788428889    -1.582419782758    -1.381494713928     1.007825032230
         H           -4.260980428889     0.280516217242     1.044627286072     1.007825032230
         H           -1.981942428889     2.769160217242     0.228721286072     1.007825032230
         H           -3.093472428889     2.270258217242     1.526762286072     1.007825032230
         H           -1.341088428889     2.101285217242     1.727251286072     1.007825032230
         H           -2.454323428889    -2.916543782758    -1.195529713928     1.007825032230
         H           -4.406537428889    -1.973638782758     0.033816286072     1.007825032230

  Basis Set: AUG-CC-PVTZ
    Blend: AUG-CC-PVTZ
  Basis Set: (AUG-CC-PVTZ AUX)
    Blend: AUG-CC-PVTZ-JKFIT
	 Reference Energy          =    -631.7285039633940187 [Eh]
	 Singles Energy            =      -0.0000000000000000 [Eh]
	 Same-Spin Energy          =      -0.6886833810882810 [Eh]
	 Opposite-Spin Energy      =      -2.2119788371826079 [Eh]
	 Correlation Energy        =      -2.9006622182708890 [Eh]
	 Total Energy              =    -634.6291661816649139 [Eh]

	 ================> DF-SCS-MP2 Energies <==================
	-----------------------------------------------------------
	 SCS Same-Spin Scale       =       0.3333333333333333 [-]
	 SCS Opposite-Spin Scale   =       1.2000000000000000 [-]
	 SCS Same-Spin Energy      =      -0.2295611270294270 [Eh]
	 SCS Opposite-Spin Energy  =      -2.6543746046191292 [Eh]
	 SCS Correlation Energy    =      -2.8839357316485561 [Eh]
	 SCS Total Energy          =    -634.6124396950425535 [Eh]
	-----------------------------------------------------------

  Dipole Moment: [D]
     X:     1.3919      Y:    -2.5518      Z:     2.2960     Total:     3.7041

*** Psi4 exiting successfully. Buy a developer a beer!
