                               Psi4 1.4a3.dev225

  ==> Input File <==

--------------------------------------------------------------------------
#psi4
#
memory 32 gb

molecule  {
0 1
  O        0.0109280     1.9504830    -1.2088660
  N        1.1032081     0.5284191     0.1463265
  C        3.6816010    -0.9509880     0.4072830
  C        3.5342200     0.1692850    -0.6230390
  C        2.3335540    -1.6180450     0.6838790
  C        2.4642000     1.1676880    -0.1911000
  C        1.2914730    -0.5760260     1.0805660
  C        0.0527250     0.9288280    -0.5097470
  C       -1.1808260     0.1020470    -0.2945890
  C       -2.2823960     0.6556420     0.3835130
  C       -1.2622800    -1.1716740    -0.8705440
  C       -3.4454200    -0.1153760     0.4879690
  C       -2.2065840     2.0368470     0.9809810
  C       -2.4366510    -1.9182050    -0.7675160
  C       -3.5304630    -1.3875060    -0.0828830
  H        4.4130950    -1.6928310     0.0671840
  H        4.0710030    -0.5292960     1.3442740
  H        4.4878230     0.6919580    -0.7653020
  H        3.2457620    -0.2529490    -1.5933530
  H        1.9831950    -2.1398170    -0.2152240
  H        2.4267450    -2.3652010     1.4815110
  H        2.7768740     1.6847790     0.7291870
  H        2.2671880     1.9220510    -0.9540200
  H        0.3069530    -1.0243470     1.2170770
  H        1.5834140    -0.1085280     2.0346680
  H       -0.4031770    -1.5700500    -1.4080150
  H       -4.3043690     0.2928860     1.0181070
  H       -2.0253310     2.7815300     0.2022010
  H       -3.1368610     2.2826280     1.5002420
  H       -1.3844770     2.1136550     1.7007310
  H       -2.4977120    -2.9041740    -1.2220500
  H       -4.4499260    -1.9612690     0.0072960
units angstrom
no_reorient  #important for SAPT in psi4, default
symmetry c1  #important for SAPT in psi4, default
}

set PROPERTIES_ORIGIN ["COM"]
properties('MP2/aug-cc-pvtz', properties = ['dipole'])
--------------------------------------------------------------------------

    Molecular point group: c1
  Charge       = 0
  Multiplicity = 1
  Basis Set: AUG-CC-PVTZ
    Blend: AUG-CC-PVTZ
  Basis Set: (AUG-CC-PVTZ AUX)
    Blend: AUG-CC-PVTZ-JKFIT

    Orbital Energies [Eh]
    ---------------------

    Doubly Occupied:

       1A    -20.497521     2A    -15.588972     3A    -11.337482
       4A    -11.271371     5A    -11.264009     6A    -11.248030
       7A    -11.243045     8A    -11.239877     9A    -11.239569
      10A    -11.237314    11A    -11.236732    12A    -11.234299
      13A    -11.234064    14A    -11.232875    15A    -11.216963
      16A     -1.365162    17A     -1.249155    18A     -1.157899
      19A     -1.094736    20A     -1.047506    21A     -1.033955
      22A     -1.023017    23A     -0.946929    24A     -0.926960
      25A     -0.868852    26A     -0.843849    27A     -0.815441
      28A     -0.795084    29A     -0.736078    30A     -0.708908
      31A     -0.663815    32A     -0.653438    33A     -0.650083
      34A     -0.629724    35A     -0.623417    36A     -0.614471
      37A     -0.598345    38A     -0.592163    39A     -0.573058
      40A     -0.569805    41A     -0.552534    42A     -0.549271
      43A     -0.539257    44A     -0.524048    45A     -0.508547
      46A     -0.500500    47A     -0.489926    48A     -0.487894
      49A     -0.480075    50A     -0.475273    51A     -0.462105
      52A     -0.408827    53A     -0.371770    54A     -0.337177
      55A     -0.326694

  @DF-RHF Final Energy:  -631.72043536404306

   => Energetics <=

    Nuclear Repulsion Energy =           1000.0993081618419183
    One-Electron Energy =               -2843.4037473548273738
    Two-Electron Energy =                1211.5840038289422864
    Total Energy =                       -631.7204353640431691
  Basis Set: (AUG-CC-PVTZ AUX)
    Blend: AUG-CC-PVTZ-RI
    Molecular point group: c1

    Geometry (in Angstrom), charge = 0, multiplicity = 1:

       Center              X                  Y                   Z               Mass
    ------------   -----------------  -----------------  -----------------  -----------------
         O            0.064024884745     1.932431673566    -1.189742176510    15.994914619570
         N            1.156304984745     0.510367773566     0.165450323490    14.003074004430
         C            3.734697884745    -0.969039326434     0.426406823490    12.000000000000
         C            3.587316884745     0.151233673566    -0.603915176510    12.000000000000
         C            2.386650884745    -1.636096326434     0.703002823490    12.000000000000
         C            2.517296884745     1.149636673566    -0.171976176510    12.000000000000
         C            1.344569884745    -0.594077326434     1.099689823490    12.000000000000
         C            0.105821884745     0.910776673566    -0.490623176510    12.000000000000
         C           -1.127729115255     0.083995673566    -0.275465176510    12.000000000000
         C           -2.229299115255     0.637590673566     0.402636823490    12.000000000000
         C           -1.209183115255    -1.189725326434    -0.851420176510    12.000000000000
         C           -3.392323115255    -0.133427326434     0.507092823490    12.000000000000
         C           -2.153487115255     2.018795673566     1.000104823490    12.000000000000
         C           -2.383554115255    -1.936256326434    -0.748392176510    12.000000000000
         C           -3.477366115255    -1.405557326434    -0.063759176510    12.000000000000
         H            4.466191884745    -1.710882326434     0.086307823490     1.007825032230
         H            4.124099884745    -0.547347326434     1.363397823490     1.007825032230
         H            4.540919884745     0.673906673566    -0.746178176510     1.007825032230
         H            3.298858884745    -0.271000326434    -1.574229176510     1.007825032230
         H            2.036291884745    -2.157868326434    -0.196100176510     1.007825032230
         H            2.479841884745    -2.383252326434     1.500634823490     1.007825032230
         H            2.829970884745     1.666727673566     0.748310823490     1.007825032230
         H            2.320284884745     1.903999673566    -0.934896176510     1.007825032230
         H            0.360049884745    -1.042398326434     1.236200823490     1.007825032230
         H            1.636510884745    -0.126579326434     2.053791823490     1.007825032230
         H           -0.350080115255    -1.588101326434    -1.388891176510     1.007825032230
         H           -4.251272115255     0.274834673566     1.037230823490     1.007825032230
         H           -1.972234115255     2.763478673566     0.221324823490     1.007825032230
         H           -3.083764115255     2.264576673566     1.519365823490     1.007825032230
         H           -1.331380115255     2.095603673566     1.719854823490     1.007825032230
         H           -2.444615115255    -2.922225326434    -1.202926176510     1.007825032230
         H           -4.396829115255    -1.979320326434     0.026419823490     1.007825032230

  Basis Set: AUG-CC-PVTZ
    Blend: AUG-CC-PVTZ
  Basis Set: (AUG-CC-PVTZ AUX)
    Blend: AUG-CC-PVTZ-JKFIT
	 Reference Energy          =    -631.7204353640430554 [Eh]
	 Singles Energy            =      -0.0000000000000000 [Eh]
	 Same-Spin Energy          =      -0.6886533507480888 [Eh]
	 Opposite-Spin Energy      =      -2.2118975042132702 [Eh]
	 Correlation Energy        =      -2.9005508549613590 [Eh]
	 Total Energy              =    -634.6209862190044078 [Eh]

	 ================> DF-SCS-MP2 Energies <==================
	-----------------------------------------------------------
	 SCS Same-Spin Scale       =       0.3333333333333333 [-]
	 SCS Opposite-Spin Scale   =       1.2000000000000000 [-]
	 SCS Same-Spin Energy      =      -0.2295511169160296 [Eh]
	 SCS Opposite-Spin Energy  =      -2.6542770050559241 [Eh]
	 SCS Correlation Energy    =      -2.8838281219719537 [Eh]
	 SCS Total Energy          =    -634.6042634860150429 [Eh]
	-----------------------------------------------------------

  Dipole Moment: [D]
     X:     2.0342      Y:    -2.7724      Z:     2.3780     Total:     4.1808

*** Psi4 exiting successfully. Buy a developer a beer!
