                               Psi4 1.4a3.dev225

  ==> Input File <==

--------------------------------------------------------------------------
#psi4
#
memory 32 gb

molecule  {
0 1
  O        0.0109280     1.9504830    -1.2088660
  N        1.2104930     0.4628600     0.0596820
  C        3.6816010    -0.9509880     0.4072830
  C        3.5342200     0.1692850    -0.6230390
  C        2.3335540    -1.6180450     0.6838790
  C        2.4642000     1.1676880    -0.1911000
  C        1.2914730    -0.5760260     1.0805660
  C        0.0527250     0.9288280    -0.5097470
  C       -1.1808260     0.1020470    -0.2945890
  C       -2.2823960     0.6556420     0.3835130
  C       -1.2622800    -1.1716740    -0.8705440
  C       -3.4454200    -0.1153760     0.4879690
  C       -2.2065840     2.0368470     0.9809810
  C       -2.4366510    -1.9182050    -0.7675160
  C       -3.5304630    -1.3875060    -0.0828830
  H        4.4130950    -1.6928310     0.0671840
  H        4.0710030    -0.5292960     1.3442740
  H        4.4878230     0.6919580    -0.7653020
  H        3.2457620    -0.2529490    -1.5933530
  H        1.9848972    -2.0725095    -0.2516872
  H        2.4267450    -2.3652010     1.4815110
  H        2.7768740     1.6847790     0.7291870
  H        2.2671880     1.9220510    -0.9540200
  H        0.3069530    -1.0243470     1.2170770
  H        1.5834140    -0.1085280     2.0346680
  H       -0.4031770    -1.5700500    -1.4080150
  H       -4.3043690     0.2928860     1.0181070
  H       -2.0253310     2.7815300     0.2022010
  H       -3.1368610     2.2826280     1.5002420
  H       -1.3844770     2.1136550     1.7007310
  H       -2.4977120    -2.9041740    -1.2220500
  H       -4.4499260    -1.9612690     0.0072960
units angstrom
no_reorient  #important for SAPT in psi4, default
symmetry c1  #important for SAPT in psi4, default
}

set PROPERTIES_ORIGIN ["COM"]
properties('MP2/aug-cc-pvtz', properties = ['dipole'])
--------------------------------------------------------------------------

    Molecular point group: c1
  Charge       = 0
  Multiplicity = 1
  Basis Set: AUG-CC-PVTZ
    Blend: AUG-CC-PVTZ
  Basis Set: (AUG-CC-PVTZ AUX)
    Blend: AUG-CC-PVTZ-JKFIT

    Orbital Energies [Eh]
    ---------------------

    Doubly Occupied:

       1A    -20.510903     2A    -15.584033     3A    -11.349569
       4A    -11.266678     5A    -11.254699     6A    -11.251880
       7A    -11.246403     8A    -11.245071     9A    -11.242672
      10A    -11.239168    11A    -11.237006    12A    -11.230834
      13A    -11.227928    14A    -11.225799    15A    -11.220357
      16A     -1.367112    17A     -1.249766    18A     -1.161470
      19A     -1.084021    20A     -1.050839    21A     -1.037439
      22A     -1.023243    23A     -0.943195    24A     -0.918829
      25A     -0.867088    26A     -0.843808    27A     -0.815174
      28A     -0.790717    29A     -0.743252    30A     -0.712650
      31A     -0.666758    32A     -0.653088    33A     -0.647865
      34A     -0.628158    35A     -0.621322    36A     -0.614568
      37A     -0.597371    38A     -0.588282    39A     -0.575634
      40A     -0.572090    41A     -0.560067    42A     -0.548088
      43A     -0.541683    44A     -0.524793    45A     -0.507868
      46A     -0.501721    47A     -0.491689    48A     -0.489144
      49A     -0.478459    50A     -0.469563    51A     -0.461237
      52A     -0.417027    53A     -0.366308    54A     -0.340034
      55A     -0.330025

  @DF-RHF Final Energy:  -631.72997789946555

   => Energetics <=

    Nuclear Repulsion Energy =           1000.1447262181388851
    One-Electron Energy =               -2843.4805182745958518
    Two-Electron Energy =                1211.6058141569915279
    Total Energy =                       -631.7299778994654389
  Basis Set: (AUG-CC-PVTZ AUX)
    Blend: AUG-CC-PVTZ-RI
    Molecular point group: c1

    Geometry (in Angstrom), charge = 0, multiplicity = 1:

       Center              X                  Y                   Z               Mass
    ------------   -----------------  -----------------  -----------------  -----------------
         O            0.056620629318     1.936617123775    -1.183588326118    15.994914619570
         N            1.256185629318     0.448994123775     0.084959673882    14.003074004430
         C            3.727293629318    -0.964853876225     0.432560673882    12.000000000000
         C            3.579912629318     0.155419123775    -0.597761326118    12.000000000000
         C            2.379246629318    -1.631910876225     0.709156673882    12.000000000000
         C            2.509892629318     1.153822123775    -0.165822326118    12.000000000000
         C            1.337165629318    -0.589891876225     1.105843673882    12.000000000000
         C            0.098417629318     0.914962123775    -0.484469326118    12.000000000000
         C           -1.135133370682     0.088181123775    -0.269311326118    12.000000000000
         C           -2.236703370682     0.641776123775     0.408790673882    12.000000000000
         C           -1.216587370682    -1.185539876225    -0.845266326118    12.000000000000
         C           -3.399727370682    -0.129241876225     0.513246673882    12.000000000000
         C           -2.160891370682     2.022981123775     1.006258673882    12.000000000000
         C           -2.390958370682    -1.932070876225    -0.742238326118    12.000000000000
         C           -3.484770370682    -1.401371876225    -0.057605326118    12.000000000000
         H            4.458787629318    -1.706696876225     0.092461673882     1.007825032230
         H            4.116695629318    -0.543161876225     1.369551673882     1.007825032230
         H            4.533515629318     0.678092123775    -0.740024326118     1.007825032230
         H            3.291454629318    -0.266814876225    -1.568075326118     1.007825032230
         H            2.030589829318    -2.086375376225    -0.226409526118     1.007825032230
         H            2.472437629318    -2.379066876225     1.506788673882     1.007825032230
         H            2.822566629318     1.670913123775     0.754464673882     1.007825032230
         H            2.312880629318     1.908185123775    -0.928742326118     1.007825032230
         H            0.352645629318    -1.038212876225     1.242354673882     1.007825032230
         H            1.629106629318    -0.122393876225     2.059945673882     1.007825032230
         H           -0.357484370682    -1.583915876225    -1.382737326118     1.007825032230
         H           -4.258676370682     0.279020123775     1.043384673882     1.007825032230
         H           -1.979638370682     2.767664123775     0.227478673882     1.007825032230
         H           -3.091168370682     2.268762123775     1.525519673882     1.007825032230
         H           -1.338784370682     2.099789123775     1.726008673882     1.007825032230
         H           -2.452019370682    -2.918039876225    -1.196772326118     1.007825032230
         H           -4.404233370682    -1.975134876225     0.032573673882     1.007825032230

  Basis Set: AUG-CC-PVTZ
    Blend: AUG-CC-PVTZ
  Basis Set: (AUG-CC-PVTZ AUX)
    Blend: AUG-CC-PVTZ-JKFIT
	 Reference Energy          =    -631.7299778994655526 [Eh]
	 Singles Energy            =      -0.0000000000000000 [Eh]
	 Same-Spin Energy          =      -0.6891278057007202 [Eh]
	 Opposite-Spin Energy      =      -2.2124630235908422 [Eh]
	 Correlation Energy        =      -2.9015908292915622 [Eh]
	 Total Energy              =    -634.6315687287570881 [Eh]

	 ================> DF-SCS-MP2 Energies <==================
	-----------------------------------------------------------
	 SCS Same-Spin Scale       =       0.3333333333333333 [-]
	 SCS Opposite-Spin Scale   =       1.2000000000000000 [-]
	 SCS Same-Spin Energy      =      -0.2297092685669067 [Eh]
	 SCS Opposite-Spin Energy  =      -2.6549556283090108 [Eh]
	 SCS Correlation Energy    =      -2.8846648968759174 [Eh]
	 SCS Total Energy          =    -634.6146427963415135 [Eh]
	-----------------------------------------------------------

  Dipole Moment: [D]
     X:     1.4023      Y:    -2.4996      Z:     2.3040     Total:     3.6773

*** Psi4 exiting successfully. Buy a developer a beer!
