                               Psi4 1.4a3.dev225

  ==> Input File <==

--------------------------------------------------------------------------
#psi4
#
memory 32 gb

molecule  {
0 1
  O        0.0109280     1.9504830    -1.2088660
  N        1.2754415     0.5780928     0.0038204
  C        3.6816010    -0.9509880     0.4072830
  C        3.5342200     0.1692850    -0.6230390
  C        2.3335540    -1.6180450     0.6838790
  C        2.4642000     1.1676880    -0.1911000
  C        1.2914730    -0.5760260     1.0805660
  C        0.0527250     0.9288280    -0.5097470
  C       -1.1808260     0.1020470    -0.2945890
  C       -2.2823960     0.6556420     0.3835130
  C       -1.2622800    -1.1716740    -0.8705440
  C       -3.4454200    -0.1153760     0.4879690
  C       -2.2065840     2.0368470     0.9809810
  C       -2.4366510    -1.9182050    -0.7675160
  C       -3.5304630    -1.3875060    -0.0828830
  H        4.4130950    -1.6928310     0.0671840
  H        4.0710030    -0.5292960     1.3442740
  H        4.4878230     0.6919580    -0.7653020
  H        3.2457620    -0.2529490    -1.5933530
  H        1.9831950    -2.1398170    -0.2152240
  H        2.4267450    -2.3652010     1.4815110
  H        2.7768740     1.6847790     0.7291870
  H        2.2671880     1.9220510    -0.9540200
  H        0.3069530    -1.0243470     1.2170770
  H        1.5834140    -0.1085280     2.0346680
  H       -0.4031770    -1.5700500    -1.4080150
  H       -4.3043690     0.2928860     1.0181070
  H       -2.0253310     2.7815300     0.2022010
  H       -3.1368610     2.2826280     1.5002420
  H       -1.3844770     2.1136550     1.7007310
  H       -2.4977120    -2.9041740    -1.2220500
  H       -4.4499260    -1.9612690     0.0072960
units angstrom
no_reorient  #important for SAPT in psi4, default
symmetry c1  #important for SAPT in psi4, default
}

set PROPERTIES_ORIGIN ["COM"]
properties('MP2/aug-cc-pvtz', properties = ['dipole'])
--------------------------------------------------------------------------

    Molecular point group: c1
  Charge       = 0
  Multiplicity = 1
  Basis Set: AUG-CC-PVTZ
    Blend: AUG-CC-PVTZ
  Basis Set: (AUG-CC-PVTZ AUX)
    Blend: AUG-CC-PVTZ-JKFIT

    Orbital Energies [Eh]
    ---------------------

    Doubly Occupied:

       1A    -20.504587     2A    -15.580366     3A    -11.348367
       4A    -11.273418     5A    -11.255055     6A    -11.251342
       7A    -11.248790     8A    -11.245210     9A    -11.243751
      10A    -11.241371    11A    -11.239230    12A    -11.232593
      13A    -11.227653    14A    -11.222477    15A    -11.221476
      16A     -1.368560    17A     -1.249930    18A     -1.164471
      19A     -1.082008    20A     -1.053938    21A     -1.043275
      22A     -1.019497    23A     -0.944255    24A     -0.919254
      25A     -0.872347    26A     -0.842826    27A     -0.814867
      28A     -0.793891    29A     -0.739583    30A     -0.716094
      31A     -0.668678    32A     -0.653814    33A     -0.644049
      34A     -0.636531    35A     -0.620185    36A     -0.617145
      37A     -0.598575    38A     -0.590894    39A     -0.577505
      40A     -0.574359    41A     -0.554152    42A     -0.545698
      43A     -0.540153    44A     -0.524724    45A     -0.508148
      46A     -0.501499    47A     -0.494310    48A     -0.490230
      49A     -0.478054    50A     -0.472432    51A     -0.448283
      52A     -0.417167    53A     -0.358092    54A     -0.342237
      55A     -0.332418

  @DF-RHF Final Energy:  -631.70758510759379

   => Energetics <=

    Nuclear Repulsion Energy =            999.4598091797887491
    One-Electron Energy =               -2842.0351631179541982
    Two-Electron Energy =                1210.8677688305715492
    Total Energy =                       -631.7075851075937862
  Basis Set: (AUG-CC-PVTZ AUX)
    Blend: AUG-CC-PVTZ-RI
    Molecular point group: c1

    Geometry (in Angstrom), charge = 0, multiplicity = 1:

       Center              X                  Y                   Z               Mass
    ------------   -----------------  -----------------  -----------------  -----------------
         O            0.052151773905     1.929007358968    -1.179918351859    15.994914619570
         N            1.316665273905     0.556617158968     0.032768048141    14.003074004430
         C            3.722824773905    -0.972463641032     0.436230648141    12.000000000000
         C            3.575443773905     0.147809358968    -0.594091351859    12.000000000000
         C            2.374777773905    -1.639520641032     0.712826648141    12.000000000000
         C            2.505423773905     1.146212358968    -0.162152351859    12.000000000000
         C            1.332696773905    -0.597501641032     1.109513648141    12.000000000000
         C            0.093948773905     0.907352358968    -0.480799351859    12.000000000000
         C           -1.139602226095     0.080571358968    -0.265641351859    12.000000000000
         C           -2.241172226095     0.634166358968     0.412460648141    12.000000000000
         C           -1.221056226095    -1.193149641032    -0.841596351859    12.000000000000
         C           -3.404196226095    -0.136851641032     0.516916648141    12.000000000000
         C           -2.165360226095     2.015371358968     1.009928648141    12.000000000000
         C           -2.395427226095    -1.939680641032    -0.738568351859    12.000000000000
         C           -3.489239226095    -1.408981641032    -0.053935351859    12.000000000000
         H            4.454318773905    -1.714306641032     0.096131648141     1.007825032230
         H            4.112226773905    -0.550771641032     1.373221648141     1.007825032230
         H            4.529046773905     0.670482358968    -0.736354351859     1.007825032230
         H            3.286985773905    -0.274424641032    -1.564405351859     1.007825032230
         H            2.024418773905    -2.161292641032    -0.186276351859     1.007825032230
         H            2.467968773905    -2.386676641032     1.510458648141     1.007825032230
         H            2.818097773905     1.663303358968     0.758134648141     1.007825032230
         H            2.308411773905     1.900575358968    -0.925072351859     1.007825032230
         H            0.348176773905    -1.045822641032     1.246024648141     1.007825032230
         H            1.624637773905    -0.130003641032     2.063615648141     1.007825032230
         H           -0.361953226095    -1.591525641032    -1.379067351859     1.007825032230
         H           -4.263145226095     0.271410358968     1.047054648141     1.007825032230
         H           -1.984107226095     2.760054358968     0.231148648141     1.007825032230
         H           -3.095637226095     2.261152358968     1.529189648141     1.007825032230
         H           -1.343253226095     2.092179358968     1.729678648141     1.007825032230
         H           -2.456488226095    -2.925649641032    -1.193102351859     1.007825032230
         H           -4.408702226095    -1.982744641032     0.036243648141     1.007825032230

  Basis Set: AUG-CC-PVTZ
    Blend: AUG-CC-PVTZ
  Basis Set: (AUG-CC-PVTZ AUX)
    Blend: AUG-CC-PVTZ-JKFIT
	 Reference Energy          =    -631.7075851075937862 [Eh]
	 Singles Energy            =      -0.0000000000000000 [Eh]
	 Same-Spin Energy          =      -0.6896883523913475 [Eh]
	 Opposite-Spin Energy      =      -2.2135800741589606 [Eh]
	 Correlation Energy        =      -2.9032684265503081 [Eh]
	 Total Energy              =    -634.6108535341440984 [Eh]

	 ================> DF-SCS-MP2 Energies <==================
	-----------------------------------------------------------
	 SCS Same-Spin Scale       =       0.3333333333333333 [-]
	 SCS Opposite-Spin Scale   =       1.2000000000000000 [-]
	 SCS Same-Spin Energy      =      -0.2298961174637825 [Eh]
	 SCS Opposite-Spin Energy  =      -2.6562960889907528 [Eh]
	 SCS Correlation Energy    =      -2.8861922064545351 [Eh]
	 SCS Total Energy          =    -634.5937773140483387 [Eh]
	-----------------------------------------------------------

  Dipole Moment: [D]
     X:     1.1185      Y:    -2.7858      Z:     2.4107     Total:     3.8501

*** Psi4 exiting successfully. Buy a developer a beer!
