                               Psi4 1.4a3.dev225

  ==> Input File <==

--------------------------------------------------------------------------
#psi4
#
memory 32 gb

molecule  {
0 1
  O        0.0109280     1.9504830    -1.2088660
  N        1.2138875     0.4981777     0.1552088
  C        3.6816010    -0.9509880     0.4072830
  C        3.5342200     0.1692850    -0.6230390
  C        2.3335540    -1.6180450     0.6838790
  C        2.4642000     1.1676880    -0.1911000
  C        1.2914730    -0.5760260     1.0805660
  C        0.0527250     0.9288280    -0.5097470
  C       -1.1808260     0.1020470    -0.2945890
  C       -2.2823960     0.6556420     0.3835130
  C       -1.2622800    -1.1716740    -0.8705440
  C       -3.4454200    -0.1153760     0.4879690
  C       -2.2065840     2.0368470     0.9809810
  C       -2.4366510    -1.9182050    -0.7675160
  C       -3.5304630    -1.3875060    -0.0828830
  H        4.4130950    -1.6928310     0.0671840
  H        4.0710030    -0.5292960     1.3442740
  H        4.4878230     0.6919580    -0.7653020
  H        3.2457620    -0.2529490    -1.5933530
  H        1.9831950    -2.1398170    -0.2152240
  H        2.4267450    -2.3652010     1.4815110
  H        2.7768740     1.6847790     0.7291870
  H        2.2671880     1.9220510    -0.9540200
  H        0.3069530    -1.0243470     1.2170770
  H        1.5834140    -0.1085280     2.0346680
  H       -0.4031770    -1.5700500    -1.4080150
  H       -4.3043690     0.2928860     1.0181070
  H       -2.0253310     2.7815300     0.2022010
  H       -3.1368610     2.2826280     1.5002420
  H       -1.3844770     2.1136550     1.7007310
  H       -2.4977120    -2.9041740    -1.2220500
  H       -4.4499260    -1.9612690     0.0072960
units angstrom
no_reorient  #important for SAPT in psi4, default
symmetry c1  #important for SAPT in psi4, default
}

set PROPERTIES_ORIGIN ["COM"]
properties('MP2/aug-cc-pvtz', properties = ['dipole'])
--------------------------------------------------------------------------

    Molecular point group: c1
  Charge       = 0
  Multiplicity = 1
  Basis Set: AUG-CC-PVTZ
    Blend: AUG-CC-PVTZ
  Basis Set: (AUG-CC-PVTZ AUX)
    Blend: AUG-CC-PVTZ-JKFIT

    Orbital Energies [Eh]
    ---------------------

    Doubly Occupied:

       1A    -20.516708     2A    -15.581776     3A    -11.354826
       4A    -11.262138     5A    -11.253806     6A    -11.252707
       7A    -11.247346     8A    -11.246083     9A    -11.243315
      10A    -11.239828    11A    -11.237637    12A    -11.229631
      13A    -11.227797    14A    -11.225955    15A    -11.220629
      16A     -1.367821    17A     -1.252306    18A     -1.162227
      19A     -1.081112    20A     -1.051355    21A     -1.037002
      22A     -1.025057    23A     -0.942710    24A     -0.914021
      25A     -0.869797    26A     -0.846302    27A     -0.816733
      28A     -0.791305    29A     -0.739823    30A     -0.711052
      31A     -0.668045    32A     -0.653507    33A     -0.647240
      34A     -0.626109    35A     -0.622285    36A     -0.617275
      37A     -0.597246    38A     -0.586035    39A     -0.577147
      40A     -0.572004    41A     -0.566368    42A     -0.547571
      43A     -0.542716    44A     -0.521075    45A     -0.509349
      46A     -0.500155    47A     -0.491452    48A     -0.489398
      49A     -0.480022    50A     -0.468009    51A     -0.464619
      52A     -0.418361    53A     -0.360455    54A     -0.340865
      55A     -0.330764

  @DF-RHF Final Energy:  -631.72550794007441

   => Energetics <=

    Nuclear Repulsion Energy =            999.5134459083977845
    One-Electron Energy =               -2842.1841514278407885
    Two-Electron Energy =                1210.9451975793683687
    Total Energy =                       -631.7255079400745217
  Basis Set: (AUG-CC-PVTZ AUX)
    Blend: AUG-CC-PVTZ-RI
    Molecular point group: c1

    Geometry (in Angstrom), charge = 0, multiplicity = 1:

       Center              X                  Y                   Z               Mass
    ------------   -----------------  -----------------  -----------------  -----------------
         O            0.056395070877     1.934516399840    -1.190354488248    15.994914619570
         N            1.259354570877     0.482211099840     0.173720311752    14.003074004430
         C            3.727068070877    -0.966954600160     0.425794511752    12.000000000000
         C            3.579687070877     0.153318399840    -0.604527488248    12.000000000000
         C            2.379021070877    -1.634011600160     0.702390511752    12.000000000000
         C            2.509667070877     1.151721399840    -0.172588488248    12.000000000000
         C            1.336940070877    -0.591992600160     1.099077511752    12.000000000000
         C            0.098192070877     0.912861399840    -0.491235488248    12.000000000000
         C           -1.135358929123     0.086080399840    -0.276077488248    12.000000000000
         C           -2.236928929123     0.639675399840     0.402024511752    12.000000000000
         C           -1.216812929123    -1.187640600160    -0.852032488248    12.000000000000
         C           -3.399952929123    -0.131342600160     0.506480511752    12.000000000000
         C           -2.161116929123     2.020880399840     0.999492511752    12.000000000000
         C           -2.391183929123    -1.934171600160    -0.749004488248    12.000000000000
         C           -3.484995929123    -1.403472600160    -0.064371488248    12.000000000000
         H            4.458562070877    -1.708797600160     0.085695511752     1.007825032230
         H            4.116470070877    -0.545262600160     1.362785511752     1.007825032230
         H            4.533290070877     0.675991399840    -0.746790488248     1.007825032230
         H            3.291229070877    -0.268915600160    -1.574841488248     1.007825032230
         H            2.028662070877    -2.155783600160    -0.196712488248     1.007825032230
         H            2.472212070877    -2.381167600160     1.500022511752     1.007825032230
         H            2.822341070877     1.668812399840     0.747698511752     1.007825032230
         H            2.312655070877     1.906084399840    -0.935508488248     1.007825032230
         H            0.352420070877    -1.040313600160     1.235588511752     1.007825032230
         H            1.628881070877    -0.124494600160     2.053179511752     1.007825032230
         H           -0.357709929123    -1.586016600160    -1.389503488248     1.007825032230
         H           -4.258901929123     0.276919399840     1.036618511752     1.007825032230
         H           -1.979863929123     2.765563399840     0.220712511752     1.007825032230
         H           -3.091393929123     2.266661399840     1.518753511752     1.007825032230
         H           -1.339009929123     2.097688399840     1.719242511752     1.007825032230
         H           -2.452244929123    -2.920140600160    -1.203538488248     1.007825032230
         H           -4.404458929123    -1.977235600160     0.025807511752     1.007825032230

  Basis Set: AUG-CC-PVTZ
    Blend: AUG-CC-PVTZ
  Basis Set: (AUG-CC-PVTZ AUX)
    Blend: AUG-CC-PVTZ-JKFIT
	 Reference Energy          =    -631.7255079400744080 [Eh]
	 Singles Energy            =      -0.0000000000000000 [Eh]
	 Same-Spin Energy          =      -0.6895417391154810 [Eh]
	 Opposite-Spin Energy      =      -2.2130932779264816 [Eh]
	 Correlation Energy        =      -2.9026350170419626 [Eh]
	 Total Energy              =    -634.6281429571163244 [Eh]

	 ================> DF-SCS-MP2 Energies <==================
	-----------------------------------------------------------
	 SCS Same-Spin Scale       =       0.3333333333333333 [-]
	 SCS Opposite-Spin Scale   =       1.2000000000000000 [-]
	 SCS Same-Spin Energy      =      -0.2298472463718270 [Eh]
	 SCS Opposite-Spin Energy  =      -2.6557119335117778 [Eh]
	 SCS Correlation Energy    =      -2.8855591798836047 [Eh]
	 SCS Total Energy          =    -634.6110671199579656 [Eh]
	-----------------------------------------------------------

  Dipole Moment: [D]
     X:     1.2986      Y:    -2.4997      Z:     2.1109     Total:     3.5201

*** Psi4 exiting successfully. Buy a developer a beer!
