                               Psi4 1.4a3.dev225

  ==> Input File <==

--------------------------------------------------------------------------
#psi4
#
memory 32 gb

molecule  {
0 1
  O        0.0109280     1.9504830    -1.2088660
  N        1.2104930     0.4628600     0.0596820
  C        3.6816010    -0.9509880     0.4072830
  C        3.5342200     0.1692850    -0.6230390
  C        2.3335540    -1.6180450     0.6838790
  C        2.4642000     1.1676880    -0.1911000
  C        1.2914730    -0.5760260     1.0805660
  C        0.1137370     0.8038767    -0.5827724
  C       -1.1808260     0.1020470    -0.2945890
  C       -2.2823960     0.6556420     0.3835130
  C       -1.2622800    -1.1716740    -0.8705440
  C       -3.4454200    -0.1153760     0.4879690
  C       -2.2065840     2.0368470     0.9809810
  C       -2.4366510    -1.9182050    -0.7675160
  C       -3.5304630    -1.3875060    -0.0828830
  H        4.4130950    -1.6928310     0.0671840
  H        4.0710030    -0.5292960     1.3442740
  H        4.4878230     0.6919580    -0.7653020
  H        3.2457620    -0.2529490    -1.5933530
  H        1.9831950    -2.1398170    -0.2152240
  H        2.4267450    -2.3652010     1.4815110
  H        2.7768740     1.6847790     0.7291870
  H        2.2671880     1.9220510    -0.9540200
  H        0.3069530    -1.0243470     1.2170770
  H        1.5834140    -0.1085280     2.0346680
  H       -0.4031770    -1.5700500    -1.4080150
  H       -4.3043690     0.2928860     1.0181070
  H       -2.0253310     2.7815300     0.2022010
  H       -3.1368610     2.2826280     1.5002420
  H       -1.3844770     2.1136550     1.7007310
  H       -2.4977120    -2.9041740    -1.2220500
  H       -4.4499260    -1.9612690     0.0072960
units angstrom
no_reorient  #important for SAPT in psi4, default
symmetry c1  #important for SAPT in psi4, default
}

set PROPERTIES_ORIGIN ["COM"]
properties('MP2/aug-cc-pvtz', properties = ['dipole'])
--------------------------------------------------------------------------

    Molecular point group: c1
  Charge       = 0
  Multiplicity = 1
  Basis Set: AUG-CC-PVTZ
    Blend: AUG-CC-PVTZ
  Basis Set: (AUG-CC-PVTZ AUX)
    Blend: AUG-CC-PVTZ-JKFIT

    Orbital Energies [Eh]
    ---------------------

    Doubly Occupied:

       1A    -20.494010     2A    -15.597473     3A    -11.348488
       4A    -11.273694     5A    -11.260572     6A    -11.253201
       7A    -11.246862     8A    -11.243442     9A    -11.241983
      10A    -11.237844    11A    -11.237121    12A    -11.235467
      13A    -11.232612    14A    -11.230303    15A    -11.216441
      16A     -1.339378    17A     -1.246953    18A     -1.160377
      19A     -1.091720    20A     -1.048149    21A     -1.042661
      22A     -1.026017    23A     -0.946709    24A     -0.926529
      25A     -0.873063    26A     -0.842522    27A     -0.819307
      28A     -0.797872    29A     -0.745508    30A     -0.712917
      31A     -0.664280    32A     -0.654764    33A     -0.650679
      34A     -0.632786    35A     -0.625127    36A     -0.611309
      37A     -0.594461    38A     -0.588287    39A     -0.574726
      40A     -0.569120    41A     -0.558192    42A     -0.548193
      43A     -0.531070    44A     -0.521965    45A     -0.509719
      46A     -0.498377    47A     -0.492769    48A     -0.490771
      49A     -0.476825    50A     -0.468890    51A     -0.465658
      52A     -0.405835    53A     -0.365575    54A     -0.339114
      55A     -0.328156

  @DF-RHF Final Energy:  -631.71009776619928

   => Energetics <=

    Nuclear Repulsion Energy =           1000.0432818924297180
    One-Electron Energy =               -2843.2350676015084900
    Two-Electron Energy =                1211.4816879428794891
    Total Energy =                       -631.7100977661993966
  Basis Set: (AUG-CC-PVTZ AUX)
    Blend: AUG-CC-PVTZ-RI
    Molecular point group: c1

    Geometry (in Angstrom), charge = 0, multiplicity = 1:

       Center              X                  Y                   Z               Mass
    ------------   -----------------  -----------------  -----------------  -----------------
         O            0.053024780190     1.944332586575    -1.179455248371    15.994914619570
         N            1.252589780190     0.456709586575     0.089092751629    14.003074004430
         C            3.723697780190    -0.957138413425     0.436693751629    12.000000000000
         C            3.576316780190     0.163134586575    -0.593628248371    12.000000000000
         C            2.375650780190    -1.624195413425     0.713289751629    12.000000000000
         C            2.506296780190     1.161537586575    -0.161689248371    12.000000000000
         C            1.333569780190    -0.582176413425     1.109976751629    12.000000000000
         C            0.155833780190     0.797726286575    -0.553361648371    12.000000000000
         C           -1.138729219810     0.095896586575    -0.265178248371    12.000000000000
         C           -2.240299219810     0.649491586575     0.412923751629    12.000000000000
         C           -1.220183219810    -1.177824413425    -0.841133248371    12.000000000000
         C           -3.403323219810    -0.121526413425     0.517379751629    12.000000000000
         C           -2.164487219810     2.030696586575     1.010391751629    12.000000000000
         C           -2.394554219810    -1.924355413425    -0.738105248371    12.000000000000
         C           -3.488366219810    -1.393656413425    -0.053472248371    12.000000000000
         H            4.455191780190    -1.698981413425     0.096594751629     1.007825032230
         H            4.113099780190    -0.535446413425     1.373684751629     1.007825032230
         H            4.529919780190     0.685807586575    -0.735891248371     1.007825032230
         H            3.287858780190    -0.259099413425    -1.563942248371     1.007825032230
         H            2.025291780190    -2.145967413425    -0.185813248371     1.007825032230
         H            2.468841780190    -2.371351413425     1.510921751629     1.007825032230
         H            2.818970780190     1.678628586575     0.758597751629     1.007825032230
         H            2.309284780190     1.915900586575    -0.924609248371     1.007825032230
         H            0.349049780190    -1.030497413425     1.246487751629     1.007825032230
         H            1.625510780190    -0.114678413425     2.064078751629     1.007825032230
         H           -0.361080219810    -1.576200413425    -1.378604248371     1.007825032230
         H           -4.262272219810     0.286735586575     1.047517751629     1.007825032230
         H           -1.983234219810     2.775379586575     0.231611751629     1.007825032230
         H           -3.094764219810     2.276477586575     1.529652751629     1.007825032230
         H           -1.342380219810     2.107504586575     1.730141751629     1.007825032230
         H           -2.455615219810    -2.910324413425    -1.192639248371     1.007825032230
         H           -4.407829219810    -1.967419413425     0.036706751629     1.007825032230

  Basis Set: AUG-CC-PVTZ
    Blend: AUG-CC-PVTZ
  Basis Set: (AUG-CC-PVTZ AUX)
    Blend: AUG-CC-PVTZ-JKFIT
	 Reference Energy          =    -631.7100977661992829 [Eh]
	 Singles Energy            =      -0.0000000000000000 [Eh]
	 Same-Spin Energy          =      -0.6905839987498007 [Eh]
	 Opposite-Spin Energy      =      -2.2157088660661457 [Eh]
	 Correlation Energy        =      -2.9062928648159465 [Eh]
	 Total Energy              =    -634.6163906310151788 [Eh]

	 ================> DF-SCS-MP2 Energies <==================
	-----------------------------------------------------------
	 SCS Same-Spin Scale       =       0.3333333333333333 [-]
	 SCS Opposite-Spin Scale   =       1.2000000000000000 [-]
	 SCS Same-Spin Energy      =      -0.2301946662499336 [Eh]
	 SCS Opposite-Spin Energy  =      -2.6588506392793749 [Eh]
	 SCS Correlation Energy    =      -2.8890453055293084 [Eh]
	 SCS Total Energy          =    -634.5991430717285766 [Eh]
	-----------------------------------------------------------

  Dipole Moment: [D]
     X:     1.9096      Y:    -2.9185      Z:     2.6221     Total:     4.3635

*** Psi4 exiting successfully. Buy a developer a beer!
