                               Psi4 1.4a3.dev225

  ==> Input File <==

--------------------------------------------------------------------------
#psi4
#
memory 32 gb

molecule  {
0 1
  O        0.0109280     1.9504830    -1.2088660
  N        1.2104930     0.4628600     0.0596820
  C        3.6816010    -0.9509880     0.4072830
  C        3.5191406     0.1625124    -0.6439190
  C        2.3335540    -1.6180450     0.6838790
  C        2.4642000     1.1676880    -0.1911000
  C        1.2914730    -0.5760260     1.0805660
  C        0.0527250     0.9288280    -0.5097470
  C       -1.1808260     0.1020470    -0.2945890
  C       -2.2823960     0.6556420     0.3835130
  C       -1.2622800    -1.1716740    -0.8705440
  C       -3.4454200    -0.1153760     0.4879690
  C       -2.2065840     2.0368470     0.9809810
  C       -2.4366510    -1.9182050    -0.7675160
  C       -3.5304630    -1.3875060    -0.0828830
  H        4.4130950    -1.6928310     0.0671840
  H        4.0710030    -0.5292960     1.3442740
  H        4.4878230     0.6919580    -0.7653020
  H        3.2457620    -0.2529490    -1.5933530
  H        1.9831950    -2.1398170    -0.2152240
  H        2.4267450    -2.3652010     1.4815110
  H        2.7768740     1.6847790     0.7291870
  H        2.2671880     1.9220510    -0.9540200
  H        0.3069530    -1.0243470     1.2170770
  H        1.5834140    -0.1085280     2.0346680
  H       -0.4031770    -1.5700500    -1.4080150
  H       -4.3043690     0.2928860     1.0181070
  H       -2.0253310     2.7815300     0.2022010
  H       -3.1368610     2.2826280     1.5002420
  H       -1.3844770     2.1136550     1.7007310
  H       -2.4977120    -2.9041740    -1.2220500
  H       -4.4499260    -1.9612690     0.0072960
units angstrom
no_reorient  #important for SAPT in psi4, default
symmetry c1  #important for SAPT in psi4, default
}

set PROPERTIES_ORIGIN ["COM"]
properties('MP2/aug-cc-pvtz', properties = ['dipole'])
--------------------------------------------------------------------------

    Molecular point group: c1
  Charge       = 0
  Multiplicity = 1
  Basis Set: AUG-CC-PVTZ
    Blend: AUG-CC-PVTZ
  Basis Set: (AUG-CC-PVTZ AUX)
    Blend: AUG-CC-PVTZ-JKFIT

    Orbital Energies [Eh]
    ---------------------

    Doubly Occupied:

       1A    -20.510677     2A    -15.583596     3A    -11.349307
       4A    -11.266943     5A    -11.254581     6A    -11.251806
       7A    -11.246311     8A    -11.244974     9A    -11.242611
      10A    -11.239122    11A    -11.236955    12A    -11.230279
      13A    -11.228622    14A    -11.225202    15A    -11.220317
      16A     -1.366904    17A     -1.249539    18A     -1.161395
      19A     -1.082512    20A     -1.050762    21A     -1.037302
      22A     -1.022921    23A     -0.942998    24A     -0.918419
      25A     -0.867272    26A     -0.843688    27A     -0.815364
      28A     -0.791916    29A     -0.743328    30A     -0.712155
      31A     -0.666645    32A     -0.653118    33A     -0.648275
      34A     -0.627476    35A     -0.620467    36A     -0.615384
      37A     -0.596561    38A     -0.586896    39A     -0.575578
      40A     -0.571755    41A     -0.559388    42A     -0.546029
      43A     -0.541436    44A     -0.524943    45A     -0.508826
      46A     -0.504190    47A     -0.491655    48A     -0.489575
      49A     -0.480991    50A     -0.469858    51A     -0.457920
      52A     -0.416688    53A     -0.366184    54A     -0.339961
      55A     -0.329959

  @DF-RHF Final Energy:  -631.72993210086565

   => Energetics <=

    Nuclear Repulsion Energy =           1000.0276993319397434
    One-Electron Energy =               -2843.2601916033695488
    Two-Electron Energy =                1211.5025601705640383
    Total Energy =                       -631.7299321008656534
  Basis Set: (AUG-CC-PVTZ AUX)
    Blend: AUG-CC-PVTZ-RI
    Molecular point group: c1

    Geometry (in Angstrom), charge = 0, multiplicity = 1:

       Center              X                  Y                   Z               Mass
    ------------   -----------------  -----------------  -----------------  -----------------
         O            0.057519892882     1.937351159313    -1.182535746948    15.994914619570
         N            1.257084892882     0.449728159313     0.086012253052    14.003074004430
         C            3.728192892882    -0.964119840687     0.433613253052    12.000000000000
         C            3.565732492882     0.149380559313    -0.617588746948    12.000000000000
         C            2.380145892882    -1.631176840687     0.710209253052    12.000000000000
         C            2.510791892882     1.154556159313    -0.164769746948    12.000000000000
         C            1.338064892882    -0.589157840687     1.106896253052    12.000000000000
         C            0.099316892882     0.915696159313    -0.483416746948    12.000000000000
         C           -1.134234107118     0.088915159313    -0.268258746948    12.000000000000
         C           -2.235804107118     0.642510159313     0.409843253052    12.000000000000
         C           -1.215688107118    -1.184805840687    -0.844213746948    12.000000000000
         C           -3.398828107118    -0.128507840687     0.514299253052    12.000000000000
         C           -2.159992107118     2.023715159313     1.007311253052    12.000000000000
         C           -2.390059107118    -1.931336840687    -0.741185746948    12.000000000000
         C           -3.483871107118    -1.400637840687    -0.056552746948    12.000000000000
         H            4.459686892882    -1.705962840687     0.093514253052     1.007825032230
         H            4.117594892882    -0.542427840687     1.370604253052     1.007825032230
         H            4.534414892882     0.678826159313    -0.738971746948     1.007825032230
         H            3.292353892882    -0.266080840687    -1.567022746948     1.007825032230
         H            2.029786892882    -2.152948840687    -0.188893746948     1.007825032230
         H            2.473336892882    -2.378332840687     1.507841253052     1.007825032230
         H            2.823465892882     1.671647159313     0.755517253052     1.007825032230
         H            2.313779892882     1.908919159313    -0.927689746948     1.007825032230
         H            0.353544892882    -1.037478840687     1.243407253052     1.007825032230
         H            1.630005892882    -0.121659840687     2.060998253052     1.007825032230
         H           -0.356585107118    -1.583181840687    -1.381684746948     1.007825032230
         H           -4.257777107118     0.279754159313     1.044437253052     1.007825032230
         H           -1.978739107118     2.768398159313     0.228531253052     1.007825032230
         H           -3.090269107118     2.269496159313     1.526572253052     1.007825032230
         H           -1.337885107118     2.100523159313     1.727061253052     1.007825032230
         H           -2.451120107118    -2.917305840687    -1.195719746948     1.007825032230
         H           -4.403334107118    -1.974400840687     0.033626253052     1.007825032230

  Basis Set: AUG-CC-PVTZ
    Blend: AUG-CC-PVTZ
  Basis Set: (AUG-CC-PVTZ AUX)
    Blend: AUG-CC-PVTZ-JKFIT
	 Reference Energy          =    -631.7299321008656534 [Eh]
	 Singles Energy            =      -0.0000000000000000 [Eh]
	 Same-Spin Energy          =      -0.6889896767085786 [Eh]
	 Opposite-Spin Energy      =      -2.2122805650567798 [Eh]
	 Correlation Energy        =      -2.9012702417653582 [Eh]
	 Total Energy              =    -634.6312023426310134 [Eh]

	 ================> DF-SCS-MP2 Energies <==================
	-----------------------------------------------------------
	 SCS Same-Spin Scale       =       0.3333333333333333 [-]
	 SCS Opposite-Spin Scale   =       1.2000000000000000 [-]
	 SCS Same-Spin Energy      =      -0.2296632255695262 [Eh]
	 SCS Opposite-Spin Energy  =      -2.6547366780681356 [Eh]
	 SCS Correlation Energy    =      -2.8843999036376617 [Eh]
	 SCS Total Energy          =    -634.6143320045033533 [Eh]
	-----------------------------------------------------------

  Dipole Moment: [D]
     X:     1.4024      Y:    -2.5206      Z:     2.2970     Total:     3.6873

*** Psi4 exiting successfully. Buy a developer a beer!
