                               Psi4 1.4a3.dev225

  ==> Input File <==

--------------------------------------------------------------------------
#psi4
#
memory 32 gb

molecule  {
0 1
  O        0.0109280     1.9504830    -1.2088660
  N        1.2104930     0.4628600     0.0596820
  C        3.6816010    -0.9509880     0.4072830
  C        3.5342200     0.1692850    -0.6230390
  C        2.3335540    -1.6180450     0.6838790
  C        2.4642000     1.1676880    -0.1911000
  C        1.2914730    -0.5760260     1.0805660
  C        0.0527250     0.9288280    -0.5097470
  C       -1.1557257     0.1433208    -0.2857309
  C       -2.2823960     0.6556420     0.3835130
  C       -1.2622800    -1.1716740    -0.8705440
  C       -3.4454200    -0.1153760     0.4879690
  C       -2.2065840     2.0368470     0.9809810
  C       -2.4366510    -1.9182050    -0.7675160
  C       -3.5304630    -1.3875060    -0.0828830
  H        4.4130950    -1.6928310     0.0671840
  H        4.0710030    -0.5292960     1.3442740
  H        4.4878230     0.6919580    -0.7653020
  H        3.2457620    -0.2529490    -1.5933530
  H        1.9831950    -2.1398170    -0.2152240
  H        2.4267450    -2.3652010     1.4815110
  H        2.7768740     1.6847790     0.7291870
  H        2.2671880     1.9220510    -0.9540200
  H        0.3069530    -1.0243470     1.2170770
  H        1.5834140    -0.1085280     2.0346680
  H       -0.4031770    -1.5700500    -1.4080150
  H       -4.3043690     0.2928860     1.0181070
  H       -2.0253310     2.7815300     0.2022010
  H       -3.1368610     2.2826280     1.5002420
  H       -1.3844770     2.1136550     1.7007310
  H       -2.4977120    -2.9041740    -1.2220500
  H       -4.4499260    -1.9612690     0.0072960
units angstrom
no_reorient  #important for SAPT in psi4, default
symmetry c1  #important for SAPT in psi4, default
}

set PROPERTIES_ORIGIN ["COM"]
properties('MP2/aug-cc-pvtz', properties = ['dipole'])
--------------------------------------------------------------------------

    Molecular point group: c1
  Charge       = 0
  Multiplicity = 1
  Basis Set: AUG-CC-PVTZ
    Blend: AUG-CC-PVTZ
  Basis Set: (AUG-CC-PVTZ AUX)
    Blend: AUG-CC-PVTZ-JKFIT

    Orbital Energies [Eh]
    ---------------------

    Doubly Occupied:

       1A    -20.510266     2A    -15.583978     3A    -11.347746
       4A    -11.266974     5A    -11.254686     6A    -11.252961
       7A    -11.251389     8A    -11.246632     9A    -11.244138
      10A    -11.239845    11A    -11.237710    12A    -11.230572
      13A    -11.228272    14A    -11.225637    15A    -11.219052
      16A     -1.368287    17A     -1.249949    18A     -1.158574
      19A     -1.084215    20A     -1.052430    21A     -1.036634
      22A     -1.021875    23A     -0.944746    24A     -0.918091
      25A     -0.868694    26A     -0.847731    27A     -0.814470
      28A     -0.789322    29A     -0.743349    30A     -0.714447
      31A     -0.668767    32A     -0.653910    33A     -0.648354
      34A     -0.628222    35A     -0.618885    36A     -0.615259
      37A     -0.595895    38A     -0.588594    39A     -0.575729
      40A     -0.571322    41A     -0.560419    42A     -0.547280
      43A     -0.540802    44A     -0.525624    45A     -0.510151
      46A     -0.502040    47A     -0.489195    48A     -0.486031
      49A     -0.476922    50A     -0.469523    51A     -0.461544
      52A     -0.420159    53A     -0.366212    54A     -0.336229
      55A     -0.331158

  @DF-RHF Final Energy:  -631.72639187813797

   => Energetics <=

    Nuclear Repulsion Energy =           1000.1126925229760900
    One-Electron Energy =               -2843.3963710579710096
    Two-Electron Energy =                1211.5572866568570589
    Total Energy =                       -631.7263918781379743
  Basis Set: (AUG-CC-PVTZ AUX)
    Blend: AUG-CC-PVTZ-RI
    Molecular point group: c1

    Geometry (in Angstrom), charge = 0, multiplicity = 1:

       Center              X                  Y                   Z               Mass
    ------------   -----------------  -----------------  -----------------  -----------------
         O            0.055146270115     1.934512809875    -1.184292530379    15.994914619570
         N            1.254711270115     0.446889809875     0.084255469621    14.003074004430
         C            3.725819270115    -0.966958190125     0.431856469621    12.000000000000
         C            3.578438270115     0.153314809875    -0.598465530379    12.000000000000
         C            2.377772270115    -1.634015190125     0.708452469621    12.000000000000
         C            2.508418270115     1.151717809875    -0.166526530379    12.000000000000
         C            1.335691270115    -0.591996190125     1.105139469621    12.000000000000
         C            0.096943270115     0.912857809875    -0.485173530379    12.000000000000
         C           -1.111507429885     0.127350609875    -0.261157430379    12.000000000000
         C           -2.238177729885     0.639671809875     0.408086469621    12.000000000000
         C           -1.218061729885    -1.187644190125    -0.845970530379    12.000000000000
         C           -3.401201729885    -0.131346190125     0.512542469621    12.000000000000
         C           -2.162365729885     2.020876809875     1.005554469621    12.000000000000
         C           -2.392432729885    -1.934175190125    -0.742942530379    12.000000000000
         C           -3.486244729885    -1.403476190125    -0.058309530379    12.000000000000
         H            4.457313270115    -1.708801190125     0.091757469621     1.007825032230
         H            4.115221270115    -0.545266190125     1.368847469621     1.007825032230
         H            4.532041270115     0.675987809875    -0.740728530379     1.007825032230
         H            3.289980270115    -0.268919190125    -1.568779530379     1.007825032230
         H            2.027413270115    -2.155787190125    -0.190650530379     1.007825032230
         H            2.470963270115    -2.381171190125     1.506084469621     1.007825032230
         H            2.821092270115     1.668808809875     0.753760469621     1.007825032230
         H            2.311406270115     1.906080809875    -0.929446530379     1.007825032230
         H            0.351171270115    -1.040317190125     1.241650469621     1.007825032230
         H            1.627632270115    -0.124498190125     2.059241469621     1.007825032230
         H           -0.358958729885    -1.586020190125    -1.383441530379     1.007825032230
         H           -4.260150729885     0.276915809875     1.042680469621     1.007825032230
         H           -1.981112729885     2.765559809875     0.226774469621     1.007825032230
         H           -3.092642729885     2.266657809875     1.524815469621     1.007825032230
         H           -1.340258729885     2.097684809875     1.725304469621     1.007825032230
         H           -2.453493729885    -2.920144190125    -1.197476530379     1.007825032230
         H           -4.405707729885    -1.977239190125     0.031869469621     1.007825032230

  Basis Set: AUG-CC-PVTZ
    Blend: AUG-CC-PVTZ
  Basis Set: (AUG-CC-PVTZ AUX)
    Blend: AUG-CC-PVTZ-JKFIT
	 Reference Energy          =    -631.7263918781379743 [Eh]
	 Singles Energy            =      -0.0000000000000000 [Eh]
	 Same-Spin Energy          =      -0.6895616691009850 [Eh]
	 Opposite-Spin Energy      =      -2.2132473274743809 [Eh]
	 Correlation Energy        =      -2.9028089965753661 [Eh]
	 Total Energy              =    -634.6292008747133195 [Eh]

	 ================> DF-SCS-MP2 Energies <==================
	-----------------------------------------------------------
	 SCS Same-Spin Scale       =       0.3333333333333333 [-]
	 SCS Opposite-Spin Scale   =       1.2000000000000000 [-]
	 SCS Same-Spin Energy      =      -0.2298538897003283 [Eh]
	 SCS Opposite-Spin Energy  =      -2.6558967929692572 [Eh]
	 SCS Correlation Energy    =      -2.8857506826695856 [Eh]
	 SCS Total Energy          =    -634.6121425608075697 [Eh]
	-----------------------------------------------------------

  Dipole Moment: [D]
     X:     1.3759      Y:    -2.5569      Z:     2.3076     Total:     3.7089

*** Psi4 exiting successfully. Buy a developer a beer!
