                               Psi4 1.4a3.dev225

  ==> Input File <==

--------------------------------------------------------------------------
#psi4
#
memory 32 gb

molecule  {
0 1
  O        0.0109280     1.9504830    -1.2088660
  N        1.2104930     0.4628600     0.0596820
  C        3.6816010    -0.9509880     0.4072830
  C        3.5342200     0.1692850    -0.6230390
  C        2.3335540    -1.6180450     0.6838790
  C        2.5106246     1.0987040    -0.1321917
  C        1.2914730    -0.5760260     1.0805660
  C        0.0527250     0.9288280    -0.5097470
  C       -1.1808260     0.1020470    -0.2945890
  C       -2.2823960     0.6556420     0.3835130
  C       -1.2622800    -1.1716740    -0.8705440
  C       -3.4454200    -0.1153760     0.4879690
  C       -2.2065840     2.0368470     0.9809810
  C       -2.4366510    -1.9182050    -0.7675160
  C       -3.5304630    -1.3875060    -0.0828830
  H        4.4130950    -1.6928310     0.0671840
  H        4.0710030    -0.5292960     1.3442740
  H        4.4878230     0.6919580    -0.7653020
  H        3.2457620    -0.2529490    -1.5933530
  H        1.9831950    -2.1398170    -0.2152240
  H        2.4267450    -2.3652010     1.4815110
  H        2.7768740     1.6847790     0.7291870
  H        2.2671880     1.9220510    -0.9540200
  H        0.3069530    -1.0243470     1.2170770
  H        1.5834140    -0.1085280     2.0346680
  H       -0.4031770    -1.5700500    -1.4080150
  H       -4.3043690     0.2928860     1.0181070
  H       -2.0253310     2.7815300     0.2022010
  H       -3.1368610     2.2826280     1.5002420
  H       -1.3844770     2.1136550     1.7007310
  H       -2.4977120    -2.9041740    -1.2220500
  H       -4.4499260    -1.9612690     0.0072960
units angstrom
no_reorient  #important for SAPT in psi4, default
symmetry c1  #important for SAPT in psi4, default
}

set PROPERTIES_ORIGIN ["COM"]
properties('MP2/aug-cc-pvtz', properties = ['dipole'])
--------------------------------------------------------------------------

    Molecular point group: c1
  Charge       = 0
  Multiplicity = 1
  Basis Set: AUG-CC-PVTZ
    Blend: AUG-CC-PVTZ
  Basis Set: (AUG-CC-PVTZ AUX)
    Blend: AUG-CC-PVTZ-JKFIT

    Orbital Energies [Eh]
    ---------------------

    Doubly Occupied:

       1A    -20.511146     2A    -15.583733     3A    -11.351134
       4A    -11.264987     5A    -11.256781     6A    -11.252251
       7A    -11.246837     8A    -11.245639     9A    -11.242945
      10A    -11.239340    11A    -11.237197    12A    -11.230498
      13A    -11.227195    14A    -11.224060    15A    -11.220510
      16A     -1.366475    17A     -1.251290    18A     -1.161816
      19A     -1.088865    20A     -1.050959    21A     -1.037751
      22A     -1.025742    23A     -0.943636    24A     -0.919991
      25A     -0.866005    26A     -0.842480    27A     -0.816210
      28A     -0.793858    29A     -0.743495    30A     -0.712203
      31A     -0.666189    32A     -0.653239    33A     -0.649461
      34A     -0.628956    35A     -0.620112    36A     -0.617026
      37A     -0.596529    38A     -0.588892    39A     -0.575393
      40A     -0.572279    41A     -0.554910    42A     -0.548973
      43A     -0.541470    44A     -0.524399    45A     -0.510617
      46A     -0.504243    47A     -0.491975    48A     -0.489183
      49A     -0.482478    50A     -0.468828    51A     -0.444292
      52A     -0.415353    53A     -0.369256    54A     -0.340164
      55A     -0.330276

  @DF-RHF Final Energy:  -631.71752761102823

   => Energetics <=

    Nuclear Repulsion Energy =           1000.5724696580442696
    One-Electron Energy =               -2844.3009470332954152
    Two-Electron Energy =                1212.0109497642231418
    Total Energy =                       -631.7175276110281175
  Basis Set: (AUG-CC-PVTZ AUX)
    Blend: AUG-CC-PVTZ-RI
    Molecular point group: c1

    Geometry (in Angstrom), charge = 0, multiplicity = 1:

       Center              X                  Y                   Z               Mass
    ------------   -----------------  -----------------  -----------------  -----------------
         O            0.053886533383     1.941026308591    -1.187249254651    15.994914619570
         N            1.253451533383     0.453403308591     0.081298745349    14.003074004430
         C            3.724559533383    -0.960444691409     0.428899745349    12.000000000000
         C            3.577178533383     0.159828308591    -0.601422254651    12.000000000000
         C            2.376512533383    -1.627501691409     0.705495745349    12.000000000000
         C            2.553583133383     1.089247308591    -0.110574954651    12.000000000000
         C            1.334431533383    -0.585482691409     1.102182745349    12.000000000000
         C            0.095683533383     0.919371308591    -0.488130254651    12.000000000000
         C           -1.137867466617     0.092590308591    -0.272972254651    12.000000000000
         C           -2.239437466617     0.646185308591     0.405129745349    12.000000000000
         C           -1.219321466617    -1.181130691409    -0.848927254651    12.000000000000
         C           -3.402461466617    -0.124832691409     0.509585745349    12.000000000000
         C           -2.163625466617     2.027390308591     1.002597745349    12.000000000000
         C           -2.393692466617    -1.927661691409    -0.745899254651    12.000000000000
         C           -3.487504466617    -1.396962691409    -0.061266254651    12.000000000000
         H            4.456053533383    -1.702287691409     0.088800745349     1.007825032230
         H            4.113961533383    -0.538752691409     1.365890745349     1.007825032230
         H            4.530781533383     0.682501308591    -0.743685254651     1.007825032230
         H            3.288720533383    -0.262405691409    -1.571736254651     1.007825032230
         H            2.026153533383    -2.149273691409    -0.193607254651     1.007825032230
         H            2.469703533383    -2.374657691409     1.503127745349     1.007825032230
         H            2.819832533383     1.675322308591     0.750803745349     1.007825032230
         H            2.310146533383     1.912594308591    -0.932403254651     1.007825032230
         H            0.349911533383    -1.033803691409     1.238693745349     1.007825032230
         H            1.626372533383    -0.117984691409     2.056284745349     1.007825032230
         H           -0.360218466617    -1.579506691409    -1.386398254651     1.007825032230
         H           -4.261410466617     0.283429308591     1.039723745349     1.007825032230
         H           -1.982372466617     2.772073308591     0.223817745349     1.007825032230
         H           -3.093902466617     2.273171308591     1.521858745349     1.007825032230
         H           -1.341518466617     2.104198308591     1.722347745349     1.007825032230
         H           -2.454753466617    -2.913630691409    -1.200433254651     1.007825032230
         H           -4.406967466617    -1.970725691409     0.028912745349     1.007825032230

  Basis Set: AUG-CC-PVTZ
    Blend: AUG-CC-PVTZ
  Basis Set: (AUG-CC-PVTZ AUX)
    Blend: AUG-CC-PVTZ-JKFIT
	 Reference Energy          =    -631.7175276110282311 [Eh]
	 Singles Energy            =      -0.0000000000000000 [Eh]
	 Same-Spin Energy          =      -0.6901334730829144 [Eh]
	 Opposite-Spin Energy      =      -2.2139699527738883 [Eh]
	 Correlation Energy        =      -2.9041034258568028 [Eh]
	 Total Energy              =    -634.6216310368849918 [Eh]

	 ================> DF-SCS-MP2 Energies <==================
	-----------------------------------------------------------
	 SCS Same-Spin Scale       =       0.3333333333333333 [-]
	 SCS Opposite-Spin Scale   =       1.2000000000000000 [-]
	 SCS Same-Spin Energy      =      -0.2300444910276381 [Eh]
	 SCS Opposite-Spin Energy  =      -2.6567639433286661 [Eh]
	 SCS Correlation Energy    =      -2.8868084343563041 [Eh]
	 SCS Total Energy          =    -634.6043360453845708 [Eh]
	-----------------------------------------------------------

  Dipole Moment: [D]
     X:     1.3871      Y:    -2.5266      Z:     2.3043     Total:     3.6902

*** Psi4 exiting successfully. Buy a developer a beer!
