                               Psi4 1.4a3.dev225

  ==> Input File <==

--------------------------------------------------------------------------
#psi4
#
memory 32 gb

molecule  {
0 1
  O        0.0109280     1.9504830    -1.2088660
  N        1.2284920     0.4508056     0.0463048
  C        3.6816010    -0.9509880     0.4072830
  C        3.5342200     0.1692850    -0.6230390
  C        2.3335540    -1.6180450     0.6838790
  C        2.4642000     1.1676880    -0.1911000
  C        1.2914730    -0.5760260     1.0805660
  C        0.0527250     0.9288280    -0.5097470
  C       -1.1808260     0.1020470    -0.2945890
  C       -2.2823960     0.6556420     0.3835130
  C       -1.2622800    -1.1716740    -0.8705440
  C       -3.4454200    -0.1153760     0.4879690
  C       -2.2065840     2.0368470     0.9809810
  C       -2.4366510    -1.9182050    -0.7675160
  C       -3.5304630    -1.3875060    -0.0828830
  H        4.4130950    -1.6928310     0.0671840
  H        4.0710030    -0.5292960     1.3442740
  H        4.4878230     0.6919580    -0.7653020
  H        3.2457620    -0.2529490    -1.5933530
  H        1.9831950    -2.1398170    -0.2152240
  H        2.4267450    -2.3652010     1.4815110
  H        2.7768740     1.6847790     0.7291870
  H        2.2671880     1.9220510    -0.9540200
  H        0.3069530    -1.0243470     1.2170770
  H        1.5834140    -0.1085280     2.0346680
  H       -0.4031770    -1.5700500    -1.4080150
  H       -4.3043690     0.2928860     1.0181070
  H       -2.0253310     2.7815300     0.2022010
  H       -3.1368610     2.2826280     1.5002420
  H       -1.3844770     2.1136550     1.7007310
  H       -2.4977120    -2.9041740    -1.2220500
  H       -4.4499260    -1.9612690     0.0072960
units angstrom
no_reorient  #important for SAPT in psi4, default
symmetry c1  #important for SAPT in psi4, default
}

set PROPERTIES_ORIGIN ["COM"]
properties('MP2/aug-cc-pvtz', properties = ['dipole'])
--------------------------------------------------------------------------

    Molecular point group: c1
  Charge       = 0
  Multiplicity = 1
  Basis Set: AUG-CC-PVTZ
    Blend: AUG-CC-PVTZ
  Basis Set: (AUG-CC-PVTZ AUX)
    Blend: AUG-CC-PVTZ-JKFIT

    Orbital Energies [Eh]
    ---------------------

    Doubly Occupied:

       1A    -20.513591     2A    -15.582887     3A    -11.351582
       4A    -11.266274     5A    -11.253024     6A    -11.252530
       7A    -11.247013     8A    -11.245814     9A    -11.243186
      10A    -11.239568    11A    -11.237458    12A    -11.229478
      13A    -11.227468    14A    -11.224244    15A    -11.220944
      16A     -1.367689    17A     -1.249807    18A     -1.162051
      19A     -1.081561    20A     -1.051378    21A     -1.037884
      22A     -1.023228    23A     -0.943084    24A     -0.916568
      25A     -0.866985    26A     -0.844184    27A     -0.815333
      28A     -0.789948    29A     -0.743839    30A     -0.712744
      31A     -0.667436    32A     -0.652983    33A     -0.648279
      34A     -0.627472    35A     -0.620393    36A     -0.614837
      37A     -0.596301    38A     -0.587216    39A     -0.576135
      40A     -0.572133    41A     -0.561762    42A     -0.546825
      43A     -0.541818    44A     -0.524889    45A     -0.508302
      46A     -0.501917    47A     -0.492014    48A     -0.489336
      49A     -0.478179    50A     -0.468791    51A     -0.460632
      52A     -0.418347    53A     -0.365318    54A     -0.340505
      55A     -0.330581

  @DF-RHF Final Energy:  -631.72971773742825

   => Energetics <=

    Nuclear Repulsion Energy =            999.9247309346463908
    One-Electron Energy =               -2843.0414053375789081
    Two-Electron Energy =                1211.3869566655041581
    Total Energy =                       -631.7297177374282455
  Basis Set: (AUG-CC-PVTZ AUX)
    Blend: AUG-CC-PVTZ-RI
    Molecular point group: c1

    Geometry (in Angstrom), charge = 0, multiplicity = 1:

       Center              X                  Y                   Z               Mass
    ------------   -----------------  -----------------  -----------------  -----------------
         O            0.055388292591     1.937782050950    -1.182847063655    15.994914619570
         N            1.272952292591     0.438104650950     0.072323736345    14.003074004430
         C            3.726061292591    -0.963688949050     0.433301936345    12.000000000000
         C            3.578680292591     0.156584050950    -0.597020063655    12.000000000000
         C            2.378014292591    -1.630745949050     0.709897936345    12.000000000000
         C            2.508660292591     1.154987050950    -0.165081063655    12.000000000000
         C            1.335933292591    -0.588726949050     1.106584936345    12.000000000000
         C            0.097185292591     0.916127050950    -0.483728063655    12.000000000000
         C           -1.136365707409     0.089346050950    -0.268570063655    12.000000000000
         C           -2.237935707409     0.642941050950     0.409531936345    12.000000000000
         C           -1.217819707409    -1.184374949050    -0.844525063655    12.000000000000
         C           -3.400959707409    -0.128076949050     0.513987936345    12.000000000000
         C           -2.162123707409     2.024146050950     1.006999936345    12.000000000000
         C           -2.392190707409    -1.930905949050    -0.741497063655    12.000000000000
         C           -3.486002707409    -1.400206949050    -0.056864063655    12.000000000000
         H            4.457555292591    -1.705531949050     0.093202936345     1.007825032230
         H            4.115463292591    -0.541996949050     1.370292936345     1.007825032230
         H            4.532283292591     0.679257050950    -0.739283063655     1.007825032230
         H            3.290222292591    -0.265649949050    -1.567334063655     1.007825032230
         H            2.027655292591    -2.152517949050    -0.189205063655     1.007825032230
         H            2.471205292591    -2.377901949050     1.507529936345     1.007825032230
         H            2.821334292591     1.672078050950     0.755205936345     1.007825032230
         H            2.311648292591     1.909350050950    -0.928001063655     1.007825032230
         H            0.351413292591    -1.037047949050     1.243095936345     1.007825032230
         H            1.627874292591    -0.121228949050     2.060686936345     1.007825032230
         H           -0.358716707409    -1.582750949050    -1.381996063655     1.007825032230
         H           -4.259908707409     0.280185050950     1.044125936345     1.007825032230
         H           -1.980870707409     2.768829050950     0.228219936345     1.007825032230
         H           -3.092400707409     2.269927050950     1.526260936345     1.007825032230
         H           -1.340016707409     2.100954050950     1.726749936345     1.007825032230
         H           -2.453251707409    -2.916874949050    -1.196031063655     1.007825032230
         H           -4.405465707409    -1.973969949050     0.033314936345     1.007825032230

  Basis Set: AUG-CC-PVTZ
    Blend: AUG-CC-PVTZ
  Basis Set: (AUG-CC-PVTZ AUX)
    Blend: AUG-CC-PVTZ-JKFIT
	 Reference Energy          =    -631.7297177374282455 [Eh]
	 Singles Energy            =      -0.0000000000000000 [Eh]
	 Same-Spin Energy          =      -0.6891794941242049 [Eh]
	 Opposite-Spin Energy      =      -2.2125813807893606 [Eh]
	 Correlation Energy        =      -2.9017608749135655 [Eh]
	 Total Energy              =    -634.6314786123417662 [Eh]

	 ================> DF-SCS-MP2 Energies <==================
	-----------------------------------------------------------
	 SCS Same-Spin Scale       =       0.3333333333333333 [-]
	 SCS Opposite-Spin Scale   =       1.2000000000000000 [-]
	 SCS Same-Spin Energy      =      -0.2297264980414016 [Eh]
	 SCS Opposite-Spin Energy  =      -2.6550976569472327 [Eh]
	 SCS Correlation Energy    =      -2.8848241549886344 [Eh]
	 SCS Total Energy          =    -634.6145418924169235 [Eh]
	-----------------------------------------------------------

  Dipole Moment: [D]
     X:     1.2826      Y:    -2.4694      Z:     2.2839     Total:     3.5999

*** Psi4 exiting successfully. Buy a developer a beer!
