                               Psi4 1.4a3.dev225

  ==> Input File <==

--------------------------------------------------------------------------
#psi4
#
memory 32 gb

molecule  {
0 1
  O        0.0109280     1.9504830    -1.2088660
  N        1.2104930     0.4628600     0.0596820
  C        3.6816010    -0.9509880     0.4072830
  C        3.5342200     0.1692850    -0.6230390
  C        2.3335540    -1.6180450     0.6838790
  C        2.4642000     1.1676880    -0.1911000
  C        1.2886974    -0.5404180     1.0455750
  C        0.0527250     0.9288280    -0.5097470
  C       -1.1808260     0.1020470    -0.2945890
  C       -2.2823960     0.6556420     0.3835130
  C       -1.2622800    -1.1716740    -0.8705440
  C       -3.4454200    -0.1153760     0.4879690
  C       -2.2065840     2.0368470     0.9809810
  C       -2.4366510    -1.9182050    -0.7675160
  C       -3.5304630    -1.3875060    -0.0828830
  H        4.4130950    -1.6928310     0.0671840
  H        4.0710030    -0.5292960     1.3442740
  H        4.4878230     0.6919580    -0.7653020
  H        3.2457620    -0.2529490    -1.5933530
  H        1.9831950    -2.1398170    -0.2152240
  H        2.4267450    -2.3652010     1.4815110
  H        2.7768740     1.6847790     0.7291870
  H        2.2671880     1.9220510    -0.9540200
  H        0.3069530    -1.0243470     1.2170770
  H        1.5834140    -0.1085280     2.0346680
  H       -0.4031770    -1.5700500    -1.4080150
  H       -4.3043690     0.2928860     1.0181070
  H       -2.0253310     2.7815300     0.2022010
  H       -3.1368610     2.2826280     1.5002420
  H       -1.3844770     2.1136550     1.7007310
  H       -2.4977120    -2.9041740    -1.2220500
  H       -4.4499260    -1.9612690     0.0072960
units angstrom
no_reorient  #important for SAPT in psi4, default
symmetry c1  #important for SAPT in psi4, default
}

set PROPERTIES_ORIGIN ["COM"]
properties('MP2/aug-cc-pvtz', properties = ['dipole'])
--------------------------------------------------------------------------

    Molecular point group: c1
  Charge       = 0
  Multiplicity = 1
  Basis Set: AUG-CC-PVTZ
    Blend: AUG-CC-PVTZ
  Basis Set: (AUG-CC-PVTZ AUX)
    Blend: AUG-CC-PVTZ-JKFIT

    Orbital Energies [Eh]
    ---------------------

    Doubly Occupied:

       1A    -20.513161     2A    -15.585526     3A    -11.351644
       4A    -11.266171     5A    -11.255962     6A    -11.252265
       7A    -11.246832     8A    -11.245609     9A    -11.242938
      10A    -11.239397    11A    -11.237251    12A    -11.229805
      13A    -11.227289    14A    -11.226065    15A    -11.220753
      16A     -1.370135    17A     -1.260498    18A     -1.161905
      19A     -1.083324    20A     -1.051115    21A     -1.036264
      22A     -1.023232    23A     -0.943827    24A     -0.918902
      25A     -0.868590    26A     -0.845645    27A     -0.816380
      28A     -0.791886    29A     -0.744168    30A     -0.714435
      31A     -0.667073    32A     -0.654135    33A     -0.650739
      34A     -0.627039    35A     -0.620919    36A     -0.616456
      37A     -0.596326    38A     -0.587945    39A     -0.576241
      40A     -0.572721    41A     -0.563096    42A     -0.545530
      43A     -0.542300    44A     -0.524307    45A     -0.507823
      46A     -0.499590    47A     -0.491724    48A     -0.489321
      49A     -0.477904    50A     -0.468202    51A     -0.462396
      52A     -0.418495    53A     -0.365273    54A     -0.340051
      55A     -0.330330

  @DF-RHF Final Energy:  -631.72810724640863

   => Energetics <=

    Nuclear Repulsion Energy =           1000.8909703298378417
    One-Electron Energy =               -2844.9043391028849328
    Two-Electron Energy =                1212.2852615266385783
    Total Energy =                       -631.7281072464086265
  Basis Set: (AUG-CC-PVTZ AUX)
    Blend: AUG-CC-PVTZ-RI
    Molecular point group: c1

    Geometry (in Angstrom), charge = 0, multiplicity = 1:

       Center              X                  Y                   Z               Mass
    ------------   -----------------  -----------------  -----------------  -----------------
         O            0.056793043757     1.934847517995    -1.181702137168    15.994914619570
         N            1.256358043757     0.447224517995     0.086845862832    14.003074004430
         C            3.727466043757    -0.966623482005     0.434446862832    12.000000000000
         C            3.580085043757     0.153649517995    -0.595875137168    12.000000000000
         C            2.379419043757    -1.633680482005     0.711042862832    12.000000000000
         C            2.510065043757     1.152052517995    -0.163936137168    12.000000000000
         C            1.334562443757    -0.556053482005     1.072738862832    12.000000000000
         C            0.098590043757     0.913192517995    -0.482583137168    12.000000000000
         C           -1.134960956243     0.086411517995    -0.267425137168    12.000000000000
         C           -2.236530956243     0.640006517995     0.410676862832    12.000000000000
         C           -1.216414956243    -1.187309482005    -0.843380137168    12.000000000000
         C           -3.399554956243    -0.131011482005     0.515132862832    12.000000000000
         C           -2.160718956243     2.021211517995     1.008144862832    12.000000000000
         C           -2.390785956243    -1.933840482005    -0.740352137168    12.000000000000
         C           -3.484597956243    -1.403141482005    -0.055719137168    12.000000000000
         H            4.458960043757    -1.708466482005     0.094347862832     1.007825032230
         H            4.116868043757    -0.544931482005     1.371437862832     1.007825032230
         H            4.533688043757     0.676322517995    -0.738138137168     1.007825032230
         H            3.291627043757    -0.268584482005    -1.566189137168     1.007825032230
         H            2.029060043757    -2.155452482005    -0.188060137168     1.007825032230
         H            2.472610043757    -2.380836482005     1.508674862832     1.007825032230
         H            2.822739043757     1.669143517995     0.756350862832     1.007825032230
         H            2.313053043757     1.906415517995    -0.926856137168     1.007825032230
         H            0.352818043757    -1.039982482005     1.244240862832     1.007825032230
         H            1.629279043757    -0.124163482005     2.061831862832     1.007825032230
         H           -0.357311956243    -1.585685482005    -1.380851137168     1.007825032230
         H           -4.258503956243     0.277250517995     1.045270862832     1.007825032230
         H           -1.979465956243     2.765894517995     0.229364862832     1.007825032230
         H           -3.090995956243     2.266992517995     1.527405862832     1.007825032230
         H           -1.338611956243     2.098019517995     1.727894862832     1.007825032230
         H           -2.451846956243    -2.919809482005    -1.194886137168     1.007825032230
         H           -4.404060956243    -1.976904482005     0.034459862832     1.007825032230

  Basis Set: AUG-CC-PVTZ
    Blend: AUG-CC-PVTZ
  Basis Set: (AUG-CC-PVTZ AUX)
    Blend: AUG-CC-PVTZ-JKFIT
	 Reference Energy          =    -631.7281072464086265 [Eh]
	 Singles Energy            =      -0.0000000000000000 [Eh]
	 Same-Spin Energy          =      -0.6894013104662464 [Eh]
	 Opposite-Spin Energy      =      -2.2125060978524513 [Eh]
	 Correlation Energy        =      -2.9019074083186975 [Eh]
	 Total Energy              =    -634.6300146547273471 [Eh]

	 ================> DF-SCS-MP2 Energies <==================
	-----------------------------------------------------------
	 SCS Same-Spin Scale       =       0.3333333333333333 [-]
	 SCS Opposite-Spin Scale   =       1.2000000000000000 [-]
	 SCS Same-Spin Energy      =      -0.2298004368220821 [Eh]
	 SCS Opposite-Spin Energy  =      -2.6550073174229416 [Eh]
	 SCS Correlation Energy    =      -2.8848077542450237 [Eh]
	 SCS Total Energy          =    -634.6129150006536292 [Eh]
	-----------------------------------------------------------

  Dipole Moment: [D]
     X:     1.3374      Y:    -2.4330      Z:     2.2009     Total:     3.5429

*** Psi4 exiting successfully. Buy a developer a beer!
