                               Psi4 1.4a3.dev225

  ==> Input File <==

--------------------------------------------------------------------------
#psi4
#
memory 32 gb

molecule  {
0 1
  O        0.0109280     1.9504830    -1.2088660
  N        1.2104930     0.4628600     0.0596820
  C        3.6816010    -0.9509880     0.4072830
  C        3.5489735     0.1763617    -0.6020275
  C        2.3335540    -1.6180450     0.6838790
  C        2.4642000     1.1676880    -0.1911000
  C        1.2914730    -0.5760260     1.0805660
  C        0.0527250     0.9288280    -0.5097470
  C       -1.1808260     0.1020470    -0.2945890
  C       -2.2823960     0.6556420     0.3835130
  C       -1.2622800    -1.1716740    -0.8705440
  C       -3.4454200    -0.1153760     0.4879690
  C       -2.2065840     2.0368470     0.9809810
  C       -2.4366510    -1.9182050    -0.7675160
  C       -3.5304630    -1.3875060    -0.0828830
  H        4.4130950    -1.6928310     0.0671840
  H        4.0710030    -0.5292960     1.3442740
  H        4.4878230     0.6919580    -0.7653020
  H        3.2457620    -0.2529490    -1.5933530
  H        1.9831950    -2.1398170    -0.2152240
  H        2.4267450    -2.3652010     1.4815110
  H        2.7768740     1.6847790     0.7291870
  H        2.2671880     1.9220510    -0.9540200
  H        0.3069530    -1.0243470     1.2170770
  H        1.5834140    -0.1085280     2.0346680
  H       -0.4031770    -1.5700500    -1.4080150
  H       -4.3043690     0.2928860     1.0181070
  H       -2.0253310     2.7815300     0.2022010
  H       -3.1368610     2.2826280     1.5002420
  H       -1.3844770     2.1136550     1.7007310
  H       -2.4977120    -2.9041740    -1.2220500
  H       -4.4499260    -1.9612690     0.0072960
units angstrom
no_reorient  #important for SAPT in psi4, default
symmetry c1  #important for SAPT in psi4, default
}

set PROPERTIES_ORIGIN ["COM"]
properties('MP2/aug-cc-pvtz', properties = ['dipole'])
--------------------------------------------------------------------------

    Molecular point group: c1
  Charge       = 0
  Multiplicity = 1
  Basis Set: AUG-CC-PVTZ
    Blend: AUG-CC-PVTZ
  Basis Set: (AUG-CC-PVTZ AUX)
    Blend: AUG-CC-PVTZ-JKFIT

    Orbital Energies [Eh]
    ---------------------

    Doubly Occupied:

       1A    -20.510918     2A    -15.584242     3A    -11.349636
       4A    -11.267227     5A    -11.254801     6A    -11.251896
       7A    -11.246381     8A    -11.245066     9A    -11.242688
      10A    -11.239162    11A    -11.237005    12A    -11.231032
      13A    -11.228134    14A    -11.226351    15A    -11.220366
      16A     -1.367117    17A     -1.249682    18A     -1.161472
      19A     -1.084758    20A     -1.050847    21A     -1.037336
      22A     -1.023489    23A     -0.943356    24A     -0.919235
      25A     -0.867767    26A     -0.844565    27A     -0.815281
      28A     -0.790282    29A     -0.742064    30A     -0.712615
      31A     -0.666920    32A     -0.652780    33A     -0.648445
      34A     -0.628464    35A     -0.620358    36A     -0.615310
      37A     -0.596266    38A     -0.589139    39A     -0.575743
      40A     -0.571861    41A     -0.561194    42A     -0.548852
      43A     -0.541740    44A     -0.524800    45A     -0.507876
      46A     -0.500236    47A     -0.491499    48A     -0.489240
      49A     -0.476432    50A     -0.468107    51A     -0.464337
      52A     -0.417170    53A     -0.366268    54A     -0.340037
      55A     -0.330046

  @DF-RHF Final Energy:  -631.72985844401535

   => Energetics <=

    Nuclear Repulsion Energy =            999.9155136463106146
    One-Electron Energy =               -2843.0149631320978187
    Two-Electron Energy =                1211.3695910417720825
    Total Energy =                       -631.7298584440152354
  Basis Set: (AUG-CC-PVTZ AUX)
    Blend: AUG-CC-PVTZ-RI
    Molecular point group: c1

    Geometry (in Angstrom), charge = 0, multiplicity = 1:

       Center              X                  Y                   Z               Mass
    ------------   -----------------  -----------------  -----------------  -----------------
         O            0.055757509125     1.936533009506    -1.185010494598    15.994914619570
         N            1.255322509125     0.448910009506     0.083537505402    14.003074004430
         C            3.726430509125    -0.964937990494     0.431138505402    12.000000000000
         C            3.593803009125     0.162411709506    -0.578171994598    12.000000000000
         C            2.378383509125    -1.631994990494     0.707734505402    12.000000000000
         C            2.509029509125     1.153738009506    -0.167244494598    12.000000000000
         C            1.336302509125    -0.589975990494     1.104421505402    12.000000000000
         C            0.097554509125     0.914878009506    -0.485891494598    12.000000000000
         C           -1.135996490875     0.088097009506    -0.270733494598    12.000000000000
         C           -2.237566490875     0.641692009506     0.407368505402    12.000000000000
         C           -1.217450490875    -1.185623990494    -0.846688494598    12.000000000000
         C           -3.400590490875    -0.129325990494     0.511824505402    12.000000000000
         C           -2.161754490875     2.022897009506     1.004836505402    12.000000000000
         C           -2.391821490875    -1.932154990494    -0.743660494598    12.000000000000
         C           -3.485633490875    -1.401455990494    -0.059027494598    12.000000000000
         H            4.457924509125    -1.706780990494     0.091039505402     1.007825032230
         H            4.115832509125    -0.543245990494     1.368129505402     1.007825032230
         H            4.532652509125     0.678008009506    -0.741446494598     1.007825032230
         H            3.290591509125    -0.266898990494    -1.569497494598     1.007825032230
         H            2.028024509125    -2.153766990494    -0.191368494598     1.007825032230
         H            2.471574509125    -2.379150990494     1.505366505402     1.007825032230
         H            2.821703509125     1.670829009506     0.753042505402     1.007825032230
         H            2.312017509125     1.908101009506    -0.930164494598     1.007825032230
         H            0.351782509125    -1.038296990494     1.240932505402     1.007825032230
         H            1.628243509125    -0.122477990494     2.058523505402     1.007825032230
         H           -0.358347490875    -1.583999990494    -1.384159494598     1.007825032230
         H           -4.259539490875     0.278936009506     1.041962505402     1.007825032230
         H           -1.980501490875     2.767580009506     0.226056505402     1.007825032230
         H           -3.092031490875     2.268678009506     1.524097505402     1.007825032230
         H           -1.339647490875     2.099705009506     1.724586505402     1.007825032230
         H           -2.452882490875    -2.918123990494    -1.198194494598     1.007825032230
         H           -4.405096490875    -1.975218990494     0.031151505402     1.007825032230

  Basis Set: AUG-CC-PVTZ
    Blend: AUG-CC-PVTZ
  Basis Set: (AUG-CC-PVTZ AUX)
    Blend: AUG-CC-PVTZ-JKFIT
	 Reference Energy          =    -631.7298584440153491 [Eh]
	 Singles Energy            =      -0.0000000000000000 [Eh]
	 Same-Spin Energy          =      -0.6890735888928714 [Eh]
	 Opposite-Spin Energy      =      -2.2123319069482350 [Eh]
	 Correlation Energy        =      -2.9014054958411064 [Eh]
	 Total Energy              =    -634.6312639398564670 [Eh]

	 ================> DF-SCS-MP2 Energies <==================
	-----------------------------------------------------------
	 SCS Same-Spin Scale       =       0.3333333333333333 [-]
	 SCS Opposite-Spin Scale   =       1.2000000000000000 [-]
	 SCS Same-Spin Energy      =      -0.2296911962976238 [Eh]
	 SCS Opposite-Spin Energy  =      -2.6547982883378820 [Eh]
	 SCS Correlation Energy    =      -2.8844894846355058 [Eh]
	 SCS Total Energy          =    -634.6143479286508864 [Eh]
	-----------------------------------------------------------

  Dipole Moment: [D]
     X:     1.4055      Y:    -2.5187      Z:     2.3141     Total:     3.6979

*** Psi4 exiting successfully. Buy a developer a beer!
