                               Psi4 1.4a3.dev225

  ==> Input File <==

--------------------------------------------------------------------------
#psi4
#
memory 32 gb

molecule  {
0 1
  O        0.0109280     1.9504830    -1.2088660
  N        1.2104930     0.4628600     0.0596820
  C        3.6816010    -0.9509880     0.4072830
  C        3.5342200     0.1692850    -0.6230390
  C        2.3776285    -1.5962355     0.6748357
  C        2.4642000     1.1676880    -0.1911000
  C        1.2914730    -0.5760260     1.0805660
  C        0.0527250     0.9288280    -0.5097470
  C       -1.1808260     0.1020470    -0.2945890
  C       -2.2823960     0.6556420     0.3835130
  C       -1.2622800    -1.1716740    -0.8705440
  C       -3.4454200    -0.1153760     0.4879690
  C       -2.2065840     2.0368470     0.9809810
  C       -2.4366510    -1.9182050    -0.7675160
  C       -3.5304630    -1.3875060    -0.0828830
  H        4.4130950    -1.6928310     0.0671840
  H        4.0710030    -0.5292960     1.3442740
  H        4.4878230     0.6919580    -0.7653020
  H        3.2457620    -0.2529490    -1.5933530
  H        1.9831950    -2.1398170    -0.2152240
  H        2.4267450    -2.3652010     1.4815110
  H        2.7768740     1.6847790     0.7291870
  H        2.2671880     1.9220510    -0.9540200
  H        0.3069530    -1.0243470     1.2170770
  H        1.5834140    -0.1085280     2.0346680
  H       -0.4031770    -1.5700500    -1.4080150
  H       -4.3043690     0.2928860     1.0181070
  H       -2.0253310     2.7815300     0.2022010
  H       -3.1368610     2.2826280     1.5002420
  H       -1.3844770     2.1136550     1.7007310
  H       -2.4977120    -2.9041740    -1.2220500
  H       -4.4499260    -1.9612690     0.0072960
units angstrom
no_reorient  #important for SAPT in psi4, default
symmetry c1  #important for SAPT in psi4, default
}

set PROPERTIES_ORIGIN ["COM"]
properties('MP2/aug-cc-pvtz', properties = ['dipole'])
--------------------------------------------------------------------------

    Molecular point group: c1
  Charge       = 0
  Multiplicity = 1
  Basis Set: AUG-CC-PVTZ
    Blend: AUG-CC-PVTZ
  Basis Set: (AUG-CC-PVTZ AUX)
    Blend: AUG-CC-PVTZ-JKFIT

    Orbital Energies [Eh]
    ---------------------

    Doubly Occupied:

       1A    -20.510601     2A    -15.583604     3A    -11.349219
       4A    -11.267999     5A    -11.254906     6A    -11.251908
       7A    -11.246358     8A    -11.245016     9A    -11.242698
      10A    -11.239159    11A    -11.237008    12A    -11.232527
      13A    -11.226661    14A    -11.225923    15A    -11.220358
      16A     -1.366847    17A     -1.249605    18A     -1.161493
      19A     -1.089433    20A     -1.050930    21A     -1.036797
      22A     -1.022054    23A     -0.943544    24A     -0.920253
      25A     -0.868921    26A     -0.843016    27A     -0.814649
      28A     -0.790142    29A     -0.742787    30A     -0.712497
      31A     -0.667095    32A     -0.652669    33A     -0.647810
      34A     -0.628919    35A     -0.618811    36A     -0.615679
      37A     -0.595852    38A     -0.592592    39A     -0.575891
      40A     -0.571813    41A     -0.561183    42A     -0.545937
      43A     -0.542014    44A     -0.524709    45A     -0.507463
      46A     -0.499137    47A     -0.491329    48A     -0.488398
      49A     -0.478825    50A     -0.475059    51A     -0.459766
      52A     -0.416894    53A     -0.364753    54A     -0.340101
      55A     -0.330064

  @DF-RHF Final Energy:  -631.72771325154986

   => Energetics <=

    Nuclear Repulsion Energy =           1000.1830972940855418
    One-Electron Energy =               -2843.5422615999887057
    Two-Electron Energy =                1211.6314510543531924
    Total Energy =                       -631.7277132515498579
  Basis Set: (AUG-CC-PVTZ AUX)
    Blend: AUG-CC-PVTZ-RI
    Molecular point group: c1

    Geometry (in Angstrom), charge = 0, multiplicity = 1:

       Center              X                  Y                   Z               Mass
    ------------   -----------------  -----------------  -----------------  -----------------
         O            0.054025365949     1.935662666783    -1.183235002059    15.994914619570
         N            1.253590365949     0.448039666783     0.085312997941    14.003074004430
         C            3.724698365949    -0.965808333217     0.432913997941    12.000000000000
         C            3.577317365949     0.154464666783    -0.597408002059    12.000000000000
         C            2.420725865949    -1.611055833217     0.700466697941    12.000000000000
         C            2.507297365949     1.152867666783    -0.165469002059    12.000000000000
         C            1.334570365949    -0.590846333217     1.106196997941    12.000000000000
         C            0.095822365949     0.914007666783    -0.484116002059    12.000000000000
         C           -1.137728634051     0.087226666783    -0.268958002059    12.000000000000
         C           -2.239298634051     0.640821666783     0.409143997941    12.000000000000
         C           -1.219182634051    -1.186494333217    -0.844913002059    12.000000000000
         C           -3.402322634051    -0.130196333217     0.513599997941    12.000000000000
         C           -2.163486634051     2.022026666783     1.006611997941    12.000000000000
         C           -2.393553634051    -1.933025333217    -0.741885002059    12.000000000000
         C           -3.487365634051    -1.402326333217    -0.057252002059    12.000000000000
         H            4.456192365949    -1.707651333217     0.092814997941     1.007825032230
         H            4.114100365949    -0.544116333217     1.369904997941     1.007825032230
         H            4.530920365949     0.677137666783    -0.739671002059     1.007825032230
         H            3.288859365949    -0.267769333217    -1.567722002059     1.007825032230
         H            2.026292365949    -2.154637333217    -0.189593002059     1.007825032230
         H            2.469842365949    -2.380021333217     1.507141997941     1.007825032230
         H            2.819971365949     1.669958666783     0.754817997941     1.007825032230
         H            2.310285365949     1.907230666783    -0.928389002059     1.007825032230
         H            0.350050365949    -1.039167333217     1.242707997941     1.007825032230
         H            1.626511365949    -0.123348333217     2.060298997941     1.007825032230
         H           -0.360079634051    -1.584870333217    -1.382384002059     1.007825032230
         H           -4.261271634051     0.278065666783     1.043737997941     1.007825032230
         H           -1.982233634051     2.766709666783     0.227831997941     1.007825032230
         H           -3.093763634051     2.267807666783     1.525872997941     1.007825032230
         H           -1.341379634051     2.098834666783     1.726361997941     1.007825032230
         H           -2.454614634051    -2.918994333217    -1.196419002059     1.007825032230
         H           -4.406828634051    -1.976089333217     0.032926997941     1.007825032230

  Basis Set: AUG-CC-PVTZ
    Blend: AUG-CC-PVTZ
  Basis Set: (AUG-CC-PVTZ AUX)
    Blend: AUG-CC-PVTZ-JKFIT
	 Reference Energy          =    -631.7277132515498579 [Eh]
	 Singles Energy            =      -0.0000000000000000 [Eh]
	 Same-Spin Energy          =      -0.6893549836890676 [Eh]
	 Opposite-Spin Energy      =      -2.2126516826515061 [Eh]
	 Correlation Energy        =      -2.9020066663405739 [Eh]
	 Total Energy              =    -634.6297199178903838 [Eh]

	 ================> DF-SCS-MP2 Energies <==================
	-----------------------------------------------------------
	 SCS Same-Spin Scale       =       0.3333333333333333 [-]
	 SCS Opposite-Spin Scale   =       1.2000000000000000 [-]
	 SCS Same-Spin Energy      =      -0.2297849945630225 [Eh]
	 SCS Opposite-Spin Energy  =      -2.6551820191818072 [Eh]
	 SCS Correlation Energy    =      -2.8849670137448298 [Eh]
	 SCS Total Energy          =    -634.6126802652946708 [Eh]
	-----------------------------------------------------------

  Dipole Moment: [D]
     X:     1.4186      Y:    -2.5058      Z:     2.3001     Total:     3.6854

*** Psi4 exiting successfully. Buy a developer a beer!
