                               Psi4 1.4a3.dev225

  ==> Input File <==

--------------------------------------------------------------------------
#psi4
#
memory 32 gb

molecule  {
0 1
  O        0.0109280     1.9504830    -1.2088660
  N        1.2104930     0.4628600     0.0596820
  C        3.6816010    -0.9509880     0.4072830
  C        3.5342200     0.1692850    -0.6230390
  C        2.3511838    -1.6093212     0.6802617
  C        2.4642000     1.1676880    -0.1911000
  C        1.2914730    -0.5760260     1.0805660
  C        0.0527250     0.9288280    -0.5097470
  C       -1.1808260     0.1020470    -0.2945890
  C       -2.2823960     0.6556420     0.3835130
  C       -1.2622800    -1.1716740    -0.8705440
  C       -3.4454200    -0.1153760     0.4879690
  C       -2.2065840     2.0368470     0.9809810
  C       -2.4366510    -1.9182050    -0.7675160
  C       -3.5304630    -1.3875060    -0.0828830
  H        4.4130950    -1.6928310     0.0671840
  H        4.0710030    -0.5292960     1.3442740
  H        4.4878230     0.6919580    -0.7653020
  H        3.2457620    -0.2529490    -1.5933530
  H        1.9831950    -2.1398170    -0.2152240
  H        2.4267450    -2.3652010     1.4815110
  H        2.7768740     1.6847790     0.7291870
  H        2.2671880     1.9220510    -0.9540200
  H        0.3069530    -1.0243470     1.2170770
  H        1.5834140    -0.1085280     2.0346680
  H       -0.4031770    -1.5700500    -1.4080150
  H       -4.3043690     0.2928860     1.0181070
  H       -2.0253310     2.7815300     0.2022010
  H       -3.1368610     2.2826280     1.5002420
  H       -1.3844770     2.1136550     1.7007310
  H       -2.4977120    -2.9041740    -1.2220500
  H       -4.4499260    -1.9612690     0.0072960
units angstrom
no_reorient  #important for SAPT in psi4, default
symmetry c1  #important for SAPT in psi4, default
}

set PROPERTIES_ORIGIN ["COM"]
properties('MP2/aug-cc-pvtz', properties = ['dipole'])
--------------------------------------------------------------------------

    Molecular point group: c1
  Charge       = 0
  Multiplicity = 1
  Basis Set: AUG-CC-PVTZ
    Blend: AUG-CC-PVTZ
  Basis Set: (AUG-CC-PVTZ AUX)
    Blend: AUG-CC-PVTZ-JKFIT

    Orbital Energies [Eh]
    ---------------------

    Doubly Occupied:

       1A    -20.510712     2A    -15.583779     3A    -11.349363
       4A    -11.267417     5A    -11.254737     6A    -11.251871
       7A    -11.246348     8A    -11.245015     9A    -11.242666
      10A    -11.239147    11A    -11.236989    12A    -11.231317
      13A    -11.227659    14A    -11.225798    15A    -11.220345
      16A     -1.366937    17A     -1.249591    18A     -1.161453
      19A     -1.085793    20A     -1.050852    21A     -1.037055
      22A     -1.022754    23A     -0.943311    24A     -0.919371
      25A     -0.868001    26A     -0.843675    27A     -0.815057
      28A     -0.790695    29A     -0.742717    30A     -0.712410
      31A     -0.666892    32A     -0.652796    33A     -0.648107
      34A     -0.628221    35A     -0.619746    36A     -0.615428
      37A     -0.596139    38A     -0.589762    39A     -0.575750
      40A     -0.571798    41A     -0.560581    42A     -0.546881
      43A     -0.541764    44A     -0.524759    45A     -0.507663
      46A     -0.500766    47A     -0.491415    48A     -0.489043
      49A     -0.477821    50A     -0.472491    51A     -0.461568
      52A     -0.416922    53A     -0.365662    54A     -0.340038
      55A     -0.330025

  @DF-RHF Final Energy:  -631.73012028383255

   => Energetics <=

    Nuclear Repulsion Energy =           1000.0544978180979570
    One-Electron Energy =               -2843.2994802670350509
    Two-Electron Energy =                1211.5148621651046597
    Total Energy =                       -631.7301202838325480
  Basis Set: (AUG-CC-PVTZ AUX)
    Blend: AUG-CC-PVTZ-RI
    Molecular point group: c1

    Geometry (in Angstrom), charge = 0, multiplicity = 1:

       Center              X                  Y                   Z               Mass
    ------------   -----------------  -----------------  -----------------  -----------------
         O            0.055587591202     1.936435706787    -1.183555543953    15.994914619570
         N            1.255152591202     0.448812706787     0.084992456047    14.003074004430
         C            3.726260591202    -0.965035293213     0.432593456047    12.000000000000
         C            3.578879591202     0.155237706787    -0.597728543953    12.000000000000
         C            2.395843391202    -1.623368493213     0.705572156047    12.000000000000
         C            2.508859591202     1.153640706787    -0.165789543953    12.000000000000
         C            1.336132591202    -0.590073293213     1.105876456047    12.000000000000
         C            0.097384591202     0.914780706787    -0.484436543953    12.000000000000
         C           -1.136166408798     0.087999706787    -0.269278543953    12.000000000000
         C           -2.237736408798     0.641594706787     0.408823456047    12.000000000000
         C           -1.217620408798    -1.185721293213    -0.845233543953    12.000000000000
         C           -3.400760408798    -0.129423293213     0.513279456047    12.000000000000
         C           -2.161924408798     2.022799706787     1.006291456047    12.000000000000
         C           -2.391991408798    -1.932252293213    -0.742205543953    12.000000000000
         C           -3.485803408798    -1.401553293213    -0.057572543953    12.000000000000
         H            4.457754591202    -1.706878293213     0.092494456047     1.007825032230
         H            4.115662591202    -0.543343293213     1.369584456047     1.007825032230
         H            4.532482591202     0.677910706787    -0.739991543953     1.007825032230
         H            3.290421591202    -0.266996293213    -1.568042543953     1.007825032230
         H            2.027854591202    -2.153864293213    -0.189913543953     1.007825032230
         H            2.471404591202    -2.379248293213     1.506821456047     1.007825032230
         H            2.821533591202     1.670731706787     0.754497456047     1.007825032230
         H            2.311847591202     1.908003706787    -0.928709543953     1.007825032230
         H            0.351612591202    -1.038394293213     1.242387456047     1.007825032230
         H            1.628073591202    -0.122575293213     2.059978456047     1.007825032230
         H           -0.358517408798    -1.584097293213    -1.382704543953     1.007825032230
         H           -4.259709408798     0.278838706787     1.043417456047     1.007825032230
         H           -1.980671408798     2.767482706787     0.227511456047     1.007825032230
         H           -3.092201408798     2.268580706787     1.525552456047     1.007825032230
         H           -1.339817408798     2.099607706787     1.726041456047     1.007825032230
         H           -2.453052408798    -2.918221293213    -1.196739543953     1.007825032230
         H           -4.405266408798    -1.975316293213     0.032606456047     1.007825032230

  Basis Set: AUG-CC-PVTZ
    Blend: AUG-CC-PVTZ
  Basis Set: (AUG-CC-PVTZ AUX)
    Blend: AUG-CC-PVTZ-JKFIT
	 Reference Energy          =    -631.7301202838325480 [Eh]
	 Singles Energy            =      -0.0000000000000000 [Eh]
	 Same-Spin Energy          =      -0.6891269870953038 [Eh]
	 Opposite-Spin Energy      =      -2.2123739582757653 [Eh]
	 Correlation Energy        =      -2.9015009453710690 [Eh]
	 Total Energy              =    -634.6316212292035743 [Eh]

	 ================> DF-SCS-MP2 Energies <==================
	-----------------------------------------------------------
	 SCS Same-Spin Scale       =       0.3333333333333333 [-]
	 SCS Opposite-Spin Scale   =       1.2000000000000000 [-]
	 SCS Same-Spin Energy      =      -0.2297089956984346 [Eh]
	 SCS Opposite-Spin Energy  =      -2.6548487499309181 [Eh]
	 SCS Correlation Energy    =      -2.8845577456293525 [Eh]
	 SCS Total Energy          =    -634.6146780294618566 [Eh]
	-----------------------------------------------------------

  Dipole Moment: [D]
     X:     1.4099      Y:    -2.5149      Z:     2.3027     Total:     3.6898

*** Psi4 exiting successfully. Buy a developer a beer!
