                               Psi4 1.4a3.dev225

  ==> Input File <==

--------------------------------------------------------------------------
#psi4
#
memory 32 gb

molecule  {
0 1
  O        0.0109280     1.9504830    -1.2088660
  N        1.2552483     0.5391915     0.0230977
  C        3.6816010    -0.9509880     0.4072830
  C        3.5342200     0.1692850    -0.6230390
  C        2.3335540    -1.6180450     0.6838790
  C        2.4642000     1.1676880    -0.1911000
  C        1.2914730    -0.5760260     1.0805660
  C        0.0527250     0.9288280    -0.5097470
  C       -1.1808260     0.1020470    -0.2945890
  C       -2.2823960     0.6556420     0.3835130
  C       -1.2622800    -1.1716740    -0.8705440
  C       -3.4454200    -0.1153760     0.4879690
  C       -2.2065840     2.0368470     0.9809810
  C       -2.4366510    -1.9182050    -0.7675160
  C       -3.5304630    -1.3875060    -0.0828830
  H        4.4130950    -1.6928310     0.0671840
  H        4.0710030    -0.5292960     1.3442740
  H        4.4878230     0.6919580    -0.7653020
  H        3.2457620    -0.2529490    -1.5933530
  H        1.9831950    -2.1398170    -0.2152240
  H        2.4267450    -2.3652010     1.4815110
  H        2.7768740     1.6847790     0.7291870
  H        2.2671880     1.9220510    -0.9540200
  H        0.3069530    -1.0243470     1.2170770
  H        1.5834140    -0.1085280     2.0346680
  H       -0.4031770    -1.5700500    -1.4080150
  H       -4.3043690     0.2928860     1.0181070
  H       -2.0253310     2.7815300     0.2022010
  H       -3.1368610     2.2826280     1.5002420
  H       -1.3844770     2.1136550     1.7007310
  H       -2.4977120    -2.9041740    -1.2220500
  H       -4.4499260    -1.9612690     0.0072960
units angstrom
no_reorient  #important for SAPT in psi4, default
symmetry c1  #important for SAPT in psi4, default
}

set PROPERTIES_ORIGIN ["COM"]
properties('MP2/aug-cc-pvtz', properties = ['dipole'])
--------------------------------------------------------------------------

    Molecular point group: c1
  Charge       = 0
  Multiplicity = 1
  Basis Set: AUG-CC-PVTZ
    Blend: AUG-CC-PVTZ
  Basis Set: (AUG-CC-PVTZ AUX)
    Blend: AUG-CC-PVTZ-JKFIT

    Orbital Energies [Eh]
    ---------------------

    Doubly Occupied:

       1A    -20.506489     2A    -15.581574     3A    -11.348274
       4A    -11.271580     5A    -11.253951     6A    -11.249446
       7A    -11.247692     8A    -11.247228     9A    -11.244333
      10A    -11.240607    11A    -11.238457    12A    -11.231978
      13A    -11.227907    14A    -11.223545    15A    -11.221064
      16A     -1.367605    17A     -1.248241    18A     -1.163432
      19A     -1.082309    20A     -1.052845    21A     -1.041654
      22A     -1.020661    23A     -0.943732    24A     -0.918737
      25A     -0.870620    26A     -0.842819    27A     -0.815146
      28A     -0.792961    29A     -0.740662    30A     -0.714753
      31A     -0.667723    32A     -0.653162    33A     -0.644932
      34A     -0.633443    35A     -0.620094    36A     -0.616277
      37A     -0.597604    38A     -0.590025    39A     -0.576976
      40A     -0.573454    41A     -0.555888    42A     -0.546705
      43A     -0.540548    44A     -0.525462    45A     -0.508085
      46A     -0.501535    47A     -0.493370    48A     -0.490011
      49A     -0.478146    50A     -0.471690    51A     -0.454146
      52A     -0.417571    53A     -0.361241    54A     -0.341479
      55A     -0.331588

  @DF-RHF Final Energy:  -631.72082861665240

   => Energetics <=

    Nuclear Repulsion Energy =            999.6096696257420717
    One-Electron Energy =               -2842.3780758901266381
    Two-Electron Energy =                1211.0475776477321688
    Total Energy =                       -631.7208286166523976
  Basis Set: (AUG-CC-PVTZ AUX)
    Blend: AUG-CC-PVTZ-RI
    Molecular point group: c1

    Geometry (in Angstrom), charge = 0, multiplicity = 1:

       Center              X                  Y                   Z               Mass
    ------------   -----------------  -----------------  -----------------  -----------------
         O            0.053543815761     1.931689065575    -1.181247255078    15.994914619570
         N            1.297864115761     0.520397565575     0.050716444922    14.003074004430
         C            3.724216815761    -0.969781934425     0.434901744922    12.000000000000
         C            3.576835815761     0.150491065575    -0.595420255078    12.000000000000
         C            2.376169815761    -1.636838934425     0.711497744922    12.000000000000
         C            2.506815815761     1.148894065575    -0.163481255078    12.000000000000
         C            1.334088815761    -0.594819934425     1.108184744922    12.000000000000
         C            0.095340815761     0.910034065575    -0.482128255078    12.000000000000
         C           -1.138210184239     0.083253065575    -0.266970255078    12.000000000000
         C           -2.239780184239     0.636848065575     0.411131744922    12.000000000000
         C           -1.219664184239    -1.190467934425    -0.842925255078    12.000000000000
         C           -3.402804184239    -0.134169934425     0.515587744922    12.000000000000
         C           -2.163968184239     2.018053065575     1.008599744922    12.000000000000
         C           -2.394035184239    -1.936998934425    -0.739897255078    12.000000000000
         C           -3.487847184239    -1.406299934425    -0.055264255078    12.000000000000
         H            4.455710815761    -1.711624934425     0.094802744922     1.007825032230
         H            4.113618815761    -0.548089934425     1.371892744922     1.007825032230
         H            4.530438815761     0.673164065575    -0.737683255078     1.007825032230
         H            3.288377815761    -0.271742934425    -1.565734255078     1.007825032230
         H            2.025810815761    -2.158610934425    -0.187605255078     1.007825032230
         H            2.469360815761    -2.383994934425     1.509129744922     1.007825032230
         H            2.819489815761     1.665985065575     0.756805744922     1.007825032230
         H            2.309803815761     1.903257065575    -0.926401255078     1.007825032230
         H            0.349568815761    -1.043140934425     1.244695744922     1.007825032230
         H            1.626029815761    -0.127321934425     2.062286744922     1.007825032230
         H           -0.360561184239    -1.588843934425    -1.380396255078     1.007825032230
         H           -4.261753184239     0.274092065575     1.045725744922     1.007825032230
         H           -1.982715184239     2.762736065575     0.229819744922     1.007825032230
         H           -3.094245184239     2.263834065575     1.527860744922     1.007825032230
         H           -1.341861184239     2.094861065575     1.728349744922     1.007825032230
         H           -2.455096184239    -2.922967934425    -1.194431255078     1.007825032230
         H           -4.407310184239    -1.980062934425     0.034914744922     1.007825032230

  Basis Set: AUG-CC-PVTZ
    Blend: AUG-CC-PVTZ
  Basis Set: (AUG-CC-PVTZ AUX)
    Blend: AUG-CC-PVTZ-JKFIT
	 Reference Energy          =    -631.7208286166523976 [Eh]
	 Singles Energy            =      -0.0000000000000000 [Eh]
	 Same-Spin Energy          =      -0.6892099223618573 [Eh]
	 Opposite-Spin Energy      =      -2.2126513331824125 [Eh]
	 Correlation Energy        =      -2.9018612555442695 [Eh]
	 Total Energy              =    -634.6226898721967018 [Eh]

	 ================> DF-SCS-MP2 Energies <==================
	-----------------------------------------------------------
	 SCS Same-Spin Scale       =       0.3333333333333333 [-]
	 SCS Opposite-Spin Scale   =       1.2000000000000000 [-]
	 SCS Same-Spin Energy      =      -0.2297366407872858 [Eh]
	 SCS Opposite-Spin Energy  =      -2.6551815998188948 [Eh]
	 SCS Correlation Energy    =      -2.8849182406061806 [Eh]
	 SCS Total Energy          =    -634.6057468572586231 [Eh]
	-----------------------------------------------------------

  Dipole Moment: [D]
     X:     1.2173      Y:    -2.7014      Z:     2.3820     Total:     3.8017

*** Psi4 exiting successfully. Buy a developer a beer!
