                               Psi4 1.4a3.dev225

  ==> Input File <==

--------------------------------------------------------------------------
#psi4
#
memory 32 gb

molecule  {
0 1
  O        0.0109280     1.9504830    -1.2088660
  N        1.2104930     0.4628600     0.0596820
  C        3.6816010    -0.9509880     0.4072830
  C        3.5342200     0.1692850    -0.6230390
  C        2.3335540    -1.6180450     0.6838790
  C        2.4642000     1.1676880    -0.1911000
  C        1.2914730    -0.5760260     1.0805660
  C        0.0527250     0.9288280    -0.5097470
  C       -1.1808260     0.1020470    -0.2945890
  C       -2.1846969     0.6699494     0.3472976
  C       -1.2622800    -1.1716740    -0.8705440
  C       -3.4454200    -0.1153760     0.4879690
  C       -2.2065840     2.0368470     0.9809810
  C       -2.4366510    -1.9182050    -0.7675160
  C       -3.5304630    -1.3875060    -0.0828830
  H        4.4130950    -1.6928310     0.0671840
  H        4.0710030    -0.5292960     1.3442740
  H        4.4878230     0.6919580    -0.7653020
  H        3.2457620    -0.2529490    -1.5933530
  H        1.9831950    -2.1398170    -0.2152240
  H        2.4267450    -2.3652010     1.4815110
  H        2.7768740     1.6847790     0.7291870
  H        2.2671880     1.9220510    -0.9540200
  H        0.3069530    -1.0243470     1.2170770
  H        1.5834140    -0.1085280     2.0346680
  H       -0.4031770    -1.5700500    -1.4080150
  H       -4.3043690     0.2928860     1.0181070
  H       -2.0253310     2.7815300     0.2022010
  H       -3.1368610     2.2826280     1.5002420
  H       -1.3844770     2.1136550     1.7007310
  H       -2.4977120    -2.9041740    -1.2220500
  H       -4.4499260    -1.9612690     0.0072960
units angstrom
no_reorient  #important for SAPT in psi4, default
symmetry c1  #important for SAPT in psi4, default
}

set PROPERTIES_ORIGIN ["COM"]
properties('MP2/aug-cc-pvtz', properties = ['dipole'])
--------------------------------------------------------------------------

    Molecular point group: c1
  Charge       = 0
  Multiplicity = 1
  Basis Set: AUG-CC-PVTZ
    Blend: AUG-CC-PVTZ
  Basis Set: (AUG-CC-PVTZ AUX)
    Blend: AUG-CC-PVTZ-JKFIT

    Orbital Energies [Eh]
    ---------------------

    Doubly Occupied:

       1A    -20.510494     2A    -15.583287     3A    -11.347582
       4A    -11.267428     5A    -11.254282     6A    -11.251027
       7A    -11.246066     8A    -11.245669     9A    -11.241468
      10A    -11.239484    11A    -11.235412    12A    -11.230611
      13A    -11.228246    14A    -11.225507    15A    -11.221153
      16A     -1.366945    17A     -1.249304    18A     -1.163913
      19A     -1.083415    20A     -1.056370    21A     -1.033940
      22A     -1.020756    23A     -0.942630    24A     -0.919484
      25A     -0.866192    26A     -0.843766    27A     -0.822536
      28A     -0.786979    29A     -0.741337    30A     -0.712351
      31A     -0.666538    32A     -0.652923    33A     -0.647375
      34A     -0.627783    35A     -0.621510    36A     -0.615437
      37A     -0.598692    38A     -0.588630    39A     -0.573133
      40A     -0.570301    41A     -0.562014    42A     -0.548806
      43A     -0.542002    44A     -0.526560    45A     -0.507597
      46A     -0.499670    47A     -0.493081    48A     -0.486331
      49A     -0.478341    50A     -0.469473    51A     -0.461331
      52A     -0.413397    53A     -0.366033    54A     -0.346929
      55A     -0.324925

  @DF-RHF Final Energy:  -631.71795233638602

   => Energetics <=

    Nuclear Repulsion Energy =           1001.1487394963528459
    One-Electron Energy =               -2845.4804989407080029
    Two-Electron Energy =                1212.6138071079690235
    Total Energy =                       -631.7179523363861335
  Basis Set: (AUG-CC-PVTZ AUX)
    Blend: AUG-CC-PVTZ-RI
    Molecular point group: c1

    Geometry (in Angstrom), charge = 0, multiplicity = 1:

       Center              X                  Y                   Z               Mass
    ------------   -----------------  -----------------  -----------------  -----------------
         O            0.050857483375     1.936105854646    -1.181629805525    15.994914619570
         N            1.250422483375     0.448482854646     0.086918194475    14.003074004430
         C            3.721530483375    -0.965365145354     0.434519194475    12.000000000000
         C            3.574149483375     0.154907854646    -0.595802805525    12.000000000000
         C            2.373483483375    -1.632422145354     0.711115194475    12.000000000000
         C            2.504129483375     1.153310854646    -0.163863805525    12.000000000000
         C            1.331402483375    -0.590403145354     1.107802194475    12.000000000000
         C            0.092654483375     0.914450854646    -0.482510805525    12.000000000000
         C           -1.140896516625     0.087669854646    -0.267352805525    12.000000000000
         C           -2.144767416625     0.655572254646     0.374533794475    12.000000000000
         C           -1.222350516625    -1.186051145354    -0.843307805525    12.000000000000
         C           -3.405490516625    -0.129753145354     0.515205194475    12.000000000000
         C           -2.166654516625     2.022469854646     1.008217194475    12.000000000000
         C           -2.396721516625    -1.932582145354    -0.740279805525    12.000000000000
         C           -3.490533516625    -1.401883145354    -0.055646805525    12.000000000000
         H            4.453024483375    -1.707208145354     0.094420194475     1.007825032230
         H            4.110932483375    -0.543673145354     1.371510194475     1.007825032230
         H            4.527752483375     0.677580854646    -0.738065805525     1.007825032230
         H            3.285691483375    -0.267326145354    -1.566116805525     1.007825032230
         H            2.023124483375    -2.154194145354    -0.187987805525     1.007825032230
         H            2.466674483375    -2.379578145354     1.508747194475     1.007825032230
         H            2.816803483375     1.670401854646     0.756423194475     1.007825032230
         H            2.307117483375     1.907673854646    -0.926783805525     1.007825032230
         H            0.346882483375    -1.038724145354     1.244313194475     1.007825032230
         H            1.623343483375    -0.122905145354     2.061904194475     1.007825032230
         H           -0.363247516625    -1.584427145354    -1.380778805525     1.007825032230
         H           -4.264439516625     0.278508854646     1.045343194475     1.007825032230
         H           -1.985401516625     2.767152854646     0.229437194475     1.007825032230
         H           -3.096931516625     2.268250854646     1.527478194475     1.007825032230
         H           -1.344547516625     2.099277854646     1.727967194475     1.007825032230
         H           -2.457782516625    -2.918551145354    -1.194813805525     1.007825032230
         H           -4.409996516625    -1.975646145354     0.034532194475     1.007825032230

  Basis Set: AUG-CC-PVTZ
    Blend: AUG-CC-PVTZ
  Basis Set: (AUG-CC-PVTZ AUX)
    Blend: AUG-CC-PVTZ-JKFIT
	 Reference Energy          =    -631.7179523363860199 [Eh]
	 Singles Energy            =      -0.0000000000000000 [Eh]
	 Same-Spin Energy          =      -0.6886220243774254 [Eh]
	 Opposite-Spin Energy      =      -2.2125914593070459 [Eh]
	 Correlation Energy        =      -2.9012134836844714 [Eh]
	 Total Energy              =    -634.6191658200705206 [Eh]

	 ================> DF-SCS-MP2 Energies <==================
	-----------------------------------------------------------
	 SCS Same-Spin Scale       =       0.3333333333333333 [-]
	 SCS Opposite-Spin Scale   =       1.2000000000000000 [-]
	 SCS Same-Spin Energy      =      -0.2295406747924751 [Eh]
	 SCS Opposite-Spin Energy  =      -2.6551097511684549 [Eh]
	 SCS Correlation Energy    =      -2.8846504259609302 [Eh]
	 SCS Total Energy          =    -634.6026027623469190 [Eh]
	-----------------------------------------------------------

  Dipole Moment: [D]
     X:     1.3606      Y:    -2.5086      Z:     2.3219     Total:     3.6791

*** Psi4 exiting successfully. Buy a developer a beer!
