                               Psi4 1.4a3.dev225

  ==> Input File <==

--------------------------------------------------------------------------
#psi4
#
memory 32 gb

molecule  {
0 1
  O        0.0109280     1.9504830    -1.2088660
  N        1.2104930     0.4628600     0.0596820
  C        3.6816010    -0.9509880     0.4072830
  C        3.5342200     0.1692850    -0.6230390
  C        2.3335540    -1.6180450     0.6838790
  C        2.4642000     1.1676880    -0.1911000
  C        1.2914730    -0.5760260     1.0805660
  C        0.0527250     0.9288280    -0.5097470
  C       -1.1808260     0.1020470    -0.2945890
  C       -2.2823960     0.6556420     0.3835130
  C       -1.2622800    -1.1716740    -0.8705440
  C       -3.4454200    -0.1153760     0.4879690
  C       -2.2065840     2.0368470     0.9809810
  C       -2.4366510    -1.9182050    -0.7675160
  C       -3.5426387    -1.5696380    -0.1646124
  H        4.4130950    -1.6928310     0.0671840
  H        4.0710030    -0.5292960     1.3442740
  H        4.4878230     0.6919580    -0.7653020
  H        3.2457620    -0.2529490    -1.5933530
  H        1.9831950    -2.1398170    -0.2152240
  H        2.4267450    -2.3652010     1.4815110
  H        2.7768740     1.6847790     0.7291870
  H        2.2671880     1.9220510    -0.9540200
  H        0.3069530    -1.0243470     1.2170770
  H        1.5834140    -0.1085280     2.0346680
  H       -0.4031770    -1.5700500    -1.4080150
  H       -4.3043690     0.2928860     1.0181070
  H       -2.0253310     2.7815300     0.2022010
  H       -3.1368610     2.2826280     1.5002420
  H       -1.3844770     2.1136550     1.7007310
  H       -2.4977120    -2.9041740    -1.2220500
  H       -4.4499260    -1.9612690     0.0072960
units angstrom
no_reorient  #important for SAPT in psi4, default
symmetry c1  #important for SAPT in psi4, default
}

set PROPERTIES_ORIGIN ["COM"]
properties('MP2/aug-cc-pvtz', properties = ['dipole'])
--------------------------------------------------------------------------

    Molecular point group: c1
  Charge       = 0
  Multiplicity = 1
  Basis Set: AUG-CC-PVTZ
    Blend: AUG-CC-PVTZ
  Basis Set: (AUG-CC-PVTZ AUX)
    Blend: AUG-CC-PVTZ-JKFIT

    Orbital Energies [Eh]
    ---------------------

    Doubly Occupied:

       1A    -20.512059     2A    -15.584949     3A    -11.350988
       4A    -11.267310     5A    -11.255227     6A    -11.251192
       7A    -11.250799     8A    -11.248869     9A    -11.247011
      10A    -11.244063    11A    -11.232510    12A    -11.230981
      13A    -11.228655    14A    -11.226113    15A    -11.219406
      16A     -1.368258    17A     -1.250450    18A     -1.156266
      19A     -1.084081    20A     -1.061823    21A     -1.034196
      22A     -1.015229    23A     -0.933881    24A     -0.922920
      25A     -0.871850    26A     -0.852311    27A     -0.811483
      28A     -0.790659    29A     -0.743588    30A     -0.710800
      31A     -0.684397    32A     -0.657276    33A     -0.645565
      34A     -0.628487    35A     -0.618663    36A     -0.613989
      37A     -0.594686    38A     -0.588582    39A     -0.575232
      40A     -0.570005    41A     -0.562890    42A     -0.553393
      43A     -0.542095    44A     -0.525822    45A     -0.513403
      46A     -0.501252    47A     -0.488945    48A     -0.480393
      49A     -0.470229    50A     -0.462191    51A     -0.458258
      52A     -0.417400    53A     -0.366952    54A     -0.348264
      55A     -0.320831

  @DF-RHF Final Energy:  -631.68903761350521

   => Energetics <=

    Nuclear Repulsion Energy =            997.8549110586695861
    One-Electron Energy =               -2838.7936426070523339
    Two-Electron Energy =                1209.2496939348775413
    Total Energy =                       -631.6890376135052065
  Basis Set: (AUG-CC-PVTZ AUX)
    Blend: AUG-CC-PVTZ-RI
    Molecular point group: c1

    Geometry (in Angstrom), charge = 0, multiplicity = 1:

       Center              X                  Y                   Z               Mass
    ------------   -----------------  -----------------  -----------------  -----------------
         O            0.057348356299     1.947710546375    -1.178941058057    15.994914619570
         N            1.256913356299     0.460087546375     0.089606941943    14.003074004430
         C            3.728021356299    -0.953760453625     0.437207941943    12.000000000000
         C            3.580640356299     0.166512546375    -0.593114058057    12.000000000000
         C            2.379974356299    -1.620817453625     0.713803941943    12.000000000000
         C            2.510620356299     1.164915546375    -0.161175058057    12.000000000000
         C            1.337893356299    -0.578798453625     1.110490941943    12.000000000000
         C            0.099145356299     0.926055546375    -0.479822058057    12.000000000000
         C           -1.134405643701     0.099274546375    -0.264664058057    12.000000000000
         C           -2.235975643701     0.652869546375     0.413437941943    12.000000000000
         C           -1.215859643701    -1.174446453625    -0.840619058057    12.000000000000
         C           -3.398999643701    -0.118148453625     0.517893941943    12.000000000000
         C           -2.160163643701     2.034074546375     1.010905941943    12.000000000000
         C           -2.390230643701    -1.920977453625    -0.737591058057    12.000000000000
         C           -3.496218343701    -1.572410453625    -0.134687458057    12.000000000000
         H            4.459515356299    -1.695603453625     0.097108941943     1.007825032230
         H            4.117423356299    -0.532068453625     1.374198941943     1.007825032230
         H            4.534243356300     0.689185546375    -0.735377058057     1.007825032230
         H            3.292182356299    -0.255721453625    -1.563428058057     1.007825032230
         H            2.029615356299    -2.142589453625    -0.185299058057     1.007825032230
         H            2.473165356299    -2.367973453625     1.511435941943     1.007825032230
         H            2.823294356299     1.682006546375     0.759111941943     1.007825032230
         H            2.313608356300     1.919278546375    -0.924095058057     1.007825032230
         H            0.353373356299    -1.027119453625     1.247001941943     1.007825032230
         H            1.629834356299    -0.111300453625     2.064592941943     1.007825032230
         H           -0.356756643701    -1.572822453625    -1.378090058057     1.007825032230
         H           -4.257948643701     0.290113546375     1.048031941943     1.007825032230
         H           -1.978910643701     2.778757546375     0.232125941943     1.007825032230
         H           -3.090440643701     2.279855546375     1.530166941943     1.007825032230
         H           -1.338056643701     2.110882546375     1.730655941943     1.007825032230
         H           -2.451291643701    -2.906946453625    -1.192125058057     1.007825032230
         H           -4.403505643700    -1.964041453625     0.037220941943     1.007825032230

  Basis Set: AUG-CC-PVTZ
    Blend: AUG-CC-PVTZ
  Basis Set: (AUG-CC-PVTZ AUX)
    Blend: AUG-CC-PVTZ-JKFIT
	 Reference Energy          =    -631.6890376135052065 [Eh]
	 Singles Energy            =      -0.0000000000000000 [Eh]
	 Same-Spin Energy          =      -0.6886180178625840 [Eh]
	 Opposite-Spin Energy      =      -2.2149808257545223 [Eh]
	 Correlation Energy        =      -2.9035988436171065 [Eh]
	 Total Energy              =    -634.5926364571223530 [Eh]

	 ================> DF-SCS-MP2 Energies <==================
	-----------------------------------------------------------
	 SCS Same-Spin Scale       =       0.3333333333333333 [-]
	 SCS Opposite-Spin Scale   =       1.2000000000000000 [-]
	 SCS Same-Spin Energy      =      -0.2295393392875280 [Eh]
	 SCS Opposite-Spin Energy  =      -2.6579769909054267 [Eh]
	 SCS Correlation Energy    =      -2.8875163301929545 [Eh]
	 SCS Total Energy          =    -634.5765539436981726 [Eh]
	-----------------------------------------------------------

  Dipole Moment: [D]
     X:     1.4113      Y:    -2.5162      Z:     2.3110     Total:     3.6964

*** Psi4 exiting successfully. Buy a developer a beer!
