                               Psi4 1.4a3.dev225

  ==> Input File <==

--------------------------------------------------------------------------
#psi4
#
memory 32 gb

molecule  {
0 1
  O        0.0109280     1.9504830    -1.2088660
  N        1.2104930     0.4628600     0.0596820
  C        3.6816010    -0.9509880     0.4072830
  C        3.5342200     0.1692850    -0.6230390
  C        2.3335540    -1.6180450     0.6838790
  C        2.4642000     1.1676880    -0.1911000
  C        1.2914730    -0.5760260     1.0805660
  C        0.0527250     0.9288280    -0.5097470
  C       -1.1808260     0.1020470    -0.2945890
  C       -2.2823960     0.6556420     0.3835130
  C       -1.2622800    -1.1716740    -0.8705440
  C       -3.4454200    -0.1153760     0.4879690
  C       -2.2065840     2.0368470     0.9809810
  C       -2.4366510    -1.9182050    -0.7675160
  C       -3.5304630    -1.3875060    -0.0828830
  H        4.4130950    -1.6928310     0.0671840
  H        4.0710030    -0.5292960     1.3442740
  H        4.4878230     0.6919580    -0.7653020
  H        3.2457620    -0.2529490    -1.5933530
  H        1.9831950    -2.1398170    -0.2152240
  H        2.4267450    -2.3652010     1.4815110
  H        2.7768740     1.6847790     0.7291870
  H        2.2671880     1.9220510    -0.9540200
  H        0.3069530    -1.0243470     1.2170770
  H        1.5834140    -0.1085280     2.0346680
  H       -0.4031770    -1.5700500    -1.4080150
  H       -4.3043690     0.2928860     1.0181070
  H       -1.9307067     2.8099610     0.2598082
  H       -3.1368610     2.2826280     1.5002420
  H       -1.3844770     2.1136550     1.7007310
  H       -2.4977120    -2.9041740    -1.2220500
  H       -4.4499260    -1.9612690     0.0072960
units angstrom
no_reorient  #important for SAPT in psi4, default
symmetry c1  #important for SAPT in psi4, default
}

set PROPERTIES_ORIGIN ["COM"]
properties('MP2/aug-cc-pvtz', properties = ['dipole'])
--------------------------------------------------------------------------

    Molecular point group: c1
  Charge       = 0
  Multiplicity = 1
  Basis Set: AUG-CC-PVTZ
    Blend: AUG-CC-PVTZ
  Basis Set: (AUG-CC-PVTZ AUX)
    Blend: AUG-CC-PVTZ-JKFIT

    Orbital Energies [Eh]
    ---------------------

    Doubly Occupied:

       1A    -20.511064     2A    -15.584146     3A    -11.349744
       4A    -11.267164     5A    -11.254825     6A    -11.252582
       7A    -11.246488     8A    -11.245196     9A    -11.242853
      10A    -11.239291    11A    -11.237356    12A    -11.230724
      13A    -11.228421    14A    -11.225814    15A    -11.220144
      16A     -1.367334    17A     -1.249812    18A     -1.161554
      19A     -1.083744    20A     -1.050665    21A     -1.037427
      22A     -1.023342    23A     -0.943393    24A     -0.919119
      25A     -0.867635    26A     -0.844368    27A     -0.815639
      28A     -0.791450    29A     -0.742974    30A     -0.712722
      31A     -0.667401    32A     -0.653263    33A     -0.648992
      34A     -0.628084    35A     -0.620606    36A     -0.615800
      37A     -0.596367    38A     -0.587867    39A     -0.577540
      40A     -0.563671    41A     -0.560319    42A     -0.547278
      43A     -0.545164    44A     -0.525228    45A     -0.509587
      46A     -0.502213    47A     -0.490899    48A     -0.489101
      49A     -0.478738    50A     -0.469746    51A     -0.461670
      52A     -0.417328    53A     -0.366430    54A     -0.340160
      55A     -0.329610

  @DF-RHF Final Energy:  -631.72937515363128

   => Energetics <=

    Nuclear Repulsion Energy =            999.9925846310048883
    One-Electron Energy =               -2843.1638205790172833
    Two-Electron Energy =                1211.4418607943812276
    Total Energy =                       -631.7293751536312811
  Basis Set: (AUG-CC-PVTZ AUX)
    Blend: AUG-CC-PVTZ-RI
    Molecular point group: c1

    Geometry (in Angstrom), charge = 0, multiplicity = 1:

       Center              X                  Y                   Z               Mass
    ------------   -----------------  -----------------  -----------------  -----------------
         O            0.056159600662     1.936810007712    -1.184055052010    15.994914619570
         N            1.255724600662     0.449187007712     0.084492947990    14.003074004430
         C            3.726832600662    -0.964660992288     0.432093947990    12.000000000000
         C            3.579451600662     0.155612007712    -0.598228052010    12.000000000000
         C            2.378785600662    -1.631717992288     0.708689947990    12.000000000000
         C            2.509431600662     1.154015007712    -0.166289052010    12.000000000000
         C            1.336704600662    -0.589698992288     1.105376947990    12.000000000000
         C            0.097956600662     0.915155007712    -0.484936052010    12.000000000000
         C           -1.135594399338     0.088374007712    -0.269778052010    12.000000000000
         C           -2.237164399338     0.641969007712     0.408323947990    12.000000000000
         C           -1.217048399338    -1.185346992288    -0.845733052010    12.000000000000
         C           -3.400188399338    -0.129048992288     0.512779947990    12.000000000000
         C           -2.161352399338     2.023174007712     1.005791947990    12.000000000000
         C           -2.391419399338    -1.931877992288    -0.742705052010    12.000000000000
         C           -3.485231399338    -1.401178992288    -0.058072052010    12.000000000000
         H            4.458326600662    -1.706503992288     0.091994947990     1.007825032230
         H            4.116234600662    -0.542968992288     1.369084947990     1.007825032230
         H            4.533054600662     0.678285007712    -0.740491052010     1.007825032230
         H            3.290993600662    -0.266621992288    -1.568542052010     1.007825032230
         H            2.028426600662    -2.153489992288    -0.190413052010     1.007825032230
         H            2.471976600662    -2.378873992288     1.506321947990     1.007825032230
         H            2.822105600662     1.671106007712     0.753997947990     1.007825032230
         H            2.312419600662     1.908378007712    -0.929209052010     1.007825032230
         H            0.352184600662    -1.038019992288     1.241887947990     1.007825032230
         H            1.628645600662    -0.122200992288     2.059478947990     1.007825032230
         H           -0.357945399338    -1.583722992288    -1.383204052010     1.007825032230
         H           -4.259137399338     0.279213007712     1.042917947990     1.007825032230
         H           -1.885475099338     2.796288007712     0.284619147990     1.007825032230
         H           -3.091629399338     2.268955007712     1.525052947990     1.007825032230
         H           -1.339245399338     2.099982007712     1.725541947990     1.007825032230
         H           -2.452480399338    -2.917846992288    -1.197239052010     1.007825032230
         H           -4.404694399338    -1.974941992288     0.032106947990     1.007825032230

  Basis Set: AUG-CC-PVTZ
    Blend: AUG-CC-PVTZ
  Basis Set: (AUG-CC-PVTZ AUX)
    Blend: AUG-CC-PVTZ-JKFIT
	 Reference Energy          =    -631.7293751536312811 [Eh]
	 Singles Energy            =      -0.0000000000000000 [Eh]
	 Same-Spin Energy          =      -0.6891171465594946 [Eh]
	 Opposite-Spin Energy      =      -2.2123080703392448 [Eh]
	 Correlation Energy        =      -2.9014252168987396 [Eh]
	 Total Energy              =    -634.6308003705299825 [Eh]

	 ================> DF-SCS-MP2 Energies <==================
	-----------------------------------------------------------
	 SCS Same-Spin Scale       =       0.3333333333333333 [-]
	 SCS Opposite-Spin Scale   =       1.2000000000000000 [-]
	 SCS Same-Spin Energy      =      -0.2297057155198315 [Eh]
	 SCS Opposite-Spin Energy  =      -2.6547696844070936 [Eh]
	 SCS Correlation Energy    =      -2.8844753999269250 [Eh]
	 SCS Total Energy          =    -634.6138505535582226 [Eh]
	-----------------------------------------------------------

  Dipole Moment: [D]
     X:     1.4498      Y:    -2.5216      Z:     2.3135     Total:     3.7166

*** Psi4 exiting successfully. Buy a developer a beer!
