                               Psi4 1.4a3.dev225

  ==> Input File <==

--------------------------------------------------------------------------
#psi4
#
memory 32 gb

molecule  {
0 1
  O        0.0109280     1.9504830    -1.2088660
  N        1.2104930     0.4628600     0.0596820
  C        3.6816010    -0.9509880     0.4072830
  C        3.5342200     0.1692850    -0.6230390
  C        2.3335540    -1.6180450     0.6838790
  C        2.4642000     1.1676880    -0.1911000
  C        1.2914730    -0.5760260     1.0805660
  C        0.0527250     0.9288280    -0.5097470
  C       -1.1808260     0.1020470    -0.2945890
  C       -2.2823960     0.6556420     0.3835130
  C       -1.2622800    -1.1716740    -0.8705440
  C       -3.4454200    -0.1153760     0.4879690
  C       -2.2065840     2.0368470     0.9809810
  C       -2.4366510    -1.9182050    -0.7675160
  C       -3.5304630    -1.3875060    -0.0828830
  H        4.4130950    -1.6928310     0.0671840
  H        4.0710030    -0.5292960     1.3442740
  H        4.4878230     0.6919580    -0.7653020
  H        3.2457620    -0.2529490    -1.5933530
  H        1.9834607    -2.1232158    -0.2247578
  H        2.4267450    -2.3652010     1.4815110
  H        2.7768740     1.6847790     0.7291870
  H        2.2671880     1.9220510    -0.9540200
  H        0.3069530    -1.0243470     1.2170770
  H        1.5834140    -0.1085280     2.0346680
  H       -0.4031770    -1.5700500    -1.4080150
  H       -4.3043690     0.2928860     1.0181070
  H       -2.0253310     2.7815300     0.2022010
  H       -3.1368610     2.2826280     1.5002420
  H       -1.3844770     2.1136550     1.7007310
  H       -2.4977120    -2.9041740    -1.2220500
  H       -4.4499260    -1.9612690     0.0072960
units angstrom
no_reorient  #important for SAPT in psi4, default
symmetry c1  #important for SAPT in psi4, default
}

set PROPERTIES_ORIGIN ["COM"]
properties('MP2/aug-cc-pvtz', properties = ['dipole'])
--------------------------------------------------------------------------

    Molecular point group: c1
  Charge       = 0
  Multiplicity = 1
  Basis Set: AUG-CC-PVTZ
    Blend: AUG-CC-PVTZ
  Basis Set: (AUG-CC-PVTZ AUX)
    Blend: AUG-CC-PVTZ-JKFIT

    Orbital Energies [Eh]
    ---------------------

    Doubly Occupied:

       1A    -20.510817     2A    -15.583938     3A    -11.349489
       4A    -11.266972     5A    -11.254650     6A    -11.251856
       7A    -11.246359     8A    -11.245031     9A    -11.242653
      10A    -11.239147    11A    -11.236985    12A    -11.230685
      13A    -11.228220    14A    -11.225709    15A    -11.220343
      16A     -1.367028    17A     -1.249634    18A     -1.161440
      19A     -1.083705    20A     -1.050810    21A     -1.037331
      22A     -1.023197    23A     -0.943175    24A     -0.918817
      25A     -0.867344    26A     -0.844036    27A     -0.815267
      28A     -0.790928    29A     -0.742823    30A     -0.712435
      31A     -0.666769    32A     -0.652943    33A     -0.648217
      34A     -0.627917    35A     -0.620634    36A     -0.615120
      37A     -0.596607    38A     -0.588129    39A     -0.575651
      40A     -0.571874    41A     -0.560201    42A     -0.547611
      43A     -0.541630    44A     -0.524802    45A     -0.508017
      46A     -0.501997    47A     -0.491559    48A     -0.489308
      49A     -0.478515    50A     -0.469593    51A     -0.461550
      52A     -0.416958    53A     -0.366247    54A     -0.340006
      55A     -0.330006

  @DF-RHF Final Energy:  -631.73062093871374

   => Energetics <=

    Nuclear Repulsion Energy =           1000.0139507046319522
    One-Electron Energy =               -2843.2237737304753864
    Two-Electron Energy =                1211.4792020871295790
    Total Energy =                       -631.7306209387138551
  Basis Set: (AUG-CC-PVTZ AUX)
    Blend: AUG-CC-PVTZ-RI
    Molecular point group: c1

    Geometry (in Angstrom), charge = 0, multiplicity = 1:

       Center              X                  Y                   Z               Mass
    ------------   -----------------  -----------------  -----------------  -----------------
         O            0.056627756446     1.936868700712    -1.183721935077    15.994914619570
         N            1.256192756446     0.449245700712     0.084826064923    14.003074004430
         C            3.727300756446    -0.964602299288     0.432427064923    12.000000000000
         C            3.579919756446     0.155670700712    -0.597894935077    12.000000000000
         C            2.379253756446    -1.631659299288     0.709023064923    12.000000000000
         C            2.509899756446     1.154073700712    -0.165955935077    12.000000000000
         C            1.337172756446    -0.589640299288     1.105710064923    12.000000000000
         C            0.098424756446     0.915213700712    -0.484602935077    12.000000000000
         C           -1.135126243554     0.088432700712    -0.269444935077    12.000000000000
         C           -2.236696243554     0.642027700712     0.408657064923    12.000000000000
         C           -1.216580243554    -1.185288299288    -0.845399935077    12.000000000000
         C           -3.399720243554    -0.128990299288     0.513113064923    12.000000000000
         C           -2.160884243554     2.023232700712     1.006125064923    12.000000000000
         C           -2.390951243554    -1.931819299288    -0.742371935077    12.000000000000
         C           -3.484763243554    -1.401120299288    -0.057738935077    12.000000000000
         H            4.458794756446    -1.706445299288     0.092328064923     1.007825032230
         H            4.116702756446    -0.542910299288     1.369418064923     1.007825032230
         H            4.533522756446     0.678343700712    -0.740157935077     1.007825032230
         H            3.291461756446    -0.266563299288    -1.568208935077     1.007825032230
         H            2.029160456446    -2.136830099288    -0.199613735077     1.007825032230
         H            2.472444756446    -2.378815299288     1.506655064923     1.007825032230
         H            2.822573756446     1.671164700712     0.754331064923     1.007825032230
         H            2.312887756446     1.908436700712    -0.928875935077     1.007825032230
         H            0.352652756446    -1.037961299288     1.242221064923     1.007825032230
         H            1.629113756446    -0.122142299288     2.059812064923     1.007825032230
         H           -0.357477243554    -1.583664299288    -1.382870935077     1.007825032230
         H           -4.258669243554     0.279271700712     1.043251064923     1.007825032230
         H           -1.979631243554     2.767915700712     0.227345064923     1.007825032230
         H           -3.091161243554     2.269013700712     1.525386064923     1.007825032230
         H           -1.338777243554     2.100040700712     1.725875064923     1.007825032230
         H           -2.452012243554    -2.917788299288    -1.196905935077     1.007825032230
         H           -4.404226243554    -1.974883299288     0.032440064923     1.007825032230

  Basis Set: AUG-CC-PVTZ
    Blend: AUG-CC-PVTZ
  Basis Set: (AUG-CC-PVTZ AUX)
    Blend: AUG-CC-PVTZ-JKFIT
	 Reference Energy          =    -631.7306209387137415 [Eh]
	 Singles Energy            =      -0.0000000000000000 [Eh]
	 Same-Spin Energy          =      -0.6890392452304721 [Eh]
	 Opposite-Spin Energy      =      -2.2123058703589815 [Eh]
	 Correlation Energy        =      -2.9013451155894536 [Eh]
	 Total Energy              =    -634.6319660543032342 [Eh]

	 ================> DF-SCS-MP2 Energies <==================
	-----------------------------------------------------------
	 SCS Same-Spin Scale       =       0.3333333333333333 [-]
	 SCS Opposite-Spin Scale   =       1.2000000000000000 [-]
	 SCS Same-Spin Energy      =      -0.2296797484101574 [Eh]
	 SCS Opposite-Spin Energy  =      -2.6547670444307778 [Eh]
	 SCS Correlation Energy    =      -2.8844467928409352 [Eh]
	 SCS Total Energy          =    -634.6150677315546318 [Eh]
	-----------------------------------------------------------

  Dipole Moment: [D]
     X:     1.4040      Y:    -2.5147      Z:     2.3038     Total:     3.6881

*** Psi4 exiting successfully. Buy a developer a beer!
