                               Psi4 1.4a3.dev225

  ==> Input File <==

--------------------------------------------------------------------------
#psi4
#
memory 32 gb

molecule  {
0 1
  O        0.0109280     1.9504830    -1.2088660
  N        1.2104930     0.4628600     0.0596820
  C        3.6816010    -0.9509880     0.4072830
  C        3.5342200     0.1692850    -0.6230390
  C        2.3335540    -1.6180450     0.6838790
  C        2.4642000     1.1676880    -0.1911000
  C        1.2914730    -0.5760260     1.0805660
  C        0.0527250     0.9288280    -0.5097470
  C       -1.1808260     0.1020470    -0.2945890
  C       -2.2823960     0.6556420     0.3835130
  C       -1.2622800    -1.1716740    -0.8705440
  C       -3.2791891    -0.0051745     0.4730391
  C       -2.2065840     2.0368470     0.9809810
  C       -2.4366510    -1.9182050    -0.7675160
  C       -3.5304630    -1.3875060    -0.0828830
  H        4.4130950    -1.6928310     0.0671840
  H        4.0710030    -0.5292960     1.3442740
  H        4.4878230     0.6919580    -0.7653020
  H        3.2457620    -0.2529490    -1.5933530
  H        1.9831950    -2.1398170    -0.2152240
  H        2.4267450    -2.3652010     1.4815110
  H        2.7768740     1.6847790     0.7291870
  H        2.2671880     1.9220510    -0.9540200
  H        0.3069530    -1.0243470     1.2170770
  H        1.5834140    -0.1085280     2.0346680
  H       -0.4031770    -1.5700500    -1.4080150
  H       -4.3043690     0.2928860     1.0181070
  H       -2.0253310     2.7815300     0.2022010
  H       -3.1368610     2.2826280     1.5002420
  H       -1.3844770     2.1136550     1.7007310
  H       -2.4977120    -2.9041740    -1.2220500
  H       -4.4499260    -1.9612690     0.0072960
units angstrom
no_reorient  #important for SAPT in psi4, default
symmetry c1  #important for SAPT in psi4, default
}

set PROPERTIES_ORIGIN ["COM"]
properties('MP2/aug-cc-pvtz', properties = ['dipole'])
--------------------------------------------------------------------------

    Molecular point group: c1
  Charge       = 0
  Multiplicity = 1
  Basis Set: AUG-CC-PVTZ
    Blend: AUG-CC-PVTZ
  Basis Set: (AUG-CC-PVTZ AUX)
    Blend: AUG-CC-PVTZ-JKFIT

    Orbital Energies [Eh]
    ---------------------

    Doubly Occupied:

       1A    -20.511238     2A    -15.584340     3A    -11.350083
       4A    -11.267216     5A    -11.254865     6A    -11.252483
       7A    -11.249589     8A    -11.245691     9A    -11.240497
      10A    -11.230983    11A    -11.230979    12A    -11.228588
      13A    -11.225930    14A    -11.221584    15A    -11.217437
      16A     -1.367539    17A     -1.249950    18A     -1.180600
      19A     -1.084007    20A     -1.066860    21A     -1.035552
      22A     -1.015987    23A     -0.941077    24A     -0.923170
      25A     -0.872220    26A     -0.852956    27A     -0.805438
      28A     -0.791005    29A     -0.743525    30A     -0.711051
      31A     -0.669134    32A     -0.654049    33A     -0.649938
      34A     -0.628259    35A     -0.617512    36A     -0.613089
      37A     -0.590266    38A     -0.585969    39A     -0.580400
      40A     -0.576431    41A     -0.562180    42A     -0.549607
      43A     -0.534567    44A     -0.524680    45A     -0.523435
      46A     -0.502264    47A     -0.494916    48A     -0.480222
      49A     -0.470032    50A     -0.461932    51A     -0.447996
      52A     -0.418368    53A     -0.366976    54A     -0.364475
      55A     -0.323800

  @DF-RHF Final Energy:  -631.66864121173762

   => Energetics <=

    Nuclear Repulsion Energy =           1003.5963956221698936
    One-Electron Energy =               -2850.2442013409281572
    Two-Electron Energy =                1214.9791645070206414
    Total Energy =                       -631.6686412117376221
  Basis Set: (AUG-CC-PVTZ AUX)
    Blend: AUG-CC-PVTZ-RI
    Molecular point group: c1

    Geometry (in Angstrom), charge = 0, multiplicity = 1:

       Center              X                  Y                   Z               Mass
    ------------   -----------------  -----------------  -----------------  -----------------
         O            0.046808955368     1.930440894006    -1.182887250140    15.994914619570
         N            1.246373955368     0.442817894006     0.085660749860    14.003074004430
         C            3.717481955368    -0.971030105994     0.433261749860    12.000000000000
         C            3.570100955368     0.149242894006    -0.597060250140    12.000000000000
         C            2.369434955368    -1.638087105994     0.709857749860    12.000000000000
         C            2.500080955368     1.147645894006    -0.165121250140    12.000000000000
         C            1.327353955368    -0.596068105994     1.106544749860    12.000000000000
         C            0.088605955368     0.908785894006    -0.483768250140    12.000000000000
         C           -1.144945044632     0.082004894006    -0.268610250140    12.000000000000
         C           -2.246515044632     0.635599894006     0.409491749860    12.000000000000
         C           -1.226399044632    -1.191716105994    -0.844565250140    12.000000000000
         C           -3.243308144632    -0.025216605994     0.499017849860    12.000000000000
         C           -2.170703044632     2.016804894006     1.006959749860    12.000000000000
         C           -2.400770044632    -1.938247105994    -0.741537250140    12.000000000000
         C           -3.494582044632    -1.407548105994    -0.056904250140    12.000000000000
         H            4.448975955368    -1.712873105994     0.093162749860     1.007825032230
         H            4.106883955368    -0.549338105994     1.370252749860     1.007825032230
         H            4.523703955368     0.671915894006    -0.739323250140     1.007825032230
         H            3.281642955368    -0.272991105994    -1.567374250140     1.007825032230
         H            2.019075955368    -2.159859105994    -0.189245250140     1.007825032230
         H            2.462625955368    -2.385243105994     1.507489749860     1.007825032230
         H            2.812754955368     1.664736894006     0.755165749860     1.007825032230
         H            2.303068955368     1.902008894006    -0.928041250140     1.007825032230
         H            0.342833955368    -1.044389105994     1.243055749860     1.007825032230
         H            1.619294955368    -0.128570105994     2.060646749860     1.007825032230
         H           -0.367296044632    -1.590092105994    -1.382036250140     1.007825032230
         H           -4.268488044632     0.272843894006     1.044085749860     1.007825032230
         H           -1.989450044632     2.761487894006     0.228179749860     1.007825032230
         H           -3.100980044632     2.262585894006     1.526220749860     1.007825032230
         H           -1.348596044632     2.093612894006     1.726709749860     1.007825032230
         H           -2.461831044632    -2.924216105994    -1.196071250140     1.007825032230
         H           -4.414045044632    -1.981311105994     0.033274749860     1.007825032230

  Basis Set: AUG-CC-PVTZ
    Blend: AUG-CC-PVTZ
  Basis Set: (AUG-CC-PVTZ AUX)
    Blend: AUG-CC-PVTZ-JKFIT
	 Reference Energy          =    -631.6686412117376221 [Eh]
	 Singles Energy            =      -0.0000000000000000 [Eh]
	 Same-Spin Energy          =      -0.6886286612463530 [Eh]
	 Opposite-Spin Energy      =      -2.2143583647802987 [Eh]
	 Correlation Energy        =      -2.9029870260266515 [Eh]
	 Total Energy              =    -634.5716282377642301 [Eh]

	 ================> DF-SCS-MP2 Energies <==================
	-----------------------------------------------------------
	 SCS Same-Spin Scale       =       0.3333333333333333 [-]
	 SCS Opposite-Spin Scale   =       1.2000000000000000 [-]
	 SCS Same-Spin Energy      =      -0.2295428870821177 [Eh]
	 SCS Opposite-Spin Energy  =      -2.6572300377363582 [Eh]
	 SCS Correlation Energy    =      -2.8867729248184757 [Eh]
	 SCS Total Energy          =    -634.5554141365561236 [Eh]
	-----------------------------------------------------------

  Dipole Moment: [D]
     X:     1.4868      Y:    -2.6709      Z:     2.2068     Total:     3.7702

*** Psi4 exiting successfully. Buy a developer a beer!
