                               Psi4 1.4a3.dev225

  ==> Input File <==

--------------------------------------------------------------------------
#psi4
#
memory 32 gb

molecule  {
0 1
  O        0.0109280     1.9504830    -1.2088660
  N        1.2104930     0.4628600     0.0596820
  C        3.6816010    -0.9509880     0.4072830
  C        3.5342200     0.1692850    -0.6230390
  C        2.3335540    -1.6180450     0.6838790
  C        2.4642000     1.1676880    -0.1911000
  C        1.2914730    -0.5760260     1.0805660
  C        0.0527250     0.9288280    -0.5097470
  C       -1.1808260     0.1020470    -0.2945890
  C       -2.2823960     0.6556420     0.3835130
  C       -1.2622800    -1.1716740    -0.8705440
  C       -3.4454200    -0.1153760     0.4879690
  C       -2.2065840     2.0368470     0.9809810
  C       -2.4366510    -1.9182050    -0.7675160
  C       -3.5304630    -1.3875060    -0.0828830
  H        4.4130950    -1.6928310     0.0671840
  H        4.0710030    -0.5292960     1.3442740
  H        4.4878230     0.6919580    -0.7653020
  H        3.2457620    -0.2529490    -1.5933530
  H        1.9831950    -2.1398170    -0.2152240
  H        2.4267450    -2.3652010     1.4815110
  H        2.7768740     1.6847790     0.7291870
  H        2.2671880     1.9220510    -0.9540200
  H        0.3069530    -1.0243470     1.2170770
  H        1.5834140    -0.1085280     2.0346680
  H       -0.4031770    -1.5700500    -1.4080150
  H       -4.3043690     0.2928860     1.0181070
  H       -2.0253310     2.7815300     0.2022010
  H       -3.1368610     2.2826280     1.5002420
  H       -1.3469500     2.1171611     1.7335857
  H       -2.4977120    -2.9041740    -1.2220500
  H       -4.4499260    -1.9612690     0.0072960
units angstrom
no_reorient  #important for SAPT in psi4, default
symmetry c1  #important for SAPT in psi4, default
}

set PROPERTIES_ORIGIN ["COM"]
properties('MP2/aug-cc-pvtz', properties = ['dipole'])
--------------------------------------------------------------------------

    Molecular point group: c1
  Charge       = 0
  Multiplicity = 1
  Basis Set: AUG-CC-PVTZ
    Blend: AUG-CC-PVTZ
  Basis Set: (AUG-CC-PVTZ AUX)
    Blend: AUG-CC-PVTZ-JKFIT

    Orbital Energies [Eh]
    ---------------------

    Doubly Occupied:

       1A    -20.510745     2A    -15.583847     3A    -11.349469
       4A    -11.267025     5A    -11.254576     6A    -11.252265
       7A    -11.246501     8A    -11.245204     9A    -11.242843
      10A    -11.239359    11A    -11.237328    12A    -11.230604
      13A    -11.228288    14A    -11.226377    15A    -11.225640
      16A     -1.366954    17A     -1.249537    18A     -1.161571
      19A     -1.083580    20A     -1.050184    21A     -1.037302
      22A     -1.023262    23A     -0.941173    24A     -0.917845
      25A     -0.867348    26A     -0.844158    27A     -0.814964
      28A     -0.790686    29A     -0.742609    30A     -0.712229
      31A     -0.666671    32A     -0.653006    33A     -0.648194
      34A     -0.627804    35A     -0.620519    36A     -0.615122
      37A     -0.596308    38A     -0.587905    39A     -0.574918
      40A     -0.567639    41A     -0.560234    42A     -0.546914
      43A     -0.541176    44A     -0.524141    45A     -0.507115
      46A     -0.501638    47A     -0.491175    48A     -0.489429
      49A     -0.478547    50A     -0.469572    51A     -0.461518
      52A     -0.416952    53A     -0.366175    54A     -0.340167
      55A     -0.329907

  @DF-RHF Final Energy:  -631.72860223299517

   => Energetics <=

    Nuclear Repulsion Energy =            999.7802684992366267
    One-Electron Energy =               -2842.7653057396250915
    Two-Electron Energy =                1211.2564350073932928
    Total Energy =                       -631.7286022329951720
  Basis Set: (AUG-CC-PVTZ AUX)
    Blend: AUG-CC-PVTZ-RI
    Molecular point group: c1

    Geometry (in Angstrom), charge = 0, multiplicity = 1:

       Center              X                  Y                   Z               Mass
    ------------   -----------------  -----------------  -----------------  -----------------
         O            0.056442886247     1.936933671439    -1.183932243639    15.994914619570
         N            1.256007886247     0.449310671439     0.084615756361    14.003074004430
         C            3.727115886247    -0.964537328561     0.432216756361    12.000000000000
         C            3.579734886247     0.155735671439    -0.598105243639    12.000000000000
         C            2.379068886247    -1.631594328561     0.708812756361    12.000000000000
         C            2.509714886247     1.154138671439    -0.166166243639    12.000000000000
         C            1.336987886247    -0.589575328561     1.105499756361    12.000000000000
         C            0.098239886247     0.915278671439    -0.484813243639    12.000000000000
         C           -1.135311113753     0.088497671439    -0.269655243639    12.000000000000
         C           -2.236881113753     0.642092671439     0.408446756361    12.000000000000
         C           -1.216765113753    -1.185223328561    -0.845610243639    12.000000000000
         C           -3.399905113753    -0.128925328561     0.512902756361    12.000000000000
         C           -2.161069113753     2.023297671439     1.005914756361    12.000000000000
         C           -2.391136113753    -1.931754328561    -0.742582243639    12.000000000000
         C           -3.484948113753    -1.401055328561    -0.057949243639    12.000000000000
         H            4.458609886247    -1.706380328561     0.092117756361     1.007825032230
         H            4.116517886247    -0.542845328561     1.369207756361     1.007825032230
         H            4.533337886247     0.678408671439    -0.740368243639     1.007825032230
         H            3.291276886247    -0.266498328561    -1.568419243639     1.007825032230
         H            2.028709886247    -2.153366328561    -0.190290243639     1.007825032230
         H            2.472259886247    -2.378750328561     1.506444756361     1.007825032230
         H            2.822388886247     1.671229671439     0.754120756361     1.007825032230
         H            2.312702886247     1.908501671439    -0.929086243639     1.007825032230
         H            0.352467886247    -1.037896328561     1.242010756361     1.007825032230
         H            1.628928886247    -0.122077328561     2.059601756361     1.007825032230
         H           -0.357662113753    -1.583599328561    -1.383081243639     1.007825032230
         H           -4.258854113753     0.279336671439     1.043040756361     1.007825032230
         H           -1.979816113753     2.767980671439     0.227134756361     1.007825032230
         H           -3.091346113753     2.269078671439     1.525175756361     1.007825032230
         H           -1.301435113753     2.103611771439     1.758519456361     1.007825032230
         H           -2.452197113753    -2.917723328561    -1.197116243639     1.007825032230
         H           -4.404411113753    -1.974818328561     0.032229756361     1.007825032230

  Basis Set: AUG-CC-PVTZ
    Blend: AUG-CC-PVTZ
  Basis Set: (AUG-CC-PVTZ AUX)
    Blend: AUG-CC-PVTZ-JKFIT
	 Reference Energy          =    -631.7286022329951720 [Eh]
	 Singles Energy            =      -0.0000000000000000 [Eh]
	 Same-Spin Energy          =      -0.6890332599542858 [Eh]
	 Opposite-Spin Energy      =      -2.2126022826062899 [Eh]
	 Correlation Energy        =      -2.9016355425605758 [Eh]
	 Total Energy              =    -634.6302377755557700 [Eh]

	 ================> DF-SCS-MP2 Energies <==================
	-----------------------------------------------------------
	 SCS Same-Spin Scale       =       0.3333333333333333 [-]
	 SCS Opposite-Spin Scale   =       1.2000000000000000 [-]
	 SCS Same-Spin Energy      =      -0.2296777533180953 [Eh]
	 SCS Opposite-Spin Energy  =      -2.6551227391275476 [Eh]
	 SCS Correlation Energy    =      -2.8848004924456427 [Eh]
	 SCS Total Energy          =    -634.6134027254407783 [Eh]
	-----------------------------------------------------------

  Dipole Moment: [D]
     X:     1.3875      Y:    -2.5324      Z:     2.2844     Total:     3.6820

*** Psi4 exiting successfully. Buy a developer a beer!
