                               Psi4 1.4a3.dev225

  ==> Input File <==

--------------------------------------------------------------------------
#psi4
#
memory 32 gb

molecule  {
0 1
  O        0.0109280     1.9504830    -1.2088660
  N        1.2104930     0.4628600     0.0596820
  C        3.6816010    -0.9509880     0.4072830
  C        3.5342200     0.1692850    -0.6230390
  C        2.3548580    -1.6648695     0.6696328
  C        2.4642000     1.1676880    -0.1911000
  C        1.2914730    -0.5760260     1.0805660
  C        0.0527250     0.9288280    -0.5097470
  C       -1.1808260     0.1020470    -0.2945890
  C       -2.2823960     0.6556420     0.3835130
  C       -1.2622800    -1.1716740    -0.8705440
  C       -3.4454200    -0.1153760     0.4879690
  C       -2.2065840     2.0368470     0.9809810
  C       -2.4366510    -1.9182050    -0.7675160
  C       -3.5304630    -1.3875060    -0.0828830
  H        4.4130950    -1.6928310     0.0671840
  H        4.0710030    -0.5292960     1.3442740
  H        4.4878230     0.6919580    -0.7653020
  H        3.2457620    -0.2529490    -1.5933530
  H        1.9831950    -2.1398170    -0.2152240
  H        2.4267450    -2.3652010     1.4815110
  H        2.7768740     1.6847790     0.7291870
  H        2.2671880     1.9220510    -0.9540200
  H        0.3069530    -1.0243470     1.2170770
  H        1.5834140    -0.1085280     2.0346680
  H       -0.4031770    -1.5700500    -1.4080150
  H       -4.3043690     0.2928860     1.0181070
  H       -2.0253310     2.7815300     0.2022010
  H       -3.1368610     2.2826280     1.5002420
  H       -1.3844770     2.1136550     1.7007310
  H       -2.4977120    -2.9041740    -1.2220500
  H       -4.4499260    -1.9612690     0.0072960
units angstrom
no_reorient  #important for SAPT in psi4, default
symmetry c1  #important for SAPT in psi4, default
}

set PROPERTIES_ORIGIN ["COM"]
properties('MP2/aug-cc-pvtz', properties = ['dipole'])
--------------------------------------------------------------------------

    Molecular point group: c1
  Charge       = 0
  Multiplicity = 1
  Basis Set: AUG-CC-PVTZ
    Blend: AUG-CC-PVTZ
  Basis Set: (AUG-CC-PVTZ AUX)
    Blend: AUG-CC-PVTZ-JKFIT

    Orbital Energies [Eh]
    ---------------------

    Doubly Occupied:

       1A    -20.510659     2A    -15.584046     3A    -11.349304
       4A    -11.268149     5A    -11.254471     6A    -11.251714
       7A    -11.246288     8A    -11.244938     9A    -11.242545
      10A    -11.239085    11A    -11.236889    12A    -11.229300
      13A    -11.228171    14A    -11.226104    15A    -11.220219
      16A     -1.366812    17A     -1.248062    18A     -1.161298
      19A     -1.082232    20A     -1.050647    21A     -1.035426
      22A     -1.020712    23A     -0.942676    24A     -0.917406
      25A     -0.869606    26A     -0.844678    27A     -0.815484
      28A     -0.791693    29A     -0.742224    30A     -0.711478
      31A     -0.666109    32A     -0.652581    33A     -0.647238
      34A     -0.628668    35A     -0.620850    36A     -0.615057
      37A     -0.597694    38A     -0.587789    39A     -0.575595
      40A     -0.572061    41A     -0.559620    42A     -0.544698
      43A     -0.540998    44A     -0.524032    45A     -0.506635
      46A     -0.505653    47A     -0.491832    48A     -0.489174
      49A     -0.478877    50A     -0.467089    51A     -0.465246
      52A     -0.416704    53A     -0.363911    54A     -0.339839
      55A     -0.329883

  @DF-RHF Final Energy:  -631.72841883986234

   => Energetics <=

    Nuclear Repulsion Energy =            999.0441906948686892
    One-Electron Energy =               -2841.3049164412705068
    Two-Electron Energy =                1210.5323069065395885
    Total Energy =                       -631.7284188398623428
  Basis Set: (AUG-CC-PVTZ AUX)
    Blend: AUG-CC-PVTZ-RI
    Molecular point group: c1

    Geometry (in Angstrom), charge = 0, multiplicity = 1:

       Center              X                  Y                   Z               Mass
    ------------   -----------------  -----------------  -----------------  -----------------
         O            0.055370537198     1.939717232273    -1.182927639837    15.994914619570
         N            1.254935537198     0.452094232273     0.085620360163    14.003074004430
         C            3.726043537198    -0.961753767727     0.433221360163    12.000000000000
         C            3.578662537198     0.158519232273    -0.597100639837    12.000000000000
         C            2.399300537198    -1.675635267727     0.695571160163    12.000000000000
         C            2.508642537198     1.156922232273    -0.165161639837    12.000000000000
         C            1.335915537198    -0.586791767727     1.106504360163    12.000000000000
         C            0.097167537198     0.918062232273    -0.483808639837    12.000000000000
         C           -1.136383462802     0.091281232273    -0.268650639837    12.000000000000
         C           -2.237953462802     0.644876232273     0.409451360163    12.000000000000
         C           -1.217837462802    -1.182439767727    -0.844605639837    12.000000000000
         C           -3.400977462802    -0.126141767727     0.513907360163    12.000000000000
         C           -2.162141462802     2.026081232273     1.006919360163    12.000000000000
         C           -2.392208462802    -1.928970767727    -0.741577639837    12.000000000000
         C           -3.486020462802    -1.398271767727    -0.056944639837    12.000000000000
         H            4.457537537198    -1.703596767727     0.093122360163     1.007825032230
         H            4.115445537198    -0.540061767727     1.370212360163     1.007825032230
         H            4.532265537198     0.681192232273    -0.739363639837     1.007825032230
         H            3.290204537198    -0.263714767727    -1.567414639837     1.007825032230
         H            2.027637537198    -2.150582767727    -0.189285639837     1.007825032230
         H            2.471187537198    -2.375966767727     1.507449360163     1.007825032230
         H            2.821316537198     1.674013232273     0.755125360163     1.007825032230
         H            2.311630537198     1.911285232273    -0.928081639837     1.007825032230
         H            0.351395537198    -1.035112767727     1.243015360163     1.007825032230
         H            1.627856537198    -0.119293767727     2.060606360163     1.007825032230
         H           -0.358734462802    -1.580815767727    -1.382076639837     1.007825032230
         H           -4.259926462802     0.282120232273     1.044045360163     1.007825032230
         H           -1.980888462802     2.770764232273     0.228139360163     1.007825032230
         H           -3.092418462802     2.271862232273     1.526180360163     1.007825032230
         H           -1.340034462802     2.102889232273     1.726669360163     1.007825032230
         H           -2.453269462802    -2.914939767727    -1.196111639837     1.007825032230
         H           -4.405483462802    -1.972034767727     0.033234360163     1.007825032230

  Basis Set: AUG-CC-PVTZ
    Blend: AUG-CC-PVTZ
  Basis Set: (AUG-CC-PVTZ AUX)
    Blend: AUG-CC-PVTZ-JKFIT
	 Reference Energy          =    -631.7284188398623428 [Eh]
	 Singles Energy            =      -0.0000000000000000 [Eh]
	 Same-Spin Energy          =      -0.6888263450517231 [Eh]
	 Opposite-Spin Energy      =      -2.2122451096312377 [Eh]
	 Correlation Energy        =      -2.9010714546829606 [Eh]
	 Total Energy              =    -634.6294902945453487 [Eh]

	 ================> DF-SCS-MP2 Energies <==================
	-----------------------------------------------------------
	 SCS Same-Spin Scale       =       0.3333333333333333 [-]
	 SCS Opposite-Spin Scale   =       1.2000000000000000 [-]
	 SCS Same-Spin Energy      =      -0.2296087816839077 [Eh]
	 SCS Opposite-Spin Energy  =      -2.6546941315574850 [Eh]
	 SCS Correlation Energy    =      -2.8843029132413927 [Eh]
	 SCS Total Energy          =    -634.6127217531037559 [Eh]
	-----------------------------------------------------------

  Dipole Moment: [D]
     X:     1.4058      Y:    -2.5230      Z:     2.3014     Total:     3.6929

*** Psi4 exiting successfully. Buy a developer a beer!
