                               Psi4 1.4a3.dev225

  ==> Input File <==

--------------------------------------------------------------------------
#psi4
#
memory 32 gb

molecule  {
0 1
  O        0.0109280     1.9504830    -1.2088660
  N        1.2104930     0.4628600     0.0596820
  C        3.6816010    -0.9509880     0.4072830
  C        3.5315603     0.1567010    -0.5997195
  C        2.3335540    -1.6180450     0.6838790
  C        2.4642000     1.1676880    -0.1911000
  C        1.2914730    -0.5760260     1.0805660
  C        0.0527250     0.9288280    -0.5097470
  C       -1.1808260     0.1020470    -0.2945890
  C       -2.2823960     0.6556420     0.3835130
  C       -1.2622800    -1.1716740    -0.8705440
  C       -3.4454200    -0.1153760     0.4879690
  C       -2.2065840     2.0368470     0.9809810
  C       -2.4366510    -1.9182050    -0.7675160
  C       -3.5304630    -1.3875060    -0.0828830
  H        4.4130950    -1.6928310     0.0671840
  H        4.0710030    -0.5292960     1.3442740
  H        4.4878230     0.6919580    -0.7653020
  H        3.2457620    -0.2529490    -1.5933530
  H        1.9831950    -2.1398170    -0.2152240
  H        2.4267450    -2.3652010     1.4815110
  H        2.7768740     1.6847790     0.7291870
  H        2.2671880     1.9220510    -0.9540200
  H        0.3069530    -1.0243470     1.2170770
  H        1.5834140    -0.1085280     2.0346680
  H       -0.4031770    -1.5700500    -1.4080150
  H       -4.3043690     0.2928860     1.0181070
  H       -2.0253310     2.7815300     0.2022010
  H       -3.1368610     2.2826280     1.5002420
  H       -1.3844770     2.1136550     1.7007310
  H       -2.4977120    -2.9041740    -1.2220500
  H       -4.4499260    -1.9612690     0.0072960
units angstrom
no_reorient  #important for SAPT in psi4, default
symmetry c1  #important for SAPT in psi4, default
}

set PROPERTIES_ORIGIN ["COM"]
properties('MP2/aug-cc-pvtz', properties = ['dipole'])
--------------------------------------------------------------------------

    Molecular point group: c1
  Charge       = 0
  Multiplicity = 1
  Basis Set: AUG-CC-PVTZ
    Blend: AUG-CC-PVTZ
  Basis Set: (AUG-CC-PVTZ AUX)
    Blend: AUG-CC-PVTZ-JKFIT

    Orbital Energies [Eh]
    ---------------------

    Doubly Occupied:

       1A    -20.510838     2A    -15.583811     3A    -11.349435
       4A    -11.267272     5A    -11.254959     6A    -11.251851
       7A    -11.246329     8A    -11.245001     9A    -11.242648
      10A    -11.239137    11A    -11.236980    12A    -11.230780
      13A    -11.227747    14A    -11.226764    15A    -11.220349
      16A     -1.367060    17A     -1.249928    18A     -1.161450
      19A     -1.086600    20A     -1.050837    21A     -1.037232
      22A     -1.023425    23A     -0.943530    24A     -0.919639
      25A     -0.866937    26A     -0.844786    27A     -0.815146
      28A     -0.789933    29A     -0.742716    30A     -0.712605
      31A     -0.667055    32A     -0.652713    33A     -0.648479
      34A     -0.627826    35A     -0.620247    36A     -0.615393
      37A     -0.597258    38A     -0.588677    39A     -0.575692
      40A     -0.572138    41A     -0.561177    42A     -0.547360
      43A     -0.541795    44A     -0.524745    45A     -0.507922
      46A     -0.500980    47A     -0.491213    48A     -0.489265
      49A     -0.477022    50A     -0.469969    51A     -0.463264
      52A     -0.416992    53A     -0.365967    54A     -0.340007
      55A     -0.330008

  @DF-RHF Final Energy:  -631.72965071061390

   => Energetics <=

    Nuclear Repulsion Energy =           1000.3036757059210231
    One-Electron Energy =               -2843.7888668456230334
    Two-Electron Energy =                1211.7555404290881143
    Total Energy =                       -631.7296507106138961
  Basis Set: (AUG-CC-PVTZ AUX)
    Blend: AUG-CC-PVTZ-RI
    Molecular point group: c1

    Geometry (in Angstrom), charge = 0, multiplicity = 1:

       Center              X                  Y                   Z               Mass
    ------------   -----------------  -----------------  -----------------  -----------------
         O            0.056786196944     1.937694468779    -1.185146840099    15.994914619570
         N            1.256351196944     0.450071468779     0.083401159901    14.003074004430
         C            3.727459196944    -0.963776531221     0.431002159901    12.000000000000
         C            3.577418496944     0.143912468779    -0.576000340099    12.000000000000
         C            2.379412196944    -1.630833531221     0.707598159901    12.000000000000
         C            2.510058196944     1.154899468779    -0.167380840099    12.000000000000
         C            1.337331196944    -0.588814531221     1.104285159901    12.000000000000
         C            0.098583196944     0.916039468779    -0.486027840099    12.000000000000
         C           -1.134967803056     0.089258468779    -0.270869840099    12.000000000000
         C           -2.236537803056     0.642853468779     0.407232159901    12.000000000000
         C           -1.216421803056    -1.184462531221    -0.846824840099    12.000000000000
         C           -3.399561803056    -0.128164531221     0.511688159901    12.000000000000
         C           -2.160725803056     2.024058468779     1.004700159901    12.000000000000
         C           -2.390792803056    -1.930993531221    -0.743796840099    12.000000000000
         C           -3.484604803056    -1.400294531221    -0.059163840099    12.000000000000
         H            4.458953196944    -1.705619531221     0.090903159901     1.007825032230
         H            4.116861196944    -0.542084531221     1.367993159901     1.007825032230
         H            4.533681196944     0.679169468779    -0.741582840099     1.007825032230
         H            3.291620196944    -0.265737531221    -1.569633840099     1.007825032230
         H            2.029053196944    -2.152605531221    -0.191504840099     1.007825032230
         H            2.472603196944    -2.377989531221     1.505230159901     1.007825032230
         H            2.822732196944     1.671990468779     0.752906159901     1.007825032230
         H            2.313046196944     1.909262468779    -0.930300840099     1.007825032230
         H            0.352811196944    -1.037135531221     1.240796159901     1.007825032230
         H            1.629272196944    -0.121316531221     2.058387159901     1.007825032230
         H           -0.357318803056    -1.582838531221    -1.384295840099     1.007825032230
         H           -4.258510803056     0.280097468779     1.041826159901     1.007825032230
         H           -1.979472803056     2.768741468779     0.225920159901     1.007825032230
         H           -3.091002803056     2.269839468779     1.523961159901     1.007825032230
         H           -1.338618803056     2.100866468779     1.724450159901     1.007825032230
         H           -2.451853803056    -2.916962531221    -1.198330840099     1.007825032230
         H           -4.404067803056    -1.974057531221     0.031015159901     1.007825032230

  Basis Set: AUG-CC-PVTZ
    Blend: AUG-CC-PVTZ
  Basis Set: (AUG-CC-PVTZ AUX)
    Blend: AUG-CC-PVTZ-JKFIT
	 Reference Energy          =    -631.7296507106138961 [Eh]
	 Singles Energy            =      -0.0000000000000000 [Eh]
	 Same-Spin Energy          =      -0.6892200241506719 [Eh]
	 Opposite-Spin Energy      =      -2.2124681562880810 [Eh]
	 Correlation Energy        =      -2.9016881804387529 [Eh]
	 Total Energy              =    -634.6313388910526783 [Eh]

	 ================> DF-SCS-MP2 Energies <==================
	-----------------------------------------------------------
	 SCS Same-Spin Scale       =       0.3333333333333333 [-]
	 SCS Opposite-Spin Scale   =       1.2000000000000000 [-]
	 SCS Same-Spin Energy      =      -0.2297400080502239 [Eh]
	 SCS Opposite-Spin Energy  =      -2.6549617875456972 [Eh]
	 SCS Correlation Energy    =      -2.8847017955959213 [Eh]
	 SCS Total Energy          =    -634.6143525062097979 [Eh]
	-----------------------------------------------------------

  Dipole Moment: [D]
     X:     1.4055      Y:    -2.5270      Z:     2.3161     Total:     3.7048

*** Psi4 exiting successfully. Buy a developer a beer!
