                               Psi4 1.4a3.dev225

  ==> Input File <==

--------------------------------------------------------------------------
#psi4
#
memory 32 gb

molecule  {
0 1
  O        0.0109280     1.9504830    -1.2088660
  N        1.2104930     0.4628600     0.0596820
  C        3.6816010    -0.9509880     0.4072830
  C        3.5342200     0.1692850    -0.6230390
  C        2.3335540    -1.6180450     0.6838790
  C        2.4642000     1.1676880    -0.1911000
  C        1.2914730    -0.5760260     1.0805660
  C        0.0527250     0.9288280    -0.5097470
  C       -1.1808260     0.1020470    -0.2945890
  C       -2.2823960     0.6556420     0.3835130
  C       -1.2622800    -1.1716740    -0.8705440
  C       -3.4454200    -0.1153760     0.4879690
  C       -2.2065840     2.0368470     0.9809810
  C       -2.4366510    -1.9182050    -0.7675160
  C       -3.5304630    -1.3875060    -0.0828830
  H        4.4130950    -1.6928310     0.0671840
  H        4.0710030    -0.5292960     1.3442740
  H        4.4878230     0.6919580    -0.7653020
  H        3.2720617    -0.2144526    -1.5048863
  H        1.9831950    -2.1398170    -0.2152240
  H        2.4267450    -2.3652010     1.4815110
  H        2.7768740     1.6847790     0.7291870
  H        2.2671880     1.9220510    -0.9540200
  H        0.3069530    -1.0243470     1.2170770
  H        1.5834140    -0.1085280     2.0346680
  H       -0.4031770    -1.5700500    -1.4080150
  H       -4.3043690     0.2928860     1.0181070
  H       -2.0253310     2.7815300     0.2022010
  H       -3.1368610     2.2826280     1.5002420
  H       -1.3844770     2.1136550     1.7007310
  H       -2.4977120    -2.9041740    -1.2220500
  H       -4.4499260    -1.9612690     0.0072960
units angstrom
no_reorient  #important for SAPT in psi4, default
symmetry c1  #important for SAPT in psi4, default
}

set PROPERTIES_ORIGIN ["COM"]
properties('MP2/aug-cc-pvtz', properties = ['dipole'])
--------------------------------------------------------------------------

    Molecular point group: c1
  Charge       = 0
  Multiplicity = 1
  Basis Set: AUG-CC-PVTZ
    Blend: AUG-CC-PVTZ
  Basis Set: (AUG-CC-PVTZ AUX)
    Blend: AUG-CC-PVTZ-JKFIT

    Orbital Energies [Eh]
    ---------------------

    Doubly Occupied:

       1A    -20.510769     2A    -15.583849     3A    -11.349412
       4A    -11.266932     5A    -11.253659     6A    -11.251840
       7A    -11.246367     8A    -11.245026     9A    -11.242652
      10A    -11.239161    11A    -11.236982    12A    -11.230527
      13A    -11.227316    14A    -11.220306    15A    -11.213026
      16A     -1.366980    17A     -1.249596    18A     -1.161447
      19A     -1.085491    20A     -1.050791    21A     -1.037956
      22A     -1.024760    23A     -0.943152    24A     -0.918514
      25A     -0.871631    26A     -0.844059    27A     -0.816238
      28A     -0.795238    29A     -0.744433    30A     -0.712293
      31A     -0.666737    32A     -0.653982    33A     -0.648468
      34A     -0.630685    35A     -0.621551    36A     -0.615283
      37A     -0.597582    38A     -0.588423    39A     -0.575662
      40A     -0.571762    41A     -0.559977    42A     -0.547216
      43A     -0.541656    44A     -0.525321    45A     -0.509856
      46A     -0.505136    47A     -0.492122    48A     -0.489650
      49A     -0.480949    50A     -0.470443    51A     -0.460935
      52A     -0.416881    53A     -0.365973    54A     -0.340005
      55A     -0.329997

  @DF-RHF Final Energy:  -631.72483426200711

   => Energetics <=

    Nuclear Repulsion Energy =           1000.4596925762509727
    One-Electron Energy =               -2844.0757447892756318
    Two-Electron Energy =                1211.8912179510175520
    Total Energy =                       -631.7248342620071071
  Basis Set: (AUG-CC-PVTZ AUX)
    Blend: AUG-CC-PVTZ-RI
    Molecular point group: c1

    Geometry (in Angstrom), charge = 0, multiplicity = 1:

       Center              X                  Y                   Z               Mass
    ------------   -----------------  -----------------  -----------------  -----------------
         O            0.056498589972     1.936760068701    -1.184208159977    15.994914619570
         N            1.256063589972     0.449137068701     0.084339840023    14.003074004430
         C            3.727171589972    -0.964710931299     0.431940840023    12.000000000000
         C            3.579790589972     0.155562068701    -0.598381159977    12.000000000000
         C            2.379124589972    -1.631767931299     0.708536840023    12.000000000000
         C            2.509770589972     1.153965068701    -0.166442159977    12.000000000000
         C            1.337043589972    -0.589748931299     1.105223840023    12.000000000000
         C            0.098295589972     0.915105068701    -0.485089159977    12.000000000000
         C           -1.135255410028     0.088324068701    -0.269931159977    12.000000000000
         C           -2.236825410028     0.641919068701     0.408170840023    12.000000000000
         C           -1.216709410028    -1.185396931299    -0.845886159977    12.000000000000
         C           -3.399849410028    -0.129098931299     0.512626840023    12.000000000000
         C           -2.161013410028     2.023124068701     1.005638840023    12.000000000000
         C           -2.391080410028    -1.931927931299    -0.742858159977    12.000000000000
         C           -3.484892410028    -1.401228931299    -0.058225159977    12.000000000000
         H            4.458665589972    -1.706553931299     0.091841840023     1.007825032230
         H            4.116573589972    -0.543018931299     1.368931840023     1.007825032230
         H            4.533393589972     0.678235068701    -0.740644159977     1.007825032230
         H            3.317632289972    -0.228175531299    -1.480228459977     1.007825032230
         H            2.028765589972    -2.153539931299    -0.190566159977     1.007825032230
         H            2.472315589972    -2.378923931299     1.506168840023     1.007825032230
         H            2.822444589972     1.671056068701     0.753844840023     1.007825032230
         H            2.312758589972     1.908328068701    -0.929362159977     1.007825032230
         H            0.352523589972    -1.038069931299     1.241734840023     1.007825032230
         H            1.628984589972    -0.122250931299     2.059325840023     1.007825032230
         H           -0.357606410028    -1.583772931299    -1.383357159977     1.007825032230
         H           -4.258798410028     0.279163068701     1.042764840023     1.007825032230
         H           -1.979760410028     2.767807068701     0.226858840023     1.007825032230
         H           -3.091290410028     2.268905068701     1.524899840023     1.007825032230
         H           -1.338906410028     2.099932068701     1.725388840023     1.007825032230
         H           -2.452141410028    -2.917896931299    -1.197392159977     1.007825032230
         H           -4.404355410028    -1.974991931299     0.031953840023     1.007825032230

  Basis Set: AUG-CC-PVTZ
    Blend: AUG-CC-PVTZ
  Basis Set: (AUG-CC-PVTZ AUX)
    Blend: AUG-CC-PVTZ-JKFIT
	 Reference Energy          =    -631.7248342620071071 [Eh]
	 Singles Energy            =      -0.0000000000000000 [Eh]
	 Same-Spin Energy          =      -0.6890006862040932 [Eh]
	 Opposite-Spin Energy      =      -2.2117416530924876 [Eh]
	 Correlation Energy        =      -2.9007423392965808 [Eh]
	 Total Energy              =    -634.6255766013036919 [Eh]

	 ================> DF-SCS-MP2 Energies <==================
	-----------------------------------------------------------
	 SCS Same-Spin Scale       =       0.3333333333333333 [-]
	 SCS Opposite-Spin Scale   =       1.2000000000000000 [-]
	 SCS Same-Spin Energy      =      -0.2296668954013644 [Eh]
	 SCS Opposite-Spin Energy  =      -2.6540899837109850 [Eh]
	 SCS Correlation Energy    =      -2.8837568791123496 [Eh]
	 SCS Total Energy          =    -634.6085911411194047 [Eh]
	-----------------------------------------------------------

  Dipole Moment: [D]
     X:     1.4014      Y:    -2.5346      Z:     2.2547     Total:     3.6704

*** Psi4 exiting successfully. Buy a developer a beer!
