                               Psi4 1.4a3.dev225

  ==> Input File <==

--------------------------------------------------------------------------
#psi4
#
memory 32 gb

molecule  {
0 1
  O        0.0109280     1.9504830    -1.2088660
  N        1.2104930     0.4628600     0.0596820
  C        3.6816010    -0.9509880     0.4072830
  C        3.5342200     0.1692850    -0.6230390
  C        2.3335540    -1.6180450     0.6838790
  C        2.4642000     1.1676880    -0.1911000
  C        1.2914730    -0.5760260     1.0805660
  C        0.0527250     0.9288280    -0.5097470
  C       -1.1808260     0.1020470    -0.2945890
  C       -2.2823960     0.6556420     0.3835130
  C       -1.2564629    -1.0807107    -0.8294120
  C       -3.4454200    -0.1153760     0.4879690
  C       -2.2065840     2.0368470     0.9809810
  C       -2.4366510    -1.9182050    -0.7675160
  C       -3.5304630    -1.3875060    -0.0828830
  H        4.4130950    -1.6928310     0.0671840
  H        4.0710030    -0.5292960     1.3442740
  H        4.4878230     0.6919580    -0.7653020
  H        3.2457620    -0.2529490    -1.5933530
  H        1.9831950    -2.1398170    -0.2152240
  H        2.4267450    -2.3652010     1.4815110
  H        2.7768740     1.6847790     0.7291870
  H        2.2671880     1.9220510    -0.9540200
  H        0.3069530    -1.0243470     1.2170770
  H        1.5834140    -0.1085280     2.0346680
  H       -0.4031770    -1.5700500    -1.4080150
  H       -4.3043690     0.2928860     1.0181070
  H       -2.0253310     2.7815300     0.2022010
  H       -3.1368610     2.2826280     1.5002420
  H       -1.3844770     2.1136550     1.7007310
  H       -2.4977120    -2.9041740    -1.2220500
  H       -4.4499260    -1.9612690     0.0072960
units angstrom
no_reorient  #important for SAPT in psi4, default
symmetry c1  #important for SAPT in psi4, default
}

set PROPERTIES_ORIGIN ["COM"]
properties('MP2/aug-cc-pvtz', properties = ['dipole'])
--------------------------------------------------------------------------

    Molecular point group: c1
  Charge       = 0
  Multiplicity = 1
  Basis Set: AUG-CC-PVTZ
    Blend: AUG-CC-PVTZ
  Basis Set: (AUG-CC-PVTZ AUX)
    Blend: AUG-CC-PVTZ-JKFIT

    Orbital Energies [Eh]
    ---------------------

    Doubly Occupied:

       1A    -20.511241     2A    -15.584105     3A    -11.349743
       4A    -11.267336     5A    -11.254759     6A    -11.252408
       7A    -11.244280     8A    -11.243195     9A    -11.241721
      10A    -11.235091    11A    -11.235019    12A    -11.230523
      13A    -11.228278    14A    -11.225632    15A    -11.220533
      16A     -1.367656    17A     -1.249944    18A     -1.168887
      19A     -1.083851    20A     -1.047801    21A     -1.042081
      22A     -1.027734    23A     -0.939137    24A     -0.921102
      25A     -0.866935    26A     -0.839267    27A     -0.817022
      28A     -0.793742    29A     -0.744839    30A     -0.714384
      31A     -0.663845    32A     -0.653693    33A     -0.648247
      34A     -0.627281    35A     -0.623044    36A     -0.613616
      37A     -0.598785    38A     -0.588323    39A     -0.572979
      40A     -0.569002    41A     -0.560790    42A     -0.547536
      43A     -0.540560    44A     -0.524739    45A     -0.506371
      46A     -0.503113    47A     -0.492840    48A     -0.486327
      49A     -0.479109    50A     -0.469741    51A     -0.461573
      52A     -0.415837    53A     -0.366433    54A     -0.352828
      55A     -0.323245

  @DF-RHF Final Energy:  -631.71825393252743

   => Energetics <=

    Nuclear Repulsion Energy =           1001.7503791881451889
    One-Electron Energy =               -2846.6610571388105200
    Two-Electron Energy =                1213.1924240181378991
    Total Energy =                       -631.7182539325274320
  Basis Set: (AUG-CC-PVTZ AUX)
    Blend: AUG-CC-PVTZ-RI
    Molecular point group: c1

    Geometry (in Angstrom), charge = 0, multiplicity = 1:

       Center              X                  Y                   Z               Mass
    ------------   -----------------  -----------------  -----------------  -----------------
         O            0.056285428509     1.931577394018    -1.186199116636    15.994914619570
         N            1.255850428509     0.443954394018     0.082348883364    14.003074004430
         C            3.726958428509    -0.969893605982     0.429949883364    12.000000000000
         C            3.579577428509     0.150379394018    -0.600372116636    12.000000000000
         C            2.378911428509    -1.636950605982     0.706545883364    12.000000000000
         C            2.509557428509     1.148782394018    -0.168433116636    12.000000000000
         C            1.336830428509    -0.594931605982     1.103232883364    12.000000000000
         C            0.098082428509     0.909922394018    -0.487080116636    12.000000000000
         C           -1.135468571491     0.083141394018    -0.271922116636    12.000000000000
         C           -2.237038571491     0.636736394018     0.406179883364    12.000000000000
         C           -1.211105471491    -1.099616305982    -0.806745116636    12.000000000000
         C           -3.400062571491    -0.134281605982     0.510635883364    12.000000000000
         C           -2.161226571491     2.017941394018     1.003647883364    12.000000000000
         C           -2.391293571491    -1.937110605982    -0.744849116636    12.000000000000
         C           -3.485105571491    -1.406411605982    -0.060216116636    12.000000000000
         H            4.458452428509    -1.711736605982     0.089850883364     1.007825032230
         H            4.116360428509    -0.548201605982     1.366940883364     1.007825032230
         H            4.533180428509     0.673052394018    -0.742635116636     1.007825032230
         H            3.291119428509    -0.271854605982    -1.570686116636     1.007825032230
         H            2.028552428509    -2.158722605982    -0.192557116636     1.007825032230
         H            2.472102428509    -2.384106605982     1.504177883364     1.007825032230
         H            2.822231428509     1.665873394018     0.751853883364     1.007825032230
         H            2.312545428509     1.903145394018    -0.931353116636     1.007825032230
         H            0.352310428509    -1.043252605982     1.239743883364     1.007825032230
         H            1.628771428509    -0.127433605982     2.057334883364     1.007825032230
         H           -0.357819571491    -1.588955605982    -1.385348116636     1.007825032230
         H           -4.259011571491     0.273980394018     1.040773883364     1.007825032230
         H           -1.979973571491     2.762624394018     0.224867883364     1.007825032230
         H           -3.091503571491     2.263722394018     1.522908883364     1.007825032230
         H           -1.339119571491     2.094749394018     1.723397883364     1.007825032230
         H           -2.452354571491    -2.923079605982    -1.199383116636     1.007825032230
         H           -4.404568571491    -1.980174605982     0.029962883364     1.007825032230

  Basis Set: AUG-CC-PVTZ
    Blend: AUG-CC-PVTZ
  Basis Set: (AUG-CC-PVTZ AUX)
    Blend: AUG-CC-PVTZ-JKFIT
	 Reference Energy          =    -631.7182539325274320 [Eh]
	 Singles Energy            =      -0.0000000000000000 [Eh]
	 Same-Spin Energy          =      -0.6886500719200018 [Eh]
	 Opposite-Spin Energy      =      -2.2123415171112875 [Eh]
	 Correlation Energy        =      -2.9009915890312894 [Eh]
	 Total Energy              =    -634.6192455215586961 [Eh]

	 ================> DF-SCS-MP2 Energies <==================
	-----------------------------------------------------------
	 SCS Same-Spin Scale       =       0.3333333333333333 [-]
	 SCS Opposite-Spin Scale   =       1.2000000000000000 [-]
	 SCS Same-Spin Energy      =      -0.2295500239733339 [Eh]
	 SCS Opposite-Spin Energy  =      -2.6548098205335449 [Eh]
	 SCS Correlation Energy    =      -2.8843598445068790 [Eh]
	 SCS Total Energy          =    -634.6026137770343212 [Eh]
	-----------------------------------------------------------

  Dipole Moment: [D]
     X:     1.3937      Y:    -2.5303      Z:     2.3030     Total:     3.6944

*** Psi4 exiting successfully. Buy a developer a beer!
