                               Psi4 1.4a3.dev225

  ==> Input File <==

--------------------------------------------------------------------------
#psi4
#
memory 32 gb

molecule  {
0 1
  O        0.0109280     1.9504830    -1.2088660
  N        1.2104930     0.4628600     0.0596820
  C        3.6816010    -0.9509880     0.4072830
  C        3.5342200     0.1692850    -0.6230390
  C        2.3335540    -1.6180450     0.6838790
  C        2.4386819     1.2009127    -0.2201137
  C        1.2914730    -0.5760260     1.0805660
  C        0.0527250     0.9288280    -0.5097470
  C       -1.1808260     0.1020470    -0.2945890
  C       -2.2823960     0.6556420     0.3835130
  C       -1.2622800    -1.1716740    -0.8705440
  C       -3.4454200    -0.1153760     0.4879690
  C       -2.2065840     2.0368470     0.9809810
  C       -2.4366510    -1.9182050    -0.7675160
  C       -3.5304630    -1.3875060    -0.0828830
  H        4.4130950    -1.6928310     0.0671840
  H        4.0710030    -0.5292960     1.3442740
  H        4.4878230     0.6919580    -0.7653020
  H        3.2457620    -0.2529490    -1.5933530
  H        1.9831950    -2.1398170    -0.2152240
  H        2.4267450    -2.3652010     1.4815110
  H        2.7768740     1.6847790     0.7291870
  H        2.2671880     1.9220510    -0.9540200
  H        0.3069530    -1.0243470     1.2170770
  H        1.5834140    -0.1085280     2.0346680
  H       -0.4031770    -1.5700500    -1.4080150
  H       -4.3043690     0.2928860     1.0181070
  H       -2.0253310     2.7815300     0.2022010
  H       -3.1368610     2.2826280     1.5002420
  H       -1.3844770     2.1136550     1.7007310
  H       -2.4977120    -2.9041740    -1.2220500
  H       -4.4499260    -1.9612690     0.0072960
units angstrom
no_reorient  #important for SAPT in psi4, default
symmetry c1  #important for SAPT in psi4, default
}

set PROPERTIES_ORIGIN ["COM"]
properties('MP2/aug-cc-pvtz', properties = ['dipole'])
--------------------------------------------------------------------------

    Molecular point group: c1
  Charge       = 0
  Multiplicity = 1
  Basis Set: AUG-CC-PVTZ
    Blend: AUG-CC-PVTZ
  Basis Set: (AUG-CC-PVTZ AUX)
    Blend: AUG-CC-PVTZ-JKFIT

    Orbital Energies [Eh]
    ---------------------

    Doubly Occupied:

       1A    -20.510748     2A    -15.584405     3A    -11.348754
       4A    -11.268360     5A    -11.254545     6A    -11.251692
       7A    -11.246168     8A    -11.244743     9A    -11.242542
      10A    -11.239084    11A    -11.236909    12A    -11.230852
      13A    -11.228984    14A    -11.226705    15A    -11.220285
      16A     -1.367473    17A     -1.249103    18A     -1.161299
      19A     -1.081835    20A     -1.050783    21A     -1.037156
      22A     -1.021915    23A     -0.943030    24A     -0.918374
      25A     -0.868635    26A     -0.845001    27A     -0.814961
      28A     -0.789621    29A     -0.743483    30A     -0.712887
      31A     -0.667564    32A     -0.653280    33A     -0.648178
      34A     -0.628622    35A     -0.619916    36A     -0.614585
      37A     -0.596561    38A     -0.587909    39A     -0.576424
      40A     -0.571570    41A     -0.564675    42A     -0.546556
      43A     -0.540893    44A     -0.524788    45A     -0.507507
      46A     -0.500151    47A     -0.491266    48A     -0.489516
      49A     -0.475309    50A     -0.471757    51A     -0.465302
      52A     -0.417219    53A     -0.364327    54A     -0.339949
      55A     -0.329895

  @DF-RHF Final Energy:  -631.72817509892707

   => Energetics <=

    Nuclear Repulsion Energy =            999.7164197346761512
    One-Electron Energy =               -2842.6210838550832705
    Two-Electron Energy =                1211.1764890214801653
    Total Energy =                       -631.7281750989270677
  Basis Set: (AUG-CC-PVTZ AUX)
    Blend: AUG-CC-PVTZ-RI
    Molecular point group: c1

    Geometry (in Angstrom), charge = 0, multiplicity = 1:

       Center              X                  Y                   Z               Mass
    ------------   -----------------  -----------------  -----------------  -----------------
         O            0.058136560901     1.934988311857    -1.182055247205    15.994914619570
         N            1.257701560901     0.447365311857     0.086492752795    14.003074004430
         C            3.728809560901    -0.966482688143     0.434093752795    12.000000000000
         C            3.581428560901     0.153790311857    -0.596228247205    12.000000000000
         C            2.380762560901    -1.633539688143     0.710689752795    12.000000000000
         C            2.485890460901     1.185418011857    -0.193302947205    12.000000000000
         C            1.338681560901    -0.591520688143     1.107376752795    12.000000000000
         C            0.099933560901     0.913333311857    -0.482936247205    12.000000000000
         C           -1.133617439099     0.086552311857    -0.267778247205    12.000000000000
         C           -2.235187439099     0.640147311857     0.410323752795    12.000000000000
         C           -1.215071439099    -1.187168688143    -0.843733247205    12.000000000000
         C           -3.398211439099    -0.130870688143     0.514779752795    12.000000000000
         C           -2.159375439099     2.021352311857     1.007791752795    12.000000000000
         C           -2.389442439099    -1.933699688143    -0.740705247205    12.000000000000
         C           -3.483254439099    -1.403000688143    -0.056072247205    12.000000000000
         H            4.460303560901    -1.708325688143     0.093994752795     1.007825032230
         H            4.118211560901    -0.544790688143     1.371084752795     1.007825032230
         H            4.535031560901     0.676463311857    -0.738491247205     1.007825032230
         H            3.292970560901    -0.268443688143    -1.566542247205     1.007825032230
         H            2.030403560901    -2.155311688143    -0.188413247205     1.007825032230
         H            2.473953560901    -2.380695688143     1.508321752795     1.007825032230
         H            2.824082560901     1.669284311857     0.755997752795     1.007825032230
         H            2.314396560901     1.906556311857    -0.927209247205     1.007825032230
         H            0.354161560901    -1.039841688143     1.243887752795     1.007825032230
         H            1.630622560901    -0.124022688143     2.061478752795     1.007825032230
         H           -0.355968439099    -1.585544688143    -1.381204247205     1.007825032230
         H           -4.257160439099     0.277391311857     1.044917752795     1.007825032230
         H           -1.978122439099     2.766035311857     0.229011752795     1.007825032230
         H           -3.089652439099     2.267133311857     1.527052752795     1.007825032230
         H           -1.337268439099     2.098160311857     1.727541752795     1.007825032230
         H           -2.450503439099    -2.919668688143    -1.195239247205     1.007825032230
         H           -4.402717439099    -1.976763688143     0.034106752795     1.007825032230

  Basis Set: AUG-CC-PVTZ
    Blend: AUG-CC-PVTZ
  Basis Set: (AUG-CC-PVTZ AUX)
    Blend: AUG-CC-PVTZ-JKFIT
	 Reference Energy          =    -631.7281750989270677 [Eh]
	 Singles Energy            =      -0.0000000000000000 [Eh]
	 Same-Spin Energy          =      -0.6887473969562856 [Eh]
	 Opposite-Spin Energy      =      -2.2120366505300160 [Eh]
	 Correlation Energy        =      -2.9007840474863018 [Eh]
	 Total Energy              =    -634.6289591464134219 [Eh]

	 ================> DF-SCS-MP2 Energies <==================
	-----------------------------------------------------------
	 SCS Same-Spin Scale       =       0.3333333333333333 [-]
	 SCS Opposite-Spin Scale   =       1.2000000000000000 [-]
	 SCS Same-Spin Energy      =      -0.2295824656520952 [Eh]
	 SCS Opposite-Spin Energy  =      -2.6544439806360192 [Eh]
	 SCS Correlation Energy    =      -2.8840264462881144 [Eh]
	 SCS Total Energy          =    -634.6122015452151572 [Eh]
	-----------------------------------------------------------

  Dipole Moment: [D]
     X:     1.4059      Y:    -2.5289      Z:     2.3060     Total:     3.6999

*** Psi4 exiting successfully. Buy a developer a beer!
