                               Psi4 1.4a3.dev225

  ==> Input File <==

--------------------------------------------------------------------------
#psi4
#
memory 32 gb

molecule  {
0 1
  O        0.0109280     1.9504830    -1.2088660
  N        1.1387983     0.5078778     0.1162584
  C        3.6816010    -0.9509880     0.4072830
  C        3.5342200     0.1692850    -0.6230390
  C        2.3335540    -1.6180450     0.6838790
  C        2.4642000     1.1676880    -0.1911000
  C        1.2914730    -0.5760260     1.0805660
  C        0.0527250     0.9288280    -0.5097470
  C       -1.1808260     0.1020470    -0.2945890
  C       -2.2823960     0.6556420     0.3835130
  C       -1.2622800    -1.1716740    -0.8705440
  C       -3.4454200    -0.1153760     0.4879690
  C       -2.2065840     2.0368470     0.9809810
  C       -2.4366510    -1.9182050    -0.7675160
  C       -3.5304630    -1.3875060    -0.0828830
  H        4.4130950    -1.6928310     0.0671840
  H        4.0710030    -0.5292960     1.3442740
  H        4.4878230     0.6919580    -0.7653020
  H        3.2457620    -0.2529490    -1.5933530
  H        1.9831950    -2.1398170    -0.2152240
  H        2.4267450    -2.3652010     1.4815110
  H        2.7768740     1.6847790     0.7291870
  H        2.2671880     1.9220510    -0.9540200
  H        0.3069530    -1.0243470     1.2170770
  H        1.5834140    -0.1085280     2.0346680
  H       -0.4031770    -1.5700500    -1.4080150
  H       -4.3043690     0.2928860     1.0181070
  H       -2.0253310     2.7815300     0.2022010
  H       -3.1368610     2.2826280     1.5002420
  H       -1.3844770     2.1136550     1.7007310
  H       -2.4977120    -2.9041740    -1.2220500
  H       -4.4499260    -1.9612690     0.0072960
units angstrom
no_reorient  #important for SAPT in psi4, default
symmetry c1  #important for SAPT in psi4, default
}

set PROPERTIES_ORIGIN ["COM"]
properties('MP2/aug-cc-pvtz', properties = ['dipole'])
--------------------------------------------------------------------------

    Molecular point group: c1
  Charge       = 0
  Multiplicity = 1
  Basis Set: AUG-CC-PVTZ
    Blend: AUG-CC-PVTZ
  Basis Set: (AUG-CC-PVTZ AUX)
    Blend: AUG-CC-PVTZ-JKFIT

    Orbital Energies [Eh]
    ---------------------

    Doubly Occupied:

       1A    -20.501157     2A    -15.587557     3A    -11.341194
       4A    -11.270065     5A    -11.260984     6A    -11.249226
       7A    -11.244050     8A    -11.241564     9A    -11.240549
      10A    -11.237492    11A    -11.235180    12A    -11.235136
      13A    -11.231741    14A    -11.231108    15A    -11.218019
      16A     -1.365353    17A     -1.249159    18A     -1.159020
      19A     -1.091320    20A     -1.048551    21A     -1.035005
      22A     -1.023066    23A     -0.945072    24A     -0.925341
      25A     -0.868617    26A     -0.843871    27A     -0.815383
      28A     -0.794150    29A     -0.738225    30A     -0.710291
      31A     -0.664563    32A     -0.653081    33A     -0.649310
      34A     -0.629254    35A     -0.622188    36A     -0.615013
      37A     -0.597516    38A     -0.591073    39A     -0.573860
      40A     -0.570478    41A     -0.553684    42A     -0.550109
      43A     -0.540005    44A     -0.524428    45A     -0.508200
      46A     -0.501206    47A     -0.489682    48A     -0.489163
      49A     -0.479647    50A     -0.473376    51A     -0.463022
      52A     -0.411371    53A     -0.369906    54A     -0.338054
      55A     -0.327740

  @DF-RHF Final Energy:  -631.72682426789140

   => Energetics <=

    Nuclear Repulsion Energy =           1000.0890222561241671
    One-Electron Energy =               -2843.3849414003257152
    Two-Electron Energy =                1211.5690948763101460
    Total Energy =                       -631.7268242678912884
  Basis Set: (AUG-CC-PVTZ AUX)
    Blend: AUG-CC-PVTZ-RI
    Molecular point group: c1

    Geometry (in Angstrom), charge = 0, multiplicity = 1:

       Center              X                  Y                   Z               Mass
    ------------   -----------------  -----------------  -----------------  -----------------
         O            0.061571432689     1.933847712103    -1.187669396875    15.994914619570
         N            1.189441732689     0.491242512103     0.137455003125    14.003074004430
         C            3.732244432689    -0.967623287897     0.428479603125    12.000000000000
         C            3.584863432689     0.152649712103    -0.601842396875    12.000000000000
         C            2.384197432689    -1.634680287897     0.705075603125    12.000000000000
         C            2.514843432689     1.151052712103    -0.169903396875    12.000000000000
         C            1.342116432689    -0.592661287897     1.101762603125    12.000000000000
         C            0.103368432689     0.912192712103    -0.488550396875    12.000000000000
         C           -1.130182567311     0.085411712103    -0.273392396875    12.000000000000
         C           -2.231752567311     0.639006712103     0.404709603125    12.000000000000
         C           -1.211636567311    -1.188309287897    -0.849347396875    12.000000000000
         C           -3.394776567311    -0.132011287897     0.509165603125    12.000000000000
         C           -2.155940567311     2.020211712103     1.002177603125    12.000000000000
         C           -2.386007567311    -1.934840287897    -0.746319396875    12.000000000000
         C           -3.479819567311    -1.404141287897    -0.061686396875    12.000000000000
         H            4.463738432689    -1.709466287897     0.088380603125     1.007825032230
         H            4.121646432689    -0.545931287897     1.365470603125     1.007825032230
         H            4.538466432689     0.675322712103    -0.744105396875     1.007825032230
         H            3.296405432689    -0.269584287897    -1.572156396875     1.007825032230
         H            2.033838432689    -2.156452287897    -0.194027396875     1.007825032230
         H            2.477388432689    -2.381836287897     1.502707603125     1.007825032230
         H            2.827517432689     1.668143712103     0.750383603125     1.007825032230
         H            2.317831432689     1.905415712103    -0.932823396875     1.007825032230
         H            0.357596432689    -1.040982287897     1.238273603125     1.007825032230
         H            1.634057432689    -0.125163287897     2.055864603125     1.007825032230
         H           -0.352533567311    -1.586685287897    -1.386818396875     1.007825032230
         H           -4.253725567311     0.276250712103     1.039303603125     1.007825032230
         H           -1.974687567311     2.764894712103     0.223397603125     1.007825032230
         H           -3.086217567311     2.265992712103     1.521438603125     1.007825032230
         H           -1.333833567311     2.097019712103     1.721927603125     1.007825032230
         H           -2.447068567311    -2.920809287897    -1.200853396875     1.007825032230
         H           -4.399282567311    -1.977904287897     0.028492603125     1.007825032230

  Basis Set: AUG-CC-PVTZ
    Blend: AUG-CC-PVTZ
  Basis Set: (AUG-CC-PVTZ AUX)
    Blend: AUG-CC-PVTZ-JKFIT
	 Reference Energy          =    -631.7268242678914021 [Eh]
	 Singles Energy            =      -0.0000000000000000 [Eh]
	 Same-Spin Energy          =      -0.6886460940542229 [Eh]
	 Opposite-Spin Energy      =      -2.2117168880404039 [Eh]
	 Correlation Energy        =      -2.9003629820946268 [Eh]
	 Total Energy              =    -634.6271872499860365 [Eh]

	 ================> DF-SCS-MP2 Energies <==================
	-----------------------------------------------------------
	 SCS Same-Spin Scale       =       0.3333333333333333 [-]
	 SCS Opposite-Spin Scale   =       1.2000000000000000 [-]
	 SCS Same-Spin Energy      =      -0.2295486980180743 [Eh]
	 SCS Opposite-Spin Energy  =      -2.6540602656484844 [Eh]
	 SCS Correlation Energy    =      -2.8836089636665587 [Eh]
	 SCS Total Energy          =    -634.6104332315579768 [Eh]
	-----------------------------------------------------------

  Dipole Moment: [D]
     X:     1.8461      Y:    -2.6989      Z:     2.3638     Total:     4.0348

*** Psi4 exiting successfully. Buy a developer a beer!
