                               Psi4 1.4a3.dev225

  ==> Input File <==

--------------------------------------------------------------------------
#psi4
#
memory 32 gb

molecule  {
0 1
  O        0.0109280     1.9504830    -1.2088660
  N        1.2104930     0.4628600     0.0596820
  C        3.6816010    -0.9509880     0.4072830
  C        3.5342200     0.1692850    -0.6230390
  C        2.3335540    -1.6180450     0.6838790
  C        2.4642000     1.1676880    -0.1911000
  C        1.2914730    -0.5760260     1.0805660
  C        0.0527250     0.9288280    -0.5097470
  C       -1.1808260     0.1020470    -0.2945890
  C       -2.2823960     0.6556420     0.3835130
  C       -1.2622800    -1.1716740    -0.8705440
  C       -3.4454200    -0.1153760     0.4879690
  C       -2.2065840     2.0368470     0.9809810
  C       -2.4366510    -1.9182050    -0.7675160
  C       -3.5304630    -1.3875060    -0.0828830
  H        4.4130950    -1.6928310     0.0671840
  H        4.0710030    -0.5292960     1.3442740
  H        4.4878230     0.6919580    -0.7653020
  H        3.2457620    -0.2529490    -1.5933530
  H        1.9831950    -2.1398170    -0.2152240
  H        2.4267450    -2.3652010     1.4815110
  H        2.7768740     1.6847790     0.7291870
  H        2.2671880     1.9220510    -0.9540200
  H        0.3069530    -1.0243470     1.2170770
  H        1.5834140    -0.1085280     2.0346680
  H       -0.4031770    -1.5700500    -1.4080150
  H       -4.3043690     0.2928860     1.0181070
  H       -2.0093941     2.7868446     0.2112256
  H       -3.1368610     2.2826280     1.5002420
  H       -1.3844770     2.1136550     1.7007310
  H       -2.4977120    -2.9041740    -1.2220500
  H       -4.4499260    -1.9612690     0.0072960
units angstrom
no_reorient  #important for SAPT in psi4, default
symmetry c1  #important for SAPT in psi4, default
}

set PROPERTIES_ORIGIN ["COM"]
properties('MP2/aug-cc-pvtz', properties = ['dipole'])
--------------------------------------------------------------------------

    Molecular point group: c1
  Charge       = 0
  Multiplicity = 1
  Basis Set: AUG-CC-PVTZ
    Blend: AUG-CC-PVTZ
  Basis Set: (AUG-CC-PVTZ AUX)
    Blend: AUG-CC-PVTZ-JKFIT

    Orbital Energies [Eh]
    ---------------------

    Doubly Occupied:

       1A    -20.510838     2A    -15.583947     3A    -11.349513
       4A    -11.267089     5A    -11.254667     6A    -11.251957
       7A    -11.246369     8A    -11.245051     9A    -11.242681
      10A    -11.239172    11A    -11.237045    12A    -11.230651
      13A    -11.228339    14A    -11.225702    15A    -11.220291
      16A     -1.367059    17A     -1.249631    18A     -1.161450
      19A     -1.083633    20A     -1.050767    21A     -1.037319
      22A     -1.023211    23A     -0.943187    24A     -0.918857
      25A     -0.867471    26A     -0.844158    27A     -0.815351
      28A     -0.791075    29A     -0.742738    30A     -0.712427
      31A     -0.666870    32A     -0.652954    33A     -0.648449
      34A     -0.627890    35A     -0.620464    36A     -0.615369
      37A     -0.596356    38A     -0.588013    39A     -0.575804
      40A     -0.570558    41A     -0.560276    42A     -0.547433
      43A     -0.542239    44A     -0.524883    45A     -0.508330
      46A     -0.502060    47A     -0.491393    48A     -0.489402
      49A     -0.478579    50A     -0.469647    51A     -0.461577
      52A     -0.417007    53A     -0.366265    54A     -0.340024
      55A     -0.329956

  @DF-RHF Final Energy:  -631.73064402160526

   => Energetics <=

    Nuclear Repulsion Energy =            999.9743514185212234
    One-Electron Energy =               -2843.1431071870447340
    Two-Electron Energy =                1211.4381117469183664
    Total Energy =                       -631.7306440216052579
  Basis Set: (AUG-CC-PVTZ AUX)
    Blend: AUG-CC-PVTZ-RI
    Molecular point group: c1

    Geometry (in Angstrom), charge = 0, multiplicity = 1:

       Center              X                  Y                   Z               Mass
    ------------   -----------------  -----------------  -----------------  -----------------
         O            0.056550004519     1.936924698650    -1.183814011711    15.994914619570
         N            1.256115004519     0.449301698650     0.084733988289    14.003074004430
         C            3.727223004519    -0.964546301350     0.432334988289    12.000000000000
         C            3.579842004519     0.155726698650    -0.597987011711    12.000000000000
         C            2.379176004519    -1.631603301350     0.708930988289    12.000000000000
         C            2.509822004519     1.154129698650    -0.166048011711    12.000000000000
         C            1.337095004519    -0.589584301350     1.105617988289    12.000000000000
         C            0.098347004519     0.915269698650    -0.484695011711    12.000000000000
         C           -1.135203995481     0.088488698650    -0.269537011711    12.000000000000
         C           -2.236773995481     0.642083698650     0.408564988289    12.000000000000
         C           -1.216657995481    -1.185232301350    -0.845492011711    12.000000000000
         C           -3.399797995481    -0.128934301350     0.513020988289    12.000000000000
         C           -2.160961995481     2.023288698650     1.006032988289    12.000000000000
         C           -2.391028995481    -1.931763301350    -0.742464011711    12.000000000000
         C           -3.484840995481    -1.401064301350    -0.057831011711    12.000000000000
         H            4.458717004519    -1.706389301350     0.092235988289     1.007825032230
         H            4.116625004519    -0.542854301350     1.369325988289     1.007825032230
         H            4.533445004519     0.678399698650    -0.740250011711     1.007825032230
         H            3.291384004519    -0.266507301350    -1.568301011711     1.007825032230
         H            2.028817004519    -2.153375301350    -0.190172011711     1.007825032230
         H            2.472367004519    -2.378759301350     1.506562988289     1.007825032230
         H            2.822496004519     1.671220698650     0.754238988289     1.007825032230
         H            2.312810004519     1.908492698650    -0.928968011711     1.007825032230
         H            0.352575004519    -1.037905301350     1.242128988289     1.007825032230
         H            1.629036004519    -0.122086301350     2.059719988289     1.007825032230
         H           -0.357554995481    -1.583608301350    -1.382963011711     1.007825032230
         H           -4.258746995481     0.279327698650     1.043158988289     1.007825032230
         H           -1.963772095481     2.773286298650     0.236277588289     1.007825032230
         H           -3.091238995481     2.269069698650     1.525293988289     1.007825032230
         H           -1.338854995481     2.100096698650     1.725782988289     1.007825032230
         H           -2.452089995481    -2.917732301350    -1.196998011711     1.007825032230
         H           -4.404303995481    -1.974827301350     0.032347988289     1.007825032230

  Basis Set: AUG-CC-PVTZ
    Blend: AUG-CC-PVTZ
  Basis Set: (AUG-CC-PVTZ AUX)
    Blend: AUG-CC-PVTZ-JKFIT
	 Reference Energy          =    -631.7306440216052579 [Eh]
	 Singles Energy            =      -0.0000000000000000 [Eh]
	 Same-Spin Energy          =      -0.6890255778892500 [Eh]
	 Opposite-Spin Energy      =      -2.2122598233777353 [Eh]
	 Correlation Energy        =      -2.9012854012669855 [Eh]
	 Total Energy              =    -634.6319294228721901 [Eh]

	 ================> DF-SCS-MP2 Energies <==================
	-----------------------------------------------------------
	 SCS Same-Spin Scale       =       0.3333333333333333 [-]
	 SCS Opposite-Spin Scale   =       1.2000000000000000 [-]
	 SCS Same-Spin Energy      =      -0.2296751926297500 [Eh]
	 SCS Opposite-Spin Energy  =      -2.6547117880532825 [Eh]
	 SCS Correlation Energy    =      -2.8843869806830322 [Eh]
	 SCS Total Energy          =    -634.6150310022883332 [Eh]
	-----------------------------------------------------------

  Dipole Moment: [D]
     X:     1.4121      Y:    -2.5204      Z:     2.3051     Total:     3.6959

*** Psi4 exiting successfully. Buy a developer a beer!
