                               Psi4 1.4a3.dev225

  ==> Input File <==

--------------------------------------------------------------------------
#psi4
#
memory 32 gb

molecule  {
0 1
  O        0.0109280     1.9504830    -1.2088660
  N        1.2104930     0.4628600     0.0596820
  C        3.6816010    -0.9509880     0.4072830
  C        3.5342200     0.1692850    -0.6230390
  C        2.3335540    -1.6180450     0.6838790
  C        2.4642000     1.1676880    -0.1911000
  C        1.2914730    -0.5760260     1.0805660
  C        0.0527250     0.9288280    -0.5097470
  C       -1.1808260     0.1020470    -0.2945890
  C       -2.2823960     0.6556420     0.3835130
  C       -1.2622800    -1.1716740    -0.8705440
  C       -3.4454200    -0.1153760     0.4879690
  C       -2.2075903     2.0185140     0.9730507
  C       -2.4366510    -1.9182050    -0.7675160
  C       -3.5304630    -1.3875060    -0.0828830
  H        4.4130950    -1.6928310     0.0671840
  H        4.0710030    -0.5292960     1.3442740
  H        4.4878230     0.6919580    -0.7653020
  H        3.2457620    -0.2529490    -1.5933530
  H        1.9831950    -2.1398170    -0.2152240
  H        2.4267450    -2.3652010     1.4815110
  H        2.7768740     1.6847790     0.7291870
  H        2.2671880     1.9220510    -0.9540200
  H        0.3069530    -1.0243470     1.2170770
  H        1.5834140    -0.1085280     2.0346680
  H       -0.4031770    -1.5700500    -1.4080150
  H       -4.3043690     0.2928860     1.0181070
  H       -2.0253310     2.7815300     0.2022010
  H       -3.1368610     2.2826280     1.5002420
  H       -1.3844770     2.1136550     1.7007310
  H       -2.4977120    -2.9041740    -1.2220500
  H       -4.4499260    -1.9612690     0.0072960
units angstrom
no_reorient  #important for SAPT in psi4, default
symmetry c1  #important for SAPT in psi4, default
}

set PROPERTIES_ORIGIN ["COM"]
properties('MP2/aug-cc-pvtz', properties = ['dipole'])
--------------------------------------------------------------------------

    Molecular point group: c1
  Charge       = 0
  Multiplicity = 1
  Basis Set: AUG-CC-PVTZ
    Blend: AUG-CC-PVTZ
  Basis Set: (AUG-CC-PVTZ AUX)
    Blend: AUG-CC-PVTZ-JKFIT

    Orbital Energies [Eh]
    ---------------------

    Doubly Occupied:

       1A    -20.510774     2A    -15.583913     3A    -11.349498
       4A    -11.267077     5A    -11.254635     6A    -11.251045
       7A    -11.246402     8A    -11.245051     9A    -11.242689
      10A    -11.239188    11A    -11.236980    12A    -11.230640
      13A    -11.228325    14A    -11.225682    15A    -11.220869
      16A     -1.367008    17A     -1.249596    18A     -1.162175
      19A     -1.083619    20A     -1.052821    21A     -1.037493
      22A     -1.023258    23A     -0.943060    24A     -0.918533
      25A     -0.867446    26A     -0.844324    27A     -0.815139
      28A     -0.790950    29A     -0.742722    30A     -0.712434
      31A     -0.667408    32A     -0.653261    33A     -0.648536
      34A     -0.627991    35A     -0.620707    36A     -0.615432
      37A     -0.596468    38A     -0.588037    39A     -0.577531
      40A     -0.570395    41A     -0.560505    42A     -0.547344
      43A     -0.539434    44A     -0.524358    45A     -0.507754
      46A     -0.502560    47A     -0.491814    48A     -0.489460
      49A     -0.478560    50A     -0.469634    51A     -0.461533
      52A     -0.416898    53A     -0.366202    54A     -0.340058
      55A     -0.329509

  @DF-RHF Final Energy:  -631.72998594460171

   => Energetics <=

    Nuclear Repulsion Energy =           1000.3551352689730720
    One-Electron Energy =               -2843.9007662306262318
    Two-Electron Energy =                1211.8156450170515654
    Total Energy =                       -631.7299859446015944
  Basis Set: (AUG-CC-PVTZ AUX)
    Blend: AUG-CC-PVTZ-RI
    Molecular point group: c1

    Geometry (in Angstrom), charge = 0, multiplicity = 1:

       Center              X                  Y                   Z               Mass
    ------------   -----------------  -----------------  -----------------  -----------------
         O            0.056688522051     1.938034091954    -1.183300752728    15.994914619570
         N            1.256253522051     0.450411091954     0.085247247272    14.003074004430
         C            3.727361522051    -0.963436908046     0.432848247272    12.000000000000
         C            3.579980522051     0.156836091954    -0.597473752728    12.000000000000
         C            2.379314522051    -1.630493908046     0.709444247272    12.000000000000
         C            2.509960522051     1.155239091954    -0.165534752728    12.000000000000
         C            1.337233522051    -0.588474908046     1.106131247272    12.000000000000
         C            0.098485522051     0.916379091954    -0.484181752728    12.000000000000
         C           -1.135065477949     0.089598091954    -0.269023752728    12.000000000000
         C           -2.236635477949     0.643193091954     0.409078247272    12.000000000000
         C           -1.216519477949    -1.184122908046    -0.844978752728    12.000000000000
         C           -3.399659477949    -0.127824908046     0.513534247272    12.000000000000
         C           -2.161829777949     2.006065091954     0.998615947272    12.000000000000
         C           -2.390890477949    -1.930653908046    -0.741950752728    12.000000000000
         C           -3.484702477949    -1.399954908046    -0.057317752728    12.000000000000
         H            4.458855522051    -1.705279908046     0.092749247272     1.007825032230
         H            4.116763522051    -0.541744908046     1.369839247272     1.007825032230
         H            4.533583522051     0.679509091954    -0.739736752728     1.007825032230
         H            3.291522522051    -0.265397908046    -1.567787752728     1.007825032230
         H            2.028955522051    -2.152265908046    -0.189658752728     1.007825032230
         H            2.472505522051    -2.377649908046     1.507076247272     1.007825032230
         H            2.822634522051     1.672330091954     0.754752247272     1.007825032230
         H            2.312948522051     1.909602091954    -0.928454752728     1.007825032230
         H            0.352713522051    -1.036795908046     1.242642247272     1.007825032230
         H            1.629174522051    -0.120976908046     2.060233247272     1.007825032230
         H           -0.357416477949    -1.582498908046    -1.382449752728     1.007825032230
         H           -4.258608477949     0.280437091954     1.043672247272     1.007825032230
         H           -1.979570477949     2.769081091954     0.227766247272     1.007825032230
         H           -3.091100477949     2.270179091954     1.525807247272     1.007825032230
         H           -1.338716477949     2.101206091954     1.726296247272     1.007825032230
         H           -2.451951477949    -2.916622908046    -1.196484752728     1.007825032230
         H           -4.404165477949    -1.973717908046     0.032861247272     1.007825032230

  Basis Set: AUG-CC-PVTZ
    Blend: AUG-CC-PVTZ
  Basis Set: (AUG-CC-PVTZ AUX)
    Blend: AUG-CC-PVTZ-JKFIT
	 Reference Energy          =    -631.7299859446017081 [Eh]
	 Singles Energy            =      -0.0000000000000000 [Eh]
	 Same-Spin Energy          =      -0.6892265693535244 [Eh]
	 Opposite-Spin Energy      =      -2.2124655199001646 [Eh]
	 Correlation Energy        =      -2.9016920892536890 [Eh]
	 Total Energy              =    -634.6316780338554508 [Eh]

	 ================> DF-SCS-MP2 Energies <==================
	-----------------------------------------------------------
	 SCS Same-Spin Scale       =       0.3333333333333333 [-]
	 SCS Opposite-Spin Scale   =       1.2000000000000000 [-]
	 SCS Same-Spin Energy      =      -0.2297421897845081 [Eh]
	 SCS Opposite-Spin Energy  =      -2.6549586238801974 [Eh]
	 SCS Correlation Energy    =      -2.8847008136647054 [Eh]
	 SCS Total Energy          =    -634.6146867582664299 [Eh]
	-----------------------------------------------------------

  Dipole Moment: [D]
     X:     1.4070      Y:    -2.5134      Z:     2.3038     Total:     3.6884

*** Psi4 exiting successfully. Buy a developer a beer!
