                               Psi4 1.4a3.dev225

  ==> Input File <==

--------------------------------------------------------------------------
#psi4
#
memory 32 gb

molecule  {
0 1
  O        0.0109280     1.9504830    -1.2088660
  N        1.2104930     0.4628600     0.0596820
  C        3.6816010    -0.9509880     0.4072830
  C        3.5342200     0.1692850    -0.6230390
  C        2.3335540    -1.6180450     0.6838790
  C        2.4642000     1.1676880    -0.1911000
  C        1.2914730    -0.5760260     1.0805660
  C        0.0527250     0.9288280    -0.5097470
  C       -1.2640489    -0.0175306    -0.3161683
  C       -2.2823960     0.6556420     0.3835130
  C       -1.2622800    -1.1716740    -0.8705440
  C       -3.4454200    -0.1153760     0.4879690
  C       -2.2065840     2.0368470     0.9809810
  C       -2.4366510    -1.9182050    -0.7675160
  C       -3.5304630    -1.3875060    -0.0828830
  H        4.4130950    -1.6928310     0.0671840
  H        4.0710030    -0.5292960     1.3442740
  H        4.4878230     0.6919580    -0.7653020
  H        3.2457620    -0.2529490    -1.5933530
  H        1.9831950    -2.1398170    -0.2152240
  H        2.4267450    -2.3652010     1.4815110
  H        2.7768740     1.6847790     0.7291870
  H        2.2671880     1.9220510    -0.9540200
  H        0.3069530    -1.0243470     1.2170770
  H        1.5834140    -0.1085280     2.0346680
  H       -0.4031770    -1.5700500    -1.4080150
  H       -4.3043690     0.2928860     1.0181070
  H       -2.0253310     2.7815300     0.2022010
  H       -3.1368610     2.2826280     1.5002420
  H       -1.3844770     2.1136550     1.7007310
  H       -2.4977120    -2.9041740    -1.2220500
  H       -4.4499260    -1.9612690     0.0072960
units angstrom
no_reorient  #important for SAPT in psi4, default
symmetry c1  #important for SAPT in psi4, default
}

set PROPERTIES_ORIGIN ["COM"]
properties('MP2/aug-cc-pvtz', properties = ['dipole'])
--------------------------------------------------------------------------

    Molecular point group: c1
  Charge       = 0
  Multiplicity = 1
  Basis Set: AUG-CC-PVTZ
    Blend: AUG-CC-PVTZ
  Basis Set: (AUG-CC-PVTZ AUX)
    Blend: AUG-CC-PVTZ-JKFIT

    Orbital Energies [Eh]
    ---------------------

    Doubly Occupied:

       1A    -20.511312     2A    -15.582694     3A    -11.350844
       4A    -11.266963     5A    -11.253888     6A    -11.250319
       7A    -11.241706     8A    -11.239205     9A    -11.237979
      10A    -11.235631    11A    -11.230524    12A    -11.229520
      13A    -11.228150    14A    -11.225362    15A    -11.224416
      16A     -1.362976    17A     -1.247723    18A     -1.174361
      19A     -1.081924    20A     -1.053180    21A     -1.037911
      22A     -1.026044    23A     -0.940737    24A     -0.918872
      25A     -0.864823    26A     -0.832277    27A     -0.820692
      28A     -0.794606    29A     -0.740890    30A     -0.708480
      31A     -0.662006    32A     -0.653002    33A     -0.645769
      34A     -0.626128    35A     -0.624300    36A     -0.614632
      37A     -0.595009    38A     -0.586341    39A     -0.576808
      40A     -0.573264    41A     -0.559816    42A     -0.548936
      43A     -0.542433    44A     -0.523151    45A     -0.507497
      46A     -0.504235    47A     -0.499248    48A     -0.491102
      49A     -0.479313    50A     -0.469275    51A     -0.461148
      52A     -0.399040    53A     -0.365675    54A     -0.353589
      55A     -0.326021

  @DF-RHF Final Energy:  -631.70671569686874

   => Energetics <=

    Nuclear Repulsion Energy =            999.7356520802560453
    One-Electron Energy =               -2842.6812354185558434
    Two-Electron Energy =                1211.2388676414311703
    Total Energy =                       -631.7067156968687414
  Basis Set: (AUG-CC-PVTZ AUX)
    Blend: AUG-CC-PVTZ-RI
    Molecular point group: c1

    Geometry (in Angstrom), charge = 0, multiplicity = 1:

       Center              X                  Y                   Z               Mass
    ------------   -----------------  -----------------  -----------------  -----------------
         O            0.061545481999     1.944015134312    -1.182494435679    15.994914619570
         N            1.261110481999     0.456392134312     0.086053564321    14.003074004430
         C            3.732218481999    -0.957455865688     0.433654564321    12.000000000000
         C            3.584837481999     0.162817134312    -0.596667435679    12.000000000000
         C            2.384171481999    -1.624512865688     0.710250564321    12.000000000000
         C            2.514817481999     1.161220134312    -0.164728435679    12.000000000000
         C            1.342090481999    -0.582493865688     1.106937564321    12.000000000000
         C            0.103342481999     0.922360134312    -0.483375435679    12.000000000000
         C           -1.213431418001    -0.023998465688    -0.289796735679    12.000000000000
         C           -2.231778518001     0.649174134312     0.409884564321    12.000000000000
         C           -1.211662518001    -1.178141865688    -0.844172435679    12.000000000000
         C           -3.394802518001    -0.121843865688     0.514340564321    12.000000000000
         C           -2.155966518001     2.030379134312     1.007352564321    12.000000000000
         C           -2.386033518001    -1.924672865688    -0.741144435679    12.000000000000
         C           -3.479845518001    -1.393973865688    -0.056511435679    12.000000000000
         H            4.463712481999    -1.699298865688     0.093555564321     1.007825032230
         H            4.121620481999    -0.535763865688     1.370645564321     1.007825032230
         H            4.538440481999     0.685490134312    -0.738930435679     1.007825032230
         H            3.296379481999    -0.259416865688    -1.566981435679     1.007825032230
         H            2.033812481999    -2.146284865688    -0.188852435679     1.007825032230
         H            2.477362481999    -2.371668865688     1.507882564321     1.007825032230
         H            2.827491481999     1.678311134312     0.755558564321     1.007825032230
         H            2.317805481999     1.915583134312    -0.927648435679     1.007825032230
         H            0.357570481999    -1.030814865688     1.243448564321     1.007825032230
         H            1.634031481999    -0.114995865688     2.061039564321     1.007825032230
         H           -0.352559518001    -1.576517865688    -1.381643435679     1.007825032230
         H           -4.253751518001     0.286418134312     1.044478564321     1.007825032230
         H           -1.974713518001     2.775062134312     0.228572564321     1.007825032230
         H           -3.086243518001     2.276160134312     1.526613564321     1.007825032230
         H           -1.333859518001     2.107187134312     1.727102564321     1.007825032230
         H           -2.447094518001    -2.910641865688    -1.195678435679     1.007825032230
         H           -4.399308518001    -1.967736865688     0.033667564321     1.007825032230

  Basis Set: AUG-CC-PVTZ
    Blend: AUG-CC-PVTZ
  Basis Set: (AUG-CC-PVTZ AUX)
    Blend: AUG-CC-PVTZ-JKFIT
	 Reference Energy          =    -631.7067156968687414 [Eh]
	 Singles Energy            =      -0.0000000000000000 [Eh]
	 Same-Spin Energy          =      -0.6884957696329913 [Eh]
	 Opposite-Spin Energy      =      -2.2118390813824833 [Eh]
	 Correlation Energy        =      -2.9003348510154745 [Eh]
	 Total Energy              =    -634.6070505478842279 [Eh]

	 ================> DF-SCS-MP2 Energies <==================
	-----------------------------------------------------------
	 SCS Same-Spin Scale       =       0.3333333333333333 [-]
	 SCS Opposite-Spin Scale   =       1.2000000000000000 [-]
	 SCS Same-Spin Energy      =      -0.2294985898776638 [Eh]
	 SCS Opposite-Spin Energy  =      -2.6542068976589799 [Eh]
	 SCS Correlation Energy    =      -2.8837054875366435 [Eh]
	 SCS Total Energy          =    -634.5904211844053862 [Eh]
	-----------------------------------------------------------

  Dipole Moment: [D]
     X:     1.4561      Y:    -2.4150      Z:     2.2918     Total:     3.6339

*** Psi4 exiting successfully. Buy a developer a beer!
