                               Psi4 1.4a3.dev225

  ==> Input File <==

--------------------------------------------------------------------------
#psi4
#
memory 32 gb

molecule  {
0 1
  O        0.0109280     1.9504830    -1.2088660
  N        1.2104930     0.4628600     0.0596820
  C        3.6816010    -0.9509880     0.4072830
  C        3.5342200     0.1692850    -0.6230390
  C        2.3335540    -1.6180450     0.6838790
  C        2.4642000     1.1676880    -0.1911000
  C        1.2914730    -0.5760260     1.0805660
  C        0.0527250     0.9288280    -0.5097470
  C       -1.1808260     0.1020470    -0.2945890
  C       -2.2823960     0.6556420     0.3835130
  C       -1.2622800    -1.1716740    -0.8705440
  C       -3.4454200    -0.1153760     0.4879690
  C       -2.2090997     1.9910146     0.9611553
  C       -2.4366510    -1.9182050    -0.7675160
  C       -3.5304630    -1.3875060    -0.0828830
  H        4.4130950    -1.6928310     0.0671840
  H        4.0710030    -0.5292960     1.3442740
  H        4.4878230     0.6919580    -0.7653020
  H        3.2457620    -0.2529490    -1.5933530
  H        1.9831950    -2.1398170    -0.2152240
  H        2.4267450    -2.3652010     1.4815110
  H        2.7768740     1.6847790     0.7291870
  H        2.2671880     1.9220510    -0.9540200
  H        0.3069530    -1.0243470     1.2170770
  H        1.5834140    -0.1085280     2.0346680
  H       -0.4031770    -1.5700500    -1.4080150
  H       -4.3043690     0.2928860     1.0181070
  H       -2.0253310     2.7815300     0.2022010
  H       -3.1368610     2.2826280     1.5002420
  H       -1.3844770     2.1136550     1.7007310
  H       -2.4977120    -2.9041740    -1.2220500
  H       -4.4499260    -1.9612690     0.0072960
units angstrom
no_reorient  #important for SAPT in psi4, default
symmetry c1  #important for SAPT in psi4, default
}

set PROPERTIES_ORIGIN ["COM"]
properties('MP2/aug-cc-pvtz', properties = ['dipole'])
--------------------------------------------------------------------------

    Molecular point group: c1
  Charge       = 0
  Multiplicity = 1
  Basis Set: AUG-CC-PVTZ
    Blend: AUG-CC-PVTZ
  Basis Set: (AUG-CC-PVTZ AUX)
    Blend: AUG-CC-PVTZ-JKFIT

    Orbital Energies [Eh]
    ---------------------

    Doubly Occupied:

       1A    -20.510749     2A    -15.583921     3A    -11.349548
       4A    -11.267081     5A    -11.254633     6A    -11.249715
       7A    -11.246489     8A    -11.245097     9A    -11.242749
      10A    -11.239257    11A    -11.236986    12A    -11.230646
      13A    -11.228328    14A    -11.225684    15A    -11.221876
      16A     -1.367017    17A     -1.249596    18A     -1.163429
      19A     -1.083631    20A     -1.056135    21A     -1.037742
      22A     -1.023368    23A     -0.942981    24A     -0.918113
      25A     -0.867456    26A     -0.844655    27A     -0.814845
      28A     -0.790840    29A     -0.742766    30A     -0.712533
      31A     -0.668512    32A     -0.653852    33A     -0.648858
      34A     -0.628248    35A     -0.621176    36A     -0.615662
      37A     -0.596694    38A     -0.588022    39A     -0.580788
      40A     -0.568405    41A     -0.560769    42A     -0.547265
      43A     -0.536645    44A     -0.523794    45A     -0.506744
      46A     -0.503251    47A     -0.492492    48A     -0.488431
      49A     -0.478490    50A     -0.469636    51A     -0.461489
      52A     -0.416813    53A     -0.366158    54A     -0.340150
      55A     -0.328642

  @DF-RHF Final Energy:  -631.72735192218897

   => Energetics <=

    Nuclear Repulsion Energy =           1000.9389767497696084
    One-Electron Energy =               -2845.0549528694873516
    Two-Electron Energy =                1212.3886241975287703
    Total Energy =                       -631.7273519221889728
  Basis Set: (AUG-CC-PVTZ AUX)
    Blend: AUG-CC-PVTZ-RI
    Molecular point group: c1

    Geometry (in Angstrom), charge = 0, multiplicity = 1:

       Center              X                  Y                   Z               Mass
    ------------   -----------------  -----------------  -----------------  -----------------
         O            0.056777690119     1.939658623793    -1.182598029904    15.994914619570
         N            1.256342690119     0.452035623793     0.085949970096    14.003074004430
         C            3.727450690119    -0.961812376207     0.433550970096    12.000000000000
         C            3.580069690119     0.158460623793    -0.596771029904    12.000000000000
         C            2.379403690119    -1.628869376207     0.710146970096    12.000000000000
         C            2.510049690119     1.156863623793    -0.164832029904    12.000000000000
         C            1.337322690119    -0.586850376207     1.106833970096    12.000000000000
         C            0.098574690119     0.918003623793    -0.483479029904    12.000000000000
         C           -1.134976309881     0.091222623793    -0.268321029904    12.000000000000
         C           -2.236546309881     0.644817623793     0.409780970096    12.000000000000
         C           -1.216430309881    -1.182498376207    -0.844276029904    12.000000000000
         C           -3.399570309881    -0.126200376207     0.514236970096    12.000000000000
         C           -2.163250009881     1.980190223793     0.987423270096    12.000000000000
         C           -2.390801309881    -1.929029376207    -0.741248029904    12.000000000000
         C           -3.484613309881    -1.398330376207    -0.056615029904    12.000000000000
         H            4.458944690119    -1.703655376207     0.093451970096     1.007825032230
         H            4.116852690119    -0.540120376207     1.370541970096     1.007825032230
         H            4.533672690119     0.681133623793    -0.739034029904     1.007825032230
         H            3.291611690119    -0.263773376207    -1.567085029904     1.007825032230
         H            2.029044690119    -2.150641376207    -0.188956029904     1.007825032230
         H            2.472594690119    -2.376025376207     1.507778970096     1.007825032230
         H            2.822723690119     1.673954623793     0.755454970096     1.007825032230
         H            2.313037690119     1.911226623793    -0.927752029904     1.007825032230
         H            0.352802690119    -1.035171376207     1.243344970096     1.007825032230
         H            1.629263690119    -0.119352376207     2.060935970096     1.007825032230
         H           -0.357327309881    -1.580874376207    -1.381747029904     1.007825032230
         H           -4.258519309881     0.282061623793     1.044374970096     1.007825032230
         H           -1.979481309881     2.770705623793     0.228468970096     1.007825032230
         H           -3.091011309881     2.271803623793     1.526509970096     1.007825032230
         H           -1.338627309881     2.102830623793     1.726998970096     1.007825032230
         H           -2.451862309881    -2.914998376207    -1.195782029904     1.007825032230
         H           -4.404076309881    -1.972093376207     0.033563970096     1.007825032230

  Basis Set: AUG-CC-PVTZ
    Blend: AUG-CC-PVTZ
  Basis Set: (AUG-CC-PVTZ AUX)
    Blend: AUG-CC-PVTZ-JKFIT
	 Reference Energy          =    -631.7273519221889728 [Eh]
	 Singles Energy            =      -0.0000000000000000 [Eh]
	 Same-Spin Energy          =      -0.6896068816993506 [Eh]
	 Opposite-Spin Energy      =      -2.2128757481778512 [Eh]
	 Correlation Energy        =      -2.9024826298772020 [Eh]
	 Total Energy              =    -634.6298345520661996 [Eh]

	 ================> DF-SCS-MP2 Energies <==================
	-----------------------------------------------------------
	 SCS Same-Spin Scale       =       0.3333333333333333 [-]
	 SCS Opposite-Spin Scale   =       1.2000000000000000 [-]
	 SCS Same-Spin Energy      =      -0.2298689605664502 [Eh]
	 SCS Opposite-Spin Energy  =      -2.6554508978134215 [Eh]
	 SCS Correlation Energy    =      -2.8853198583798716 [Eh]
	 SCS Total Energy          =    -634.6126717805688031 [Eh]
	-----------------------------------------------------------

  Dipole Moment: [D]
     X:     1.4108      Y:    -2.5040      Z:     2.3030     Total:     3.6830

*** Psi4 exiting successfully. Buy a developer a beer!
