                               Psi4 1.4a3.dev225

  ==> Input File <==

--------------------------------------------------------------------------
#psi4
#
memory 32 gb

molecule  {
0 1
  O        0.0109280     1.9504830    -1.2088660
  N        1.2104930     0.4628600     0.0596820
  C        3.6816010    -0.9509880     0.4072830
  C        3.5342200     0.1692850    -0.6230390
  C        2.3335540    -1.6180450     0.6838790
  C        2.4642000     1.1676880    -0.1911000
  C        1.2914730    -0.5760260     1.0805660
  C        0.0746001     0.8881184    -0.5343908
  C       -1.1808260     0.1020470    -0.2945890
  C       -2.2823960     0.6556420     0.3835130
  C       -1.2622800    -1.1716740    -0.8705440
  C       -3.4454200    -0.1153760     0.4879690
  C       -2.2065840     2.0368470     0.9809810
  C       -2.4366510    -1.9182050    -0.7675160
  C       -3.5304630    -1.3875060    -0.0828830
  H        4.4130950    -1.6928310     0.0671840
  H        4.0710030    -0.5292960     1.3442740
  H        4.4878230     0.6919580    -0.7653020
  H        3.2457620    -0.2529490    -1.5933530
  H        1.9831950    -2.1398170    -0.2152240
  H        2.4267450    -2.3652010     1.4815110
  H        2.7768740     1.6847790     0.7291870
  H        2.2671880     1.9220510    -0.9540200
  H        0.3069530    -1.0243470     1.2170770
  H        1.5834140    -0.1085280     2.0346680
  H       -0.4031770    -1.5700500    -1.4080150
  H       -4.3043690     0.2928860     1.0181070
  H       -2.0253310     2.7815300     0.2022010
  H       -3.1368610     2.2826280     1.5002420
  H       -1.3844770     2.1136550     1.7007310
  H       -2.4977120    -2.9041740    -1.2220500
  H       -4.4499260    -1.9612690     0.0072960
units angstrom
no_reorient  #important for SAPT in psi4, default
symmetry c1  #important for SAPT in psi4, default
}

set PROPERTIES_ORIGIN ["COM"]
properties('MP2/aug-cc-pvtz', properties = ['dipole'])
--------------------------------------------------------------------------

    Molecular point group: c1
  Charge       = 0
  Multiplicity = 1
  Basis Set: AUG-CC-PVTZ
    Blend: AUG-CC-PVTZ
  Basis Set: (AUG-CC-PVTZ AUX)
    Blend: AUG-CC-PVTZ-JKFIT

    Orbital Energies [Eh]
    ---------------------

    Doubly Occupied:

       1A    -20.504944     2A    -15.588384     3A    -11.348762
       4A    -11.269508     5A    -11.256706     6A    -11.252223
       7A    -11.245930     8A    -11.244670     9A    -11.242373
      10A    -11.238645    11A    -11.236958    12A    -11.232292
      13A    -11.229804    14A    -11.227253    15A    -11.218931
      16A     -1.355673    17A     -1.251839    18A     -1.161006
      19A     -1.086580    20A     -1.049765    21A     -1.039066
      22A     -1.024165    23A     -0.943838    24A     -0.922129
      25A     -0.869380    26A     -0.843542    27A     -0.816592
      28A     -0.793371    29A     -0.743590    30A     -0.712799
      31A     -0.665563    32A     -0.653271    33A     -0.649061
      34A     -0.629498    35A     -0.621541    36A     -0.614332
      37A     -0.595424    38A     -0.588245    39A     -0.575342
      40A     -0.570860    41A     -0.559927    42A     -0.548274
      43A     -0.538378    44A     -0.523218    45A     -0.507767
      46A     -0.501971    47A     -0.491760    48A     -0.489957
      49A     -0.477058    50A     -0.470819    51A     -0.463192
      52A     -0.413927    53A     -0.366985    54A     -0.339672
      55A     -0.329350

  @DF-RHF Final Energy:  -631.72786795137426

   => Energetics <=

    Nuclear Repulsion Energy =           1000.0452225739120422
    One-Electron Energy =               -2843.2739648602228044
    Two-Electron Energy =                1211.5008743349364977
    Total Energy =                       -631.7278679513742645
  Basis Set: (AUG-CC-PVTZ AUX)
    Blend: AUG-CC-PVTZ-RI
    Molecular point group: c1

    Geometry (in Angstrom), charge = 0, multiplicity = 1:

       Center              X                  Y                   Z               Mass
    ------------   -----------------  -----------------  -----------------  -----------------
         O            0.055336799366     1.939355993492    -1.182313399808    15.994914619570
         N            1.254901799366     0.451732993492     0.086234600192    14.003074004430
         C            3.726009799366    -0.962115006508     0.433835600192    12.000000000000
         C            3.578628799366     0.158157993492    -0.596486399808    12.000000000000
         C            2.377962799366    -1.629172006508     0.710431600192    12.000000000000
         C            2.508608799366     1.156560993492    -0.164547399808    12.000000000000
         C            1.335881799366    -0.587153006508     1.107118600192    12.000000000000
         C            0.119008899366     0.876991393492    -0.507838199808    12.000000000000
         C           -1.136417200634     0.090919993492    -0.268036399808    12.000000000000
         C           -2.237987200634     0.644514993492     0.410065600192    12.000000000000
         C           -1.217871200634    -1.182801006508    -0.843991399808    12.000000000000
         C           -3.401011200634    -0.126503006508     0.514521600192    12.000000000000
         C           -2.162175200634     2.025719993492     1.007533600192    12.000000000000
         C           -2.392242200634    -1.929332006508    -0.740963399808    12.000000000000
         C           -3.486054200634    -1.398633006508    -0.056330399808    12.000000000000
         H            4.457503799366    -1.703958006508     0.093736600192     1.007825032230
         H            4.115411799366    -0.540423006508     1.370826600192     1.007825032230
         H            4.532231799366     0.680830993492    -0.738749399808     1.007825032230
         H            3.290170799366    -0.264076006508    -1.566800399808     1.007825032230
         H            2.027603799366    -2.150944006508    -0.188671399808     1.007825032230
         H            2.471153799366    -2.376328006508     1.508063600192     1.007825032230
         H            2.821282799366     1.673651993492     0.755739600192     1.007825032230
         H            2.311596799366     1.910923993492    -0.927467399808     1.007825032230
         H            0.351361799366    -1.035474006508     1.243629600192     1.007825032230
         H            1.627822799366    -0.119655006508     2.061220600192     1.007825032230
         H           -0.358768200634    -1.581177006508    -1.381462399808     1.007825032230
         H           -4.259960200634     0.281758993492     1.044659600192     1.007825032230
         H           -1.980922200634     2.770402993492     0.228753600192     1.007825032230
         H           -3.092452200634     2.271500993492     1.526794600192     1.007825032230
         H           -1.340068200634     2.102527993492     1.727283600192     1.007825032230
         H           -2.453303200634    -2.915301006508    -1.195497399808     1.007825032230
         H           -4.405517200634    -1.972396006508     0.033848600192     1.007825032230

  Basis Set: AUG-CC-PVTZ
    Blend: AUG-CC-PVTZ
  Basis Set: (AUG-CC-PVTZ AUX)
    Blend: AUG-CC-PVTZ-JKFIT
	 Reference Energy          =    -631.7278679513742645 [Eh]
	 Singles Energy            =      -0.0000000000000000 [Eh]
	 Same-Spin Energy          =      -0.6893558434023589 [Eh]
	 Opposite-Spin Energy      =      -2.2129591880731594 [Eh]
	 Correlation Energy        =      -2.9023150314755184 [Eh]
	 Total Energy              =    -634.6301829828497603 [Eh]

	 ================> DF-SCS-MP2 Energies <==================
	-----------------------------------------------------------
	 SCS Same-Spin Scale       =       0.3333333333333333 [-]
	 SCS Opposite-Spin Scale   =       1.2000000000000000 [-]
	 SCS Same-Spin Energy      =      -0.2297852811341196 [Eh]
	 SCS Opposite-Spin Energy  =      -2.6555510256877910 [Eh]
	 SCS Correlation Energy    =      -2.8853363068219107 [Eh]
	 SCS Total Energy          =    -634.6132042581962196 [Eh]
	-----------------------------------------------------------

  Dipole Moment: [D]
     X:     1.5866      Y:    -2.6575      Z:     2.4081     Total:     3.9215

*** Psi4 exiting successfully. Buy a developer a beer!
