                               Psi4 1.4a3.dev225

  ==> Input File <==

--------------------------------------------------------------------------
#psi4
#
memory 32 gb

molecule  {
0 1
  O        0.0109280     1.9504830    -1.2088660
  N        1.2104930     0.4628600     0.0596820
  C        3.6816010    -0.9509880     0.4072830
  C        3.5342200     0.1692850    -0.6230390
  C        2.3335540    -1.6180450     0.6838790
  C        2.6359465     1.2642431    -0.2254549
  C        1.2914730    -0.5760260     1.0805660
  C        0.0527250     0.9288280    -0.5097470
  C       -1.1808260     0.1020470    -0.2945890
  C       -2.2823960     0.6556420     0.3835130
  C       -1.2622800    -1.1716740    -0.8705440
  C       -3.4454200    -0.1153760     0.4879690
  C       -2.2065840     2.0368470     0.9809810
  C       -2.4366510    -1.9182050    -0.7675160
  C       -3.5304630    -1.3875060    -0.0828830
  H        4.4130950    -1.6928310     0.0671840
  H        4.0710030    -0.5292960     1.3442740
  H        4.4878230     0.6919580    -0.7653020
  H        3.2457620    -0.2529490    -1.5933530
  H        1.9831950    -2.1398170    -0.2152240
  H        2.4267450    -2.3652010     1.4815110
  H        2.7768740     1.6847790     0.7291870
  H        2.2671880     1.9220510    -0.9540200
  H        0.3069530    -1.0243470     1.2170770
  H        1.5834140    -0.1085280     2.0346680
  H       -0.4031770    -1.5700500    -1.4080150
  H       -4.3043690     0.2928860     1.0181070
  H       -2.0253310     2.7815300     0.2022010
  H       -3.1368610     2.2826280     1.5002420
  H       -1.3844770     2.1136550     1.7007310
  H       -2.4977120    -2.9041740    -1.2220500
  H       -4.4499260    -1.9612690     0.0072960
units angstrom
no_reorient  #important for SAPT in psi4, default
symmetry c1  #important for SAPT in psi4, default
}

set PROPERTIES_ORIGIN ["COM"]
properties('MP2/aug-cc-pvtz', properties = ['dipole'])
--------------------------------------------------------------------------

    Molecular point group: c1
  Charge       = 0
  Multiplicity = 1
  Basis Set: AUG-CC-PVTZ
    Blend: AUG-CC-PVTZ
  Basis Set: (AUG-CC-PVTZ AUX)
    Blend: AUG-CC-PVTZ-JKFIT

    Orbital Energies [Eh]
    ---------------------

    Doubly Occupied:

       1A    -20.503231     2A    -15.572782     3A    -11.341772
       4A    -11.267725     5A    -11.262279     6A    -11.248233
       7A    -11.242540     8A    -11.240960     9A    -11.239427
      10A    -11.236096    11A    -11.233975    12A    -11.233515
      13A    -11.231554    14A    -11.229419    15A    -11.217494
      16A     -1.356818    17A     -1.220430    18A     -1.157391
      19A     -1.088376    20A     -1.047177    21A     -1.037198
      22A     -1.023514    23A     -0.939605    24A     -0.919786
      25A     -0.860063    26A     -0.845368    27A     -0.811576
      28A     -0.790642    29A     -0.738220    30A     -0.702571
      31A     -0.665617    32A     -0.647908    33A     -0.644265
      34A     -0.639858    35A     -0.618334    36A     -0.610453
      37A     -0.598681    38A     -0.583600    39A     -0.571500
      40A     -0.569629    41A     -0.557155    42A     -0.543880
      43A     -0.540076    44A     -0.522265    45A     -0.515882
      46A     -0.502239    47A     -0.491022    48A     -0.487670
      49A     -0.480847    50A     -0.476631    51A     -0.447036
      52A     -0.405914    53A     -0.361957    54A     -0.336569
      55A     -0.326594

  @DF-RHF Final Energy:  -631.70200144508317

   => Energetics <=

    Nuclear Repulsion Energy =            996.0363726440172059
    One-Electron Energy =               -2835.5061090828326087
    Two-Electron Energy =                1207.7677349937321196
    Total Energy =                       -631.7020014450831695
  Basis Set: (AUG-CC-PVTZ AUX)
    Blend: AUG-CC-PVTZ-RI
    Molecular point group: c1

    Geometry (in Angstrom), charge = 0, multiplicity = 1:

       Center              X                  Y                   Z               Mass
    ------------   -----------------  -----------------  -----------------  -----------------
         O            0.046483120338     1.931247057460    -1.181739714886    15.994914619570
         N            1.246048120338     0.443624057460     0.086808285114    14.003074004430
         C            3.717156120338    -0.970223942540     0.434409285114    12.000000000000
         C            3.569775120338     0.150049057460    -0.595912714886    12.000000000000
         C            2.369109120338    -1.637280942540     0.711005285114    12.000000000000
         C            2.671501620338     1.245007157460    -0.198328614886    12.000000000000
         C            1.327028120338    -0.595261942540     1.107692285114    12.000000000000
         C            0.088280120338     0.909592057460    -0.482620714886    12.000000000000
         C           -1.145270879662     0.082811057460    -0.267462714886    12.000000000000
         C           -2.246840879662     0.636406057460     0.410639285114    12.000000000000
         C           -1.226724879662    -1.190909942540    -0.843417714886    12.000000000000
         C           -3.409864879662    -0.134611942540     0.515095285114    12.000000000000
         C           -2.171028879662     2.017611057460     1.008107285114    12.000000000000
         C           -2.401095879662    -1.937440942540    -0.740389714886    12.000000000000
         C           -3.494907879662    -1.406741942540    -0.055756714886    12.000000000000
         H            4.448650120338    -1.712066942540     0.094310285114     1.007825032230
         H            4.106558120338    -0.548531942540     1.371400285114     1.007825032230
         H            4.523378120338     0.672722057460    -0.738175714886     1.007825032230
         H            3.281317120338    -0.272184942540    -1.566226714886     1.007825032230
         H            2.018750120338    -2.159052942540    -0.188097714886     1.007825032230
         H            2.462300120338    -2.384436942540     1.508637285114     1.007825032230
         H            2.812429120338     1.665543057460     0.756313285114     1.007825032230
         H            2.302743120338     1.902815057460    -0.926893714886     1.007825032230
         H            0.342508120338    -1.043582942540     1.244203285114     1.007825032230
         H            1.618969120338    -0.127763942540     2.061794285114     1.007825032230
         H           -0.367621879662    -1.589285942540    -1.380888714886     1.007825032230
         H           -4.268813879662     0.273650057460     1.045233285114     1.007825032230
         H           -1.989775879662     2.762294057460     0.229327285114     1.007825032230
         H           -3.101305879662     2.263392057460     1.527368285114     1.007825032230
         H           -1.348921879662     2.094419057460     1.727857285114     1.007825032230
         H           -2.462156879662    -2.923409942540    -1.194923714886     1.007825032230
         H           -4.414370879662    -1.980504942540     0.034422285114     1.007825032230

  Basis Set: AUG-CC-PVTZ
    Blend: AUG-CC-PVTZ
  Basis Set: (AUG-CC-PVTZ AUX)
    Blend: AUG-CC-PVTZ-JKFIT
	 Reference Energy          =    -631.7020014450831695 [Eh]
	 Singles Energy            =      -0.0000000000000000 [Eh]
	 Same-Spin Energy          =      -0.6896616507659632 [Eh]
	 Opposite-Spin Energy      =      -2.2147146708034637 [Eh]
	 Correlation Energy        =      -2.9043763215694272 [Eh]
	 Total Energy              =    -634.6063777666525993 [Eh]

	 ================> DF-SCS-MP2 Energies <==================
	-----------------------------------------------------------
	 SCS Same-Spin Scale       =       0.3333333333333333 [-]
	 SCS Opposite-Spin Scale   =       1.2000000000000000 [-]
	 SCS Same-Spin Energy      =      -0.2298872169219877 [Eh]
	 SCS Opposite-Spin Energy  =      -2.6576576049641565 [Eh]
	 SCS Correlation Energy    =      -2.8875448218861441 [Eh]
	 SCS Total Energy          =    -634.5895462669693643 [Eh]
	-----------------------------------------------------------

  Dipole Moment: [D]
     X:     2.0046      Y:    -2.4116      Z:     2.3218     Total:     3.9019

*** Psi4 exiting successfully. Buy a developer a beer!
