                               Psi4 1.4a3.dev225

  ==> Input File <==

--------------------------------------------------------------------------
#psi4
#
memory 32 gb

molecule  {
0 1
  O        0.0109280     1.9504830    -1.2088660
  N        1.2104930     0.4628600     0.0596820
  C        3.6816010    -0.9509880     0.4072830
  C        3.5342200     0.1692850    -0.6230390
  C        2.3335540    -1.6180450     0.6838790
  C        2.4642000     1.1676880    -0.1911000
  C        1.2914730    -0.5760260     1.0805660
  C        0.0527250     0.9288280    -0.5097470
  C       -1.1808260     0.1020470    -0.2945890
  C       -2.2823960     0.6556420     0.3835130
  C       -1.2622800    -1.1716740    -0.8705440
  C       -3.4454200    -0.1153760     0.4879690
  C       -2.2065840     2.0368470     0.9809810
  C       -2.4366510    -1.9182050    -0.7675160
  C       -3.5304630    -1.3875060    -0.0828830
  H        4.4130950    -1.6928310     0.0671840
  H        4.0710030    -0.5292960     1.3442740
  H        4.4878230     0.6919580    -0.7653020
  H        3.2457620    -0.2529490    -1.5933530
  H        1.9831950    -2.1398170    -0.2152240
  H        2.4267450    -2.3652010     1.4815110
  H        2.7768740     1.6847790     0.7291870
  H        2.2671880     1.9220510    -0.9540200
  H        0.4875376    -0.9421142     1.1920376
  H        1.5834140    -0.1085280     2.0346680
  H       -0.4031770    -1.5700500    -1.4080150
  H       -4.3043690     0.2928860     1.0181070
  H       -2.0253310     2.7815300     0.2022010
  H       -3.1368610     2.2826280     1.5002420
  H       -1.3844770     2.1136550     1.7007310
  H       -2.4977120    -2.9041740    -1.2220500
  H       -4.4499260    -1.9612690     0.0072960
units angstrom
no_reorient  #important for SAPT in psi4, default
symmetry c1  #important for SAPT in psi4, default
}

set PROPERTIES_ORIGIN ["COM"]
properties('MP2/aug-cc-pvtz', properties = ['dipole'])
--------------------------------------------------------------------------

    Molecular point group: c1
  Charge       = 0
  Multiplicity = 1
  Basis Set: AUG-CC-PVTZ
    Blend: AUG-CC-PVTZ
  Basis Set: (AUG-CC-PVTZ AUX)
    Blend: AUG-CC-PVTZ-JKFIT

    Orbital Energies [Eh]
    ---------------------

    Doubly Occupied:

       1A    -20.510436     2A    -15.582814     3A    -11.349253
       4A    -11.253558     5A    -11.252278     6A    -11.246808
       7A    -11.245272     8A    -11.244692     9A    -11.242956
      10A    -11.239317    11A    -11.237125    12A    -11.230040
      13A    -11.227756    14A    -11.225117    15A    -11.220547
      16A     -1.366761    17A     -1.250969    18A     -1.161591
      19A     -1.083294    20A     -1.051296    21A     -1.044230
      22A     -1.026793    23A     -0.944370    24A     -0.923504
      25A     -0.877509    26A     -0.844235    27A     -0.815469
      28A     -0.790895    29A     -0.751219    30A     -0.718735
      31A     -0.670469    32A     -0.653896    33A     -0.648673
      34A     -0.636793    35A     -0.622277    36A     -0.614849
      37A     -0.597538    38A     -0.588962    39A     -0.575847
      40A     -0.571824    41A     -0.564881    42A     -0.550444
      43A     -0.541757    44A     -0.524520    45A     -0.508093
      46A     -0.501801    47A     -0.492821    48A     -0.490127
      49A     -0.478243    50A     -0.473529    51A     -0.462724
      52A     -0.416743    53A     -0.365612    54A     -0.341272
      55A     -0.330293

  @DF-RHF Final Energy:  -631.69727637098072

   => Energetics <=

    Nuclear Repulsion Energy =           1000.8938781363392536
    One-Electron Energy =               -2844.8166519509150021
    Two-Electron Energy =                1212.2254974435950317
    Total Energy =                       -631.6972763709807168
  Basis Set: (AUG-CC-PVTZ AUX)
    Blend: AUG-CC-PVTZ-RI
    Molecular point group: c1

    Geometry (in Angstrom), charge = 0, multiplicity = 1:

       Center              X                  Y                   Z               Mass
    ------------   -----------------  -----------------  -----------------  -----------------
         O            0.055733112652     1.936543072596    -1.183645004767    15.994914619570
         N            1.255298112652     0.448920072596     0.084902995233    14.003074004430
         C            3.726406112652    -0.964927927404     0.432503995233    12.000000000000
         C            3.579025112652     0.155345072596    -0.597818004767    12.000000000000
         C            2.378359112652    -1.631984927404     0.709099995233    12.000000000000
         C            2.509005112652     1.153748072596    -0.165879004767    12.000000000000
         C            1.336278112652    -0.589965927404     1.105786995233    12.000000000000
         C            0.097530112652     0.914888072596    -0.484526004767    12.000000000000
         C           -1.136020887348     0.088107072596    -0.269368004767    12.000000000000
         C           -2.237590887348     0.641702072596     0.408733995233    12.000000000000
         C           -1.217474887348    -1.185613927404    -0.845323004767    12.000000000000
         C           -3.400614887348    -0.129315927404     0.513189995233    12.000000000000
         C           -2.161778887348     2.022907072596     1.006201995233    12.000000000000
         C           -2.391845887348    -1.932144927404    -0.742295004767    12.000000000000
         C           -3.485657887348    -1.401445927404    -0.057662004767    12.000000000000
         H            4.457900112652    -1.706770927404     0.092404995233     1.007825032230
         H            4.115808112652    -0.543235927404     1.369494995233     1.007825032230
         H            4.532628112652     0.678018072596    -0.740081004767     1.007825032230
         H            3.290567112652    -0.266888927404    -1.568132004767     1.007825032230
         H            2.028000112652    -2.153756927404    -0.190003004767     1.007825032230
         H            2.471550112652    -2.379140927404     1.506731995233     1.007825032230
         H            2.821679112652     1.670839072596     0.754407995233     1.007825032230
         H            2.311993112652     1.908111072596    -0.928799004767     1.007825032230
         H            0.532342712652    -0.956054127404     1.217258595233     1.007825032230
         H            1.628219112652    -0.122467927404     2.059888995233     1.007825032230
         H           -0.358371887348    -1.583989927404    -1.382794004767     1.007825032230
         H           -4.259563887348     0.278946072596     1.043327995233     1.007825032230
         H           -1.980525887348     2.767590072596     0.227421995233     1.007825032230
         H           -3.092055887348     2.268688072596     1.525462995233     1.007825032230
         H           -1.339671887348     2.099715072596     1.725951995233     1.007825032230
         H           -2.452906887348    -2.918113927404    -1.196829004767     1.007825032230
         H           -4.405120887348    -1.975208927404     0.032516995233     1.007825032230

  Basis Set: AUG-CC-PVTZ
    Blend: AUG-CC-PVTZ
  Basis Set: (AUG-CC-PVTZ AUX)
    Blend: AUG-CC-PVTZ-JKFIT
	 Reference Energy          =    -631.6972763709807168 [Eh]
	 Singles Energy            =      -0.0000000000000000 [Eh]
	 Same-Spin Energy          =      -0.6883168433376743 [Eh]
	 Opposite-Spin Energy      =      -2.2107684339176070 [Eh]
	 Correlation Energy        =      -2.8990852772552813 [Eh]
	 Total Energy              =    -634.5963616482359839 [Eh]

	 ================> DF-SCS-MP2 Energies <==================
	-----------------------------------------------------------
	 SCS Same-Spin Scale       =       0.3333333333333333 [-]
	 SCS Opposite-Spin Scale   =       1.2000000000000000 [-]
	 SCS Same-Spin Energy      =      -0.2294389477792247 [Eh]
	 SCS Opposite-Spin Energy  =      -2.6529221207011284 [Eh]
	 SCS Correlation Energy    =      -2.8823610684803533 [Eh]
	 SCS Total Energy          =    -634.5796374394610666 [Eh]
	-----------------------------------------------------------

  Dipole Moment: [D]
     X:     1.3737      Y:    -2.5391      Z:     2.3395     Total:     3.7158

*** Psi4 exiting successfully. Buy a developer a beer!
