                               Psi4 1.4a3.dev225

  ==> Input File <==

--------------------------------------------------------------------------
#psi4
#
memory 32 gb

molecule  {
0 1
  O        0.0109280     1.9504830    -1.2088660
  N        1.2104930     0.4628600     0.0596820
  C        3.6816010    -0.9509880     0.4072830
  C        3.5342200     0.1692850    -0.6230390
  C        2.3335540    -1.6180450     0.6838790
  C        2.4813747     1.1773435    -0.1945355
  C        1.2914730    -0.5760260     1.0805660
  C        0.0527250     0.9288280    -0.5097470
  C       -1.1808260     0.1020470    -0.2945890
  C       -2.2823960     0.6556420     0.3835130
  C       -1.2622800    -1.1716740    -0.8705440
  C       -3.4454200    -0.1153760     0.4879690
  C       -2.2065840     2.0368470     0.9809810
  C       -2.4366510    -1.9182050    -0.7675160
  C       -3.5304630    -1.3875060    -0.0828830
  H        4.4130950    -1.6928310     0.0671840
  H        4.0710030    -0.5292960     1.3442740
  H        4.4878230     0.6919580    -0.7653020
  H        3.2457620    -0.2529490    -1.5933530
  H        1.9831950    -2.1398170    -0.2152240
  H        2.4267450    -2.3652010     1.4815110
  H        2.7768740     1.6847790     0.7291870
  H        2.2671880     1.9220510    -0.9540200
  H        0.3069530    -1.0243470     1.2170770
  H        1.5834140    -0.1085280     2.0346680
  H       -0.4031770    -1.5700500    -1.4080150
  H       -4.3043690     0.2928860     1.0181070
  H       -2.0253310     2.7815300     0.2022010
  H       -3.1368610     2.2826280     1.5002420
  H       -1.3844770     2.1136550     1.7007310
  H       -2.4977120    -2.9041740    -1.2220500
  H       -4.4499260    -1.9612690     0.0072960
units angstrom
no_reorient  #important for SAPT in psi4, default
symmetry c1  #important for SAPT in psi4, default
}

set PROPERTIES_ORIGIN ["COM"]
properties('MP2/aug-cc-pvtz', properties = ['dipole'])
--------------------------------------------------------------------------

    Molecular point group: c1
  Charge       = 0
  Multiplicity = 1
  Basis Set: AUG-CC-PVTZ
    Blend: AUG-CC-PVTZ
  Basis Set: (AUG-CC-PVTZ AUX)
    Blend: AUG-CC-PVTZ-JKFIT

    Orbital Energies [Eh]
    ---------------------

    Doubly Occupied:

       1A    -20.510010     2A    -15.583189     3A    -11.348753
       4A    -11.266625     5A    -11.255332     6A    -11.251515
       7A    -11.245988     8A    -11.244645     9A    -11.242350
      10A    -11.238856    11A    -11.236699    12A    -11.230523
      13A    -11.228779    14A    -11.226075    15A    -11.220073
      16A     -1.365834    17A     -1.246019    18A     -1.161045
      19A     -1.083890    20A     -1.050437    21A     -1.036919
      22A     -1.023556    23A     -0.942766    24A     -0.918849
      25A     -0.866367    26A     -0.844365    27A     -0.814919
      28A     -0.790708    29A     -0.742380    30A     -0.711364
      31A     -0.666538    32A     -0.652334    33A     -0.647778
      34A     -0.628580    35A     -0.619815    36A     -0.614809
      37A     -0.596627    38A     -0.587217    39A     -0.575233
      40A     -0.571547    41A     -0.559214    42A     -0.547962
      43A     -0.541410    44A     -0.524774    45A     -0.508287
      46A     -0.502931    47A     -0.491192    48A     -0.489347
      49A     -0.479193    50A     -0.469940    51A     -0.461707
      52A     -0.416008    53A     -0.366325    54A     -0.339680
      55A     -0.329690

  @DF-RHF Final Energy:  -631.73033011542373

   => Energetics <=

    Nuclear Repulsion Energy =            999.5642522208056562
    One-Electron Energy =               -2842.3552309268816316
    Two-Electron Energy =                1211.0606485906523631
    Total Energy =                       -631.7303301154236124
  Basis Set: (AUG-CC-PVTZ AUX)
    Blend: AUG-CC-PVTZ-RI
    Molecular point group: c1

    Geometry (in Angstrom), charge = 0, multiplicity = 1:

       Center              X                  Y                   Z               Mass
    ------------   -----------------  -----------------  -----------------  -----------------
         O            0.055614476314     1.936380666448    -1.183566283820    15.994914619570
         N            1.255179476314     0.448757666448     0.084981716180    14.003074004430
         C            3.726287476314    -0.965090333552     0.432582716180    12.000000000000
         C            3.578906476314     0.155182666448    -0.597739283820    12.000000000000
         C            2.378240476314    -1.632147333552     0.709178716180    12.000000000000
         C            2.526061176314     1.163241166448    -0.169235783820    12.000000000000
         C            1.336159476314    -0.590128333552     1.105865716180    12.000000000000
         C            0.097411476314     0.914725666448    -0.484447283820    12.000000000000
         C           -1.136139523686     0.087944666448    -0.269289283820    12.000000000000
         C           -2.237709523686     0.641539666448     0.408812716180    12.000000000000
         C           -1.217593523686    -1.185776333552    -0.845244283820    12.000000000000
         C           -3.400733523686    -0.129478333552     0.513268716180    12.000000000000
         C           -2.161897523686     2.022744666448     1.006280716180    12.000000000000
         C           -2.391964523686    -1.932307333552    -0.742216283820    12.000000000000
         C           -3.485776523686    -1.401608333552    -0.057583283820    12.000000000000
         H            4.457781476314    -1.706933333552     0.092483716180     1.007825032230
         H            4.115689476314    -0.543398333552     1.369573716180     1.007825032230
         H            4.532509476314     0.677855666448    -0.740002283820     1.007825032230
         H            3.290448476314    -0.267051333552    -1.568053283820     1.007825032230
         H            2.027881476314    -2.153919333552    -0.189924283820     1.007825032230
         H            2.471431476314    -2.379303333552     1.506810716180     1.007825032230
         H            2.821560476314     1.670676666448     0.754486716180     1.007825032230
         H            2.311874476314     1.907948666448    -0.928720283820     1.007825032230
         H            0.351639476314    -1.038449333552     1.242376716180     1.007825032230
         H            1.628100476314    -0.122630333552     2.059967716180     1.007825032230
         H           -0.358490523686    -1.584152333552    -1.382715283820     1.007825032230
         H           -4.259682523686     0.278783666448     1.043406716180     1.007825032230
         H           -1.980644523686     2.767427666448     0.227500716180     1.007825032230
         H           -3.092174523686     2.268525666448     1.525541716180     1.007825032230
         H           -1.339790523686     2.099552666448     1.726030716180     1.007825032230
         H           -2.453025523686    -2.918276333552    -1.196750283820     1.007825032230
         H           -4.405239523686    -1.975371333552     0.032595716180     1.007825032230

  Basis Set: AUG-CC-PVTZ
    Blend: AUG-CC-PVTZ
  Basis Set: (AUG-CC-PVTZ AUX)
    Blend: AUG-CC-PVTZ-JKFIT
	 Reference Energy          =    -631.7303301154237261 [Eh]
	 Singles Energy            =      -0.0000000000000000 [Eh]
	 Same-Spin Energy          =      -0.6889428743701649 [Eh]
	 Opposite-Spin Energy      =      -2.2122930171225712 [Eh]
	 Correlation Energy        =      -2.9012358914927363 [Eh]
	 Total Energy              =    -634.6315660069165006 [Eh]

	 ================> DF-SCS-MP2 Energies <==================
	-----------------------------------------------------------
	 SCS Same-Spin Scale       =       0.3333333333333333 [-]
	 SCS Opposite-Spin Scale   =       1.2000000000000000 [-]
	 SCS Same-Spin Energy      =      -0.2296476247900550 [Eh]
	 SCS Opposite-Spin Energy  =      -2.6547516205470854 [Eh]
	 SCS Correlation Energy    =      -2.8843992453371401 [Eh]
	 SCS Total Energy          =    -634.6147293607608617 [Eh]
	-----------------------------------------------------------

  Dipole Moment: [D]
     X:     1.4664      Y:    -2.5069      Z:     2.3083     Total:     3.7099

*** Psi4 exiting successfully. Buy a developer a beer!
