                               Psi4 1.4a3.dev225

  ==> Input File <==

--------------------------------------------------------------------------
#psi4
#
memory 32 gb

molecule  {
0 1
  O        0.0109280     1.9504830    -1.2088660
  N        1.2104930     0.4628600     0.0596820
  C        3.6816010    -0.9509880     0.4072830
  C        3.5342200     0.1692850    -0.6230390
  C        2.3335540    -1.6180450     0.6838790
  C        2.4642000     1.1676880    -0.1911000
  C        1.2914730    -0.5760260     1.0805660
  C        0.0527250     0.9288280    -0.5097470
  C       -1.1808260     0.1020470    -0.2945890
  C       -2.2823960     0.6556420     0.3835130
  C       -1.2622800    -1.1716740    -0.8705440
  C       -3.4454200    -0.1153760     0.4879690
  C       -2.2065840     2.0368470     0.9809810
  C       -2.4366510    -1.9182050    -0.7675160
  C       -3.5304630    -1.3875060    -0.0828830
  H        4.4130950    -1.6928310     0.0671840
  H        4.0710030    -0.5292960     1.3442740
  H        4.4878230     0.6919580    -0.7653020
  H        3.2457620    -0.2529490    -1.5933530
  H        1.9831950    -2.1398170    -0.2152240
  H        2.4267450    -2.3652010     1.4815110
  H        2.7768740     1.6847790     0.7291870
  H        2.2671880     1.9220510    -0.9540200
  H        0.3069530    -1.0243470     1.2170770
  H        1.5834140    -0.1085280     2.0346680
  H       -0.4031770    -1.5700500    -1.4080150
  H       -4.3043690     0.2928860     1.0181070
  H       -2.0573657     2.7702219     0.1848662
  H       -3.1368610     2.2826280     1.5002420
  H       -1.3844770     2.1136550     1.7007310
  H       -2.4977120    -2.9041740    -1.2220500
  H       -4.4499260    -1.9612690     0.0072960
units angstrom
no_reorient  #important for SAPT in psi4, default
symmetry c1  #important for SAPT in psi4, default
}

set PROPERTIES_ORIGIN ["COM"]
properties('MP2/aug-cc-pvtz', properties = ['dipole'])
--------------------------------------------------------------------------

    Molecular point group: c1
  Charge       = 0
  Multiplicity = 1
  Basis Set: AUG-CC-PVTZ
    Blend: AUG-CC-PVTZ
  Basis Set: (AUG-CC-PVTZ AUX)
    Blend: AUG-CC-PVTZ-JKFIT

    Orbital Energies [Eh]
    ---------------------

    Doubly Occupied:

       1A    -20.510692     2A    -15.583827     3A    -11.349363
       4A    -11.267044     5A    -11.254575     6A    -11.251644
       7A    -11.246287     8A    -11.244941     9A    -11.242578
      10A    -11.239064    11A    -11.236835    12A    -11.230607
      13A    -11.228291    14A    -11.225637    15A    -11.220448
      16A     -1.366886    17A     -1.249521    18A     -1.161391
      19A     -1.083566    20A     -1.050881    21A     -1.037257
      22A     -1.023129    23A     -0.943153    24A     -0.918736
      25A     -0.867374    26A     -0.844031    27A     -0.815199
      28A     -0.790858    29A     -0.742597    30A     -0.712254
      31A     -0.666584    32A     -0.652795    33A     -0.648133
      34A     -0.627778    35A     -0.620376    36A     -0.615137
      37A     -0.596406    38A     -0.588247    39A     -0.576335
      40A     -0.573306    41A     -0.560206    42A     -0.547525
      43A     -0.540351    44A     -0.524664    45A     -0.507509
      46A     -0.501958    47A     -0.491718    48A     -0.489203
      49A     -0.478415    50A     -0.469588    51A     -0.461514
      52A     -0.416788    53A     -0.366161    54A     -0.339936
      55A     -0.330062

  @DF-RHF Final Energy:  -631.73056154553808

   => Energetics <=

    Nuclear Repulsion Energy =            999.9664194626636800
    One-Electron Energy =               -2843.1352363559058176
    Two-Electron Energy =                1211.4382553477041711
    Total Energy =                       -631.7305615455379666
  Basis Set: (AUG-CC-PVTZ AUX)
    Blend: AUG-CC-PVTZ-RI
    Molecular point group: c1

    Geometry (in Angstrom), charge = 0, multiplicity = 1:

       Center              X                  Y                   Z               Mass
    ------------   -----------------  -----------------  -----------------  -----------------
         O            0.056788013371     1.937007171400    -1.183683230780    15.994914619570
         N            1.256353013371     0.449384171400     0.084864769220    14.003074004430
         C            3.727461013371    -0.964463828600     0.432465769220    12.000000000000
         C            3.580080013371     0.155809171400    -0.597856230780    12.000000000000
         C            2.379414013371    -1.631520828600     0.709061769220    12.000000000000
         C            2.510060013371     1.154212171400    -0.165917230780    12.000000000000
         C            1.337333013371    -0.589501828600     1.105748769220    12.000000000000
         C            0.098585013371     0.915352171400    -0.484564230780    12.000000000000
         C           -1.134965986629     0.088571171400    -0.269406230780    12.000000000000
         C           -2.236535986629     0.642166171400     0.408695769220    12.000000000000
         C           -1.216419986629    -1.185149828600    -0.845361230780    12.000000000000
         C           -3.399559986629    -0.128851828600     0.513151769220    12.000000000000
         C           -2.160723986629     2.023371171400     1.006163769220    12.000000000000
         C           -2.390790986629    -1.931680828600    -0.742333230780    12.000000000000
         C           -3.484602986629    -1.400981828600    -0.057700230780    12.000000000000
         H            4.458955013371    -1.706306828600     0.092366769220     1.007825032230
         H            4.116863013371    -0.542771828600     1.369456769220     1.007825032230
         H            4.533683013371     0.678482171400    -0.740119230780     1.007825032230
         H            3.291622013371    -0.266424828600    -1.568170230780     1.007825032230
         H            2.029055013371    -2.153292828600    -0.190041230780     1.007825032230
         H            2.472605013371    -2.378676828600     1.506693769220     1.007825032230
         H            2.822734013371     1.671303171400     0.754369769220     1.007825032230
         H            2.313048013371     1.908575171400    -0.928837230780     1.007825032230
         H            0.352813013371    -1.037822828600     1.242259769220     1.007825032230
         H            1.629274013371    -0.122003828600     2.059850769220     1.007825032230
         H           -0.357316986629    -1.583525828600    -1.382832230780     1.007825032230
         H           -4.258508986629     0.279410171400     1.043289769220     1.007825032230
         H           -2.011505686629     2.756746071400     0.210048969220     1.007825032230
         H           -3.091000986629     2.269152171400     1.525424769220     1.007825032230
         H           -1.338616986629     2.100179171400     1.725913769220     1.007825032230
         H           -2.451851986629    -2.917649828600    -1.196867230780     1.007825032230
         H           -4.404065986629    -1.974744828600     0.032478769220     1.007825032230

  Basis Set: AUG-CC-PVTZ
    Blend: AUG-CC-PVTZ
  Basis Set: (AUG-CC-PVTZ AUX)
    Blend: AUG-CC-PVTZ-JKFIT
	 Reference Energy          =    -631.7305615455380803 [Eh]
	 Singles Energy            =      -0.0000000000000000 [Eh]
	 Same-Spin Energy          =      -0.6890122828982883 [Eh]
	 Opposite-Spin Energy      =      -2.2122882874399354 [Eh]
	 Correlation Energy        =      -2.9013005703382237 [Eh]
	 Total Energy              =    -634.6318621158762880 [Eh]

	 ================> DF-SCS-MP2 Energies <==================
	-----------------------------------------------------------
	 SCS Same-Spin Scale       =       0.3333333333333333 [-]
	 SCS Opposite-Spin Scale   =       1.2000000000000000 [-]
	 SCS Same-Spin Energy      =      -0.2296707609660961 [Eh]
	 SCS Opposite-Spin Energy  =      -2.6547459449279223 [Eh]
	 SCS Correlation Energy    =      -2.8844167058940182 [Eh]
	 SCS Total Energy          =    -634.6149782514321487 [Eh]
	-----------------------------------------------------------

  Dipole Moment: [D]
     X:     1.3900      Y:    -2.5183      Z:     2.3026     Total:     3.6846

*** Psi4 exiting successfully. Buy a developer a beer!
