                               Psi4 1.4a3.dev225

  ==> Input File <==

--------------------------------------------------------------------------
#psi4
#
memory 32 gb

molecule  {
0 1
  O        0.0109280     1.9504830    -1.2088660
  N        1.2104930     0.4628600     0.0596820
  C        3.6816010    -0.9509880     0.4072830
  C        3.5342200     0.1692850    -0.6230390
  C        2.3335540    -1.6180450     0.6838790
  C        2.4642000     1.1676880    -0.1911000
  C        1.2914730    -0.5760260     1.0805660
  C        0.0527250     0.9288280    -0.5097470
  C       -1.1808260     0.1020470    -0.2945890
  C       -2.2823960     0.6556420     0.3835130
  C       -1.2651885    -1.2171556    -0.8911100
  C       -3.4454200    -0.1153760     0.4879690
  C       -2.2065840     2.0368470     0.9809810
  C       -2.4366510    -1.9182050    -0.7675160
  C       -3.5304630    -1.3875060    -0.0828830
  H        4.4130950    -1.6928310     0.0671840
  H        4.0710030    -0.5292960     1.3442740
  H        4.4878230     0.6919580    -0.7653020
  H        3.2457620    -0.2529490    -1.5933530
  H        1.9831950    -2.1398170    -0.2152240
  H        2.4267450    -2.3652010     1.4815110
  H        2.7768740     1.6847790     0.7291870
  H        2.2671880     1.9220510    -0.9540200
  H        0.3069530    -1.0243470     1.2170770
  H        1.5834140    -0.1085280     2.0346680
  H       -0.4031770    -1.5700500    -1.4080150
  H       -4.3043690     0.2928860     1.0181070
  H       -2.0253310     2.7815300     0.2022010
  H       -3.1368610     2.2826280     1.5002420
  H       -1.3844770     2.1136550     1.7007310
  H       -2.4977120    -2.9041740    -1.2220500
  H       -4.4499260    -1.9612690     0.0072960
units angstrom
no_reorient  #important for SAPT in psi4, default
symmetry c1  #important for SAPT in psi4, default
}

set PROPERTIES_ORIGIN ["COM"]
properties('MP2/aug-cc-pvtz', properties = ['dipole'])
--------------------------------------------------------------------------

    Molecular point group: c1
  Charge       = 0
  Multiplicity = 1
  Basis Set: AUG-CC-PVTZ
    Blend: AUG-CC-PVTZ
  Basis Set: (AUG-CC-PVTZ AUX)
    Blend: AUG-CC-PVTZ-JKFIT

    Orbital Energies [Eh]
    ---------------------

    Doubly Occupied:

       1A    -20.510587     2A    -15.583797     3A    -11.349349
       4A    -11.266996     5A    -11.254579     6A    -11.251665
       7A    -11.249379     8A    -11.246407     9A    -11.242870
      10A    -11.238090    11A    -11.237320    12A    -11.230695
      13A    -11.228347    14A    -11.225699    15A    -11.220253
      16A     -1.366713    17A     -1.249442    18A     -1.158931
      19A     -1.083546    20A     -1.053376    21A     -1.035811
      22A     -1.020285    23A     -0.944838    24A     -0.917699
      25A     -0.867825    26A     -0.846290    27A     -0.814970
      28A     -0.789662    29A     -0.741670    30A     -0.711232
      31A     -0.670047    32A     -0.652655    33A     -0.648216
      34A     -0.628491    35A     -0.618783    36A     -0.615994
      37A     -0.595344    38A     -0.588082    39A     -0.577671
      40A     -0.571436    41A     -0.560022    42A     -0.547764
      43A     -0.542151    44A     -0.524778    45A     -0.510044
      46A     -0.501596    47A     -0.490855    48A     -0.487314
      49A     -0.477729    50A     -0.469519    51A     -0.461554
      52A     -0.416710    53A     -0.366161    54A     -0.338917
      55A     -0.329561

  @DF-RHF Final Energy:  -631.72724876537075

   => Energetics <=

    Nuclear Repulsion Energy =            999.1375172626248968
    One-Electron Energy =               -2841.4701031715153476
    Two-Electron Energy =                1210.6053371435198187
    Total Energy =                       -631.7272487653706321
  Basis Set: (AUG-CC-PVTZ AUX)
    Blend: AUG-CC-PVTZ-RI
    Molecular point group: c1

    Geometry (in Angstrom), charge = 0, multiplicity = 1:

       Center              X                  Y                   Z               Mass
    ------------   -----------------  -----------------  -----------------  -----------------
         O            0.056800894847     1.939637900222    -1.182554296552    15.994914619570
         N            1.256365894847     0.452014900222     0.085993703448    14.003074004430
         C            3.727473894847    -0.961833099778     0.433594703448    12.000000000000
         C            3.580092894847     0.158439900222    -0.596727296552    12.000000000000
         C            2.379426894847    -1.628890099778     0.710190703448    12.000000000000
         C            2.510072894847     1.156842900222    -0.164788296552    12.000000000000
         C            1.337345894847    -0.586871099778     1.106877703448    12.000000000000
         C            0.098597894847     0.917982900222    -0.483435296552    12.000000000000
         C           -1.134953105153     0.091201900222    -0.268277296552    12.000000000000
         C           -2.236523105153     0.644796900222     0.409824703448    12.000000000000
         C           -1.219315605153    -1.228000699778    -0.864798296552    12.000000000000
         C           -3.399547105153    -0.126221099778     0.514280703448    12.000000000000
         C           -2.160711105153     2.026001900222     1.007292703448    12.000000000000
         C           -2.390778105153    -1.929050099778    -0.741204296552    12.000000000000
         C           -3.484590105153    -1.398351099778    -0.056571296552    12.000000000000
         H            4.458967894847    -1.703676099778     0.093495703448     1.007825032230
         H            4.116875894847    -0.540141099778     1.370585703448     1.007825032230
         H            4.533695894847     0.681112900222    -0.738990296552     1.007825032230
         H            3.291634894847    -0.263794099778    -1.567041296552     1.007825032230
         H            2.029067894847    -2.150662099778    -0.188912296552     1.007825032230
         H            2.472617894847    -2.376046099778     1.507822703448     1.007825032230
         H            2.822746894847     1.673933900222     0.755498703448     1.007825032230
         H            2.313060894847     1.911205900222    -0.927708296552     1.007825032230
         H            0.352825894847    -1.035192099778     1.243388703448     1.007825032230
         H            1.629286894847    -0.119373099778     2.060979703448     1.007825032230
         H           -0.357304105153    -1.580895099778    -1.381703296552     1.007825032230
         H           -4.258496105153     0.282040900222     1.044418703448     1.007825032230
         H           -1.979458105153     2.770684900222     0.228512703448     1.007825032230
         H           -3.090988105153     2.271782900222     1.526553703448     1.007825032230
         H           -1.338604105153     2.102809900222     1.727042703448     1.007825032230
         H           -2.451839105153    -2.915019099778    -1.195738296552     1.007825032230
         H           -4.404053105153    -1.972114099778     0.033607703448     1.007825032230

  Basis Set: AUG-CC-PVTZ
    Blend: AUG-CC-PVTZ
  Basis Set: (AUG-CC-PVTZ AUX)
    Blend: AUG-CC-PVTZ-JKFIT
	 Reference Energy          =    -631.7272487653707458 [Eh]
	 Singles Energy            =      -0.0000000000000000 [Eh]
	 Same-Spin Energy          =      -0.6890644617287304 [Eh]
	 Opposite-Spin Energy      =      -2.2125994555150732 [Eh]
	 Correlation Energy        =      -2.9016639172438037 [Eh]
	 Total Energy              =    -634.6289126826145548 [Eh]

	 ================> DF-SCS-MP2 Energies <==================
	-----------------------------------------------------------
	 SCS Same-Spin Scale       =       0.3333333333333333 [-]
	 SCS Opposite-Spin Scale   =       1.2000000000000000 [-]
	 SCS Same-Spin Energy      =      -0.2296881539095768 [Eh]
	 SCS Opposite-Spin Energy  =      -2.6551193466180876 [Eh]
	 SCS Correlation Energy    =      -2.8848075005276645 [Eh]
	 SCS Total Energy          =    -634.6120562658984454 [Eh]
	-----------------------------------------------------------

  Dipole Moment: [D]
     X:     1.4070      Y:    -2.5136      Z:     2.3058     Total:     3.6898

*** Psi4 exiting successfully. Buy a developer a beer!
