                               Psi4 1.4a3.dev225

  ==> Input File <==

--------------------------------------------------------------------------
#psi4
#
memory 32 gb

molecule  {
0 1
  O        0.0109280     1.9504830    -1.2088660
  N        1.2104930     0.4628600     0.0596820
  C        3.6816010    -0.9509880     0.4072830
  C        3.5342200     0.1692850    -0.6230390
  C        2.3335540    -1.6180450     0.6838790
  C        2.4642000     1.1676880    -0.1911000
  C        1.2914730    -0.5760260     1.0805660
  C        0.0527250     0.9288280    -0.5097470
  C       -1.1808260     0.1020470    -0.2945890
  C       -2.2823960     0.6556420     0.3835130
  C       -1.2622800    -1.1716740    -0.8705440
  C       -3.4454200    -0.1153760     0.4879690
  C       -2.2065840     2.0368470     0.9809810
  C       -2.4366510    -1.9182050    -0.7675160
  C       -3.5304630    -1.3875060    -0.0828830
  H        4.4130950    -1.6928310     0.0671840
  H        4.0710030    -0.5292960     1.3442740
  H        4.4878230     0.6919580    -0.7653020
  H        3.2457620    -0.2529490    -1.5933530
  H        1.9831950    -2.1398170    -0.2152240
  H        2.4267450    -2.3652010     1.4815110
  H        2.7768740     1.6847790     0.7291870
  H        2.2671880     1.9220510    -0.9540200
  H        0.3069530    -1.0243470     1.2170770
  H        1.5304234    -0.1933842     1.8614877
  H       -0.4031770    -1.5700500    -1.4080150
  H       -4.3043690     0.2928860     1.0181070
  H       -2.0253310     2.7815300     0.2022010
  H       -3.1368610     2.2826280     1.5002420
  H       -1.3844770     2.1136550     1.7007310
  H       -2.4977120    -2.9041740    -1.2220500
  H       -4.4499260    -1.9612690     0.0072960
units angstrom
no_reorient  #important for SAPT in psi4, default
symmetry c1  #important for SAPT in psi4, default
}

set PROPERTIES_ORIGIN ["COM"]
properties('MP2/aug-cc-pvtz', properties = ['dipole'])
--------------------------------------------------------------------------

    Molecular point group: c1
  Charge       = 0
  Multiplicity = 1
  Basis Set: AUG-CC-PVTZ
    Blend: AUG-CC-PVTZ
  Basis Set: (AUG-CC-PVTZ AUX)
    Blend: AUG-CC-PVTZ-JKFIT

    Orbital Energies [Eh]
    ---------------------

    Doubly Occupied:

       1A    -20.509352     2A    -15.581787     3A    -11.348195
       4A    -11.254563     5A    -11.251293     6A    -11.245652
       7A    -11.244342     8A    -11.242114     9A    -11.242051
      10A    -11.238622    11A    -11.236524    12A    -11.229103
      13A    -11.228313    14A    -11.225537    15A    -11.220119
      16A     -1.365834    17A     -1.250519    18A     -1.160888
      19A     -1.084015    20A     -1.050484    21A     -1.041782
      22A     -1.026419    23A     -0.945029    24A     -0.924596
      25A     -0.873749    26A     -0.843740    27A     -0.815225
      28A     -0.792196    29A     -0.750943    30A     -0.714184
      31A     -0.668093    32A     -0.661228    33A     -0.650125
      34A     -0.628592    35A     -0.623653    36A     -0.615176
      37A     -0.597633    38A     -0.590697    39A     -0.575185
      40A     -0.571738    41A     -0.559302    42A     -0.547029
      43A     -0.541983    44A     -0.528201    45A     -0.510377
      46A     -0.505139    47A     -0.491439    48A     -0.489068
      49A     -0.478102    50A     -0.469866    51A     -0.461172
      52A     -0.416080    53A     -0.366612    54A     -0.339395
      55A     -0.329494

  @DF-RHF Final Energy:  -631.69927723047738

   => Energetics <=

    Nuclear Repulsion Energy =           1001.2296482678790426
    One-Electron Energy =               -2845.5527556248721339
    Two-Electron Energy =                1212.6238301265157133
    Total Energy =                       -631.6992772304774917
  Basis Set: (AUG-CC-PVTZ AUX)
    Blend: AUG-CC-PVTZ-RI
    Molecular point group: c1

    Geometry (in Angstrom), charge = 0, multiplicity = 1:

       Center              X                  Y                   Z               Mass
    ------------   -----------------  -----------------  -----------------  -----------------
         O            0.056891985089     1.937372076860    -1.182910010616    15.994914619570
         N            1.256456985089     0.449749076860     0.085637989384    14.003074004430
         C            3.727564985089    -0.964098923140     0.433238989384    12.000000000000
         C            3.580183985089     0.156174076860    -0.597083010616    12.000000000000
         C            2.379517985089    -1.631155923140     0.709834989384    12.000000000000
         C            2.510163985089     1.154577076860    -0.165144010616    12.000000000000
         C            1.337436985089    -0.589136923140     1.106521989384    12.000000000000
         C            0.098688985089     0.915717076860    -0.483791010616    12.000000000000
         C           -1.134862014911     0.088936076860    -0.268633010616    12.000000000000
         C           -2.236432014911     0.642531076860     0.409468989384    12.000000000000
         C           -1.216316014911    -1.184784923140    -0.844588010616    12.000000000000
         C           -3.399456014911    -0.128486923140     0.513924989384    12.000000000000
         C           -2.160620014911     2.023736076860     1.006936989384    12.000000000000
         C           -2.390687014911    -1.931315923140    -0.741560010616    12.000000000000
         C           -3.484499014911    -1.400616923140    -0.056927010616    12.000000000000
         H            4.459058985089    -1.705941923140     0.093139989384     1.007825032230
         H            4.116966985089    -0.542406923140     1.370229989384     1.007825032230
         H            4.533786985089     0.678847076860    -0.739346010616     1.007825032230
         H            3.291725985089    -0.266059923140    -1.567397010616     1.007825032230
         H            2.029158985089    -2.152927923140    -0.189268010616     1.007825032230
         H            2.472708985089    -2.378311923140     1.507466989384     1.007825032230
         H            2.822837985089     1.671668076860     0.755142989384     1.007825032230
         H            2.313151985089     1.908940076860    -0.928064010616     1.007825032230
         H            0.352916985089    -1.037457923140     1.243032989384     1.007825032230
         H            1.576387385089    -0.206495123140     1.887443689384     1.007825032230
         H           -0.357213014911    -1.583160923140    -1.382059010616     1.007825032230
         H           -4.258405014911     0.279775076860     1.044062989384     1.007825032230
         H           -1.979367014911     2.768419076860     0.228156989384     1.007825032230
         H           -3.090897014911     2.269517076860     1.526197989384     1.007825032230
         H           -1.338513014911     2.100544076860     1.726686989384     1.007825032230
         H           -2.451748014911    -2.917284923140    -1.196094010616     1.007825032230
         H           -4.403962014911    -1.974379923140     0.033251989384     1.007825032230

  Basis Set: AUG-CC-PVTZ
    Blend: AUG-CC-PVTZ
  Basis Set: (AUG-CC-PVTZ AUX)
    Blend: AUG-CC-PVTZ-JKFIT
	 Reference Energy          =    -631.6992772304773780 [Eh]
	 Singles Energy            =      -0.0000000000000000 [Eh]
	 Same-Spin Energy          =      -0.6888224490806543 [Eh]
	 Opposite-Spin Energy      =      -2.2113553814420452 [Eh]
	 Correlation Energy        =      -2.9001778305226997 [Eh]
	 Total Energy              =    -634.5994550610000715 [Eh]

	 ================> DF-SCS-MP2 Energies <==================
	-----------------------------------------------------------
	 SCS Same-Spin Scale       =       0.3333333333333333 [-]
	 SCS Opposite-Spin Scale   =       1.2000000000000000 [-]
	 SCS Same-Spin Energy      =      -0.2296074830268847 [Eh]
	 SCS Opposite-Spin Energy  =      -2.6536264577304540 [Eh]
	 SCS Correlation Energy    =      -2.8832339407573389 [Eh]
	 SCS Total Energy          =    -634.5825111712347280 [Eh]
	-----------------------------------------------------------

  Dipole Moment: [D]
     X:     1.4684      Y:    -2.5189      Z:     2.4297     Total:     3.7954

*** Psi4 exiting successfully. Buy a developer a beer!
