                               Psi4 1.4a3.dev225

  ==> Input File <==

--------------------------------------------------------------------------
#psi4
#
memory 32 gb

molecule  {
0 1
  O        0.0109280     1.9504830    -1.2088660
  N        1.2104930     0.4628600     0.0596820
  C        3.6816010    -0.9509880     0.4072830
  C        3.5342200     0.1692850    -0.6230390
  C        2.3335540    -1.6180450     0.6838790
  C        2.4642000     1.1676880    -0.1911000
  C        1.2914730    -0.5760260     1.0805660
  C        0.0527250     0.9288280    -0.5097470
  C       -1.1808260     0.1020470    -0.2945890
  C       -2.2823960     0.6556420     0.3835130
  C       -1.2622800    -1.1716740    -0.8705440
  C       -3.4454200    -0.1153760     0.4879690
  C       -2.2065840     2.0368470     0.9809810
  C       -2.4366510    -1.9182050    -0.7675160
  C       -3.5304630    -1.3875060    -0.0828830
  H        4.4130950    -1.6928310     0.0671840
  H        4.0710030    -0.5292960     1.3442740
  H        4.4878230     0.6919580    -0.7653020
  H        3.2983613    -0.1759561    -1.4164197
  H        1.9831950    -2.1398170    -0.2152240
  H        2.4267450    -2.3652010     1.4815110
  H        2.7768740     1.6847790     0.7291870
  H        2.2671880     1.9220510    -0.9540200
  H        0.3069530    -1.0243470     1.2170770
  H        1.5834140    -0.1085280     2.0346680
  H       -0.4031770    -1.5700500    -1.4080150
  H       -4.3043690     0.2928860     1.0181070
  H       -2.0253310     2.7815300     0.2022010
  H       -3.1368610     2.2826280     1.5002420
  H       -1.3844770     2.1136550     1.7007310
  H       -2.4977120    -2.9041740    -1.2220500
  H       -4.4499260    -1.9612690     0.0072960
units angstrom
no_reorient  #important for SAPT in psi4, default
symmetry c1  #important for SAPT in psi4, default
}

set PROPERTIES_ORIGIN ["COM"]
properties('MP2/aug-cc-pvtz', properties = ['dipole'])
--------------------------------------------------------------------------

    Molecular point group: c1
  Charge       = 0
  Multiplicity = 1
  Basis Set: AUG-CC-PVTZ
    Blend: AUG-CC-PVTZ
  Basis Set: (AUG-CC-PVTZ AUX)
    Blend: AUG-CC-PVTZ-JKFIT

    Orbital Energies [Eh]
    ---------------------

    Doubly Occupied:

       1A    -20.510777     2A    -15.583855     3A    -11.349395
       4A    -11.266855     5A    -11.252967     6A    -11.251842
       7A    -11.246393     8A    -11.245042     9A    -11.242664
      10A    -11.239183    11A    -11.236992    12A    -11.230487
      13A    -11.226608    14A    -11.220292    15A    -11.200386
      16A     -1.366989    17A     -1.249729    18A     -1.161482
      19A     -1.088863    20A     -1.050793    21A     -1.039283
      22A     -1.026710    23A     -0.943207    24A     -0.918312
      25A     -0.878207    26A     -0.844106    27A     -0.817842
      28A     -0.799741    29A     -0.746189    30A     -0.712273
      31A     -0.666742    32A     -0.655944    33A     -0.648690
      34A     -0.634296    35A     -0.622092    36A     -0.615297
      37A     -0.598729    38A     -0.588655    39A     -0.575677
      40A     -0.571753    41A     -0.559831    42A     -0.547227
      43A     -0.541804    44A     -0.526325    45A     -0.513630
      46A     -0.506254    47A     -0.492607    48A     -0.489745
      49A     -0.482297    50A     -0.470566    51A     -0.460494
      52A     -0.416863    53A     -0.365811    54A     -0.340019
      55A     -0.330003

  @DF-RHF Final Energy:  -631.69753956867419

   => Energetics <=

    Nuclear Repulsion Energy =           1001.0129021010068300
    One-Electron Energy =               -2845.0832549452597959
    Two-Electron Energy =                1212.3728132755788920
    Total Energy =                       -631.6975395686740740
  Basis Set: (AUG-CC-PVTZ AUX)
    Blend: AUG-CC-PVTZ-RI
    Molecular point group: c1

    Geometry (in Angstrom), charge = 0, multiplicity = 1:

       Center              X                  Y                   Z               Mass
    ------------   -----------------  -----------------  -----------------  -----------------
         O            0.056368105735     1.936569070115    -1.184647082878    15.994914619570
         N            1.255933105735     0.448946070115     0.083900917122    14.003074004430
         C            3.727041105735    -0.964901929885     0.431501917122    12.000000000000
         C            3.579660105735     0.155371070115    -0.598820082878    12.000000000000
         C            2.378994105735    -1.631958929885     0.708097917122    12.000000000000
         C            2.509640105735     1.153774070115    -0.166881082878    12.000000000000
         C            1.336913105735    -0.589939929885     1.104784917122    12.000000000000
         C            0.098165105735     0.914914070115    -0.485528082878    12.000000000000
         C           -1.135385894265     0.088133070115    -0.270370082878    12.000000000000
         C           -2.236955894265     0.641728070115     0.407731917122    12.000000000000
         C           -1.216839894265    -1.185587929885    -0.846325082878    12.000000000000
         C           -3.399979894265    -0.129289929885     0.512187917122    12.000000000000
         C           -2.161143894265     2.022933070115     1.005199917122    12.000000000000
         C           -2.391210894265    -1.932118929885    -0.743297082878    12.000000000000
         C           -3.485022894265    -1.401419929885    -0.058664082878    12.000000000000
         H            4.458535105735    -1.706744929885     0.091402917122     1.007825032230
         H            4.116443105735    -0.543209929885     1.368492917122     1.007825032230
         H            4.533263105735     0.678044070115    -0.741083082878     1.007825032230
         H            3.343801405735    -0.189870029885    -1.392200782878     1.007825032230
         H            2.028635105735    -2.153730929885    -0.191005082878     1.007825032230
         H            2.472185105735    -2.379114929885     1.505729917122     1.007825032230
         H            2.822314105735     1.670865070115     0.753405917122     1.007825032230
         H            2.312628105735     1.908137070115    -0.929801082878     1.007825032230
         H            0.352393105735    -1.038260929885     1.241295917122     1.007825032230
         H            1.628854105735    -0.122441929885     2.058886917122     1.007825032230
         H           -0.357736894265    -1.583963929885    -1.383796082878     1.007825032230
         H           -4.258928894265     0.278972070115     1.042325917122     1.007825032230
         H           -1.979890894265     2.767616070115     0.226419917122     1.007825032230
         H           -3.091420894265     2.268714070115     1.524460917122     1.007825032230
         H           -1.339036894265     2.099741070115     1.724949917122     1.007825032230
         H           -2.452271894265    -2.918087929885    -1.197831082878     1.007825032230
         H           -4.404485894265    -1.975182929885     0.031514917122     1.007825032230

  Basis Set: AUG-CC-PVTZ
    Blend: AUG-CC-PVTZ
  Basis Set: (AUG-CC-PVTZ AUX)
    Blend: AUG-CC-PVTZ-JKFIT
	 Reference Energy          =    -631.6975395686741876 [Eh]
	 Singles Energy            =      -0.0000000000000000 [Eh]
	 Same-Spin Energy          =      -0.6890370139095034 [Eh]
	 Opposite-Spin Energy      =      -2.2115690195223743 [Eh]
	 Correlation Energy        =      -2.9006060334318775 [Eh]
	 Total Energy              =    -634.5981456021061149 [Eh]

	 ================> DF-SCS-MP2 Energies <==================
	-----------------------------------------------------------
	 SCS Same-Spin Scale       =       0.3333333333333333 [-]
	 SCS Opposite-Spin Scale   =       1.2000000000000000 [-]
	 SCS Same-Spin Energy      =      -0.2296790046365011 [Eh]
	 SCS Opposite-Spin Energy  =      -2.6538828234268492 [Eh]
	 SCS Correlation Energy    =      -2.8835618280633502 [Eh]
	 SCS Total Energy          =    -634.5811013967374947 [Eh]
	-----------------------------------------------------------

  Dipole Moment: [D]
     X:     1.3988      Y:    -2.5441      Z:     2.2215     Total:     3.6557

*** Psi4 exiting successfully. Buy a developer a beer!
