                               Psi4 1.4a3.dev225

  ==> Input File <==

--------------------------------------------------------------------------
#psi4
#
memory 32 gb

molecule  {
0 1
  O        0.0109280     1.9504830    -1.2088660
  N        1.2178712     0.5170711     0.2023684
  C        3.6816010    -0.9509880     0.4072830
  C        3.5342200     0.1692850    -0.6230390
  C        2.3335540    -1.6180450     0.6838790
  C        2.4642000     1.1676880    -0.1911000
  C        1.2914730    -0.5760260     1.0805660
  C        0.0527250     0.9288280    -0.5097470
  C       -1.1808260     0.1020470    -0.2945890
  C       -2.2823960     0.6556420     0.3835130
  C       -1.2622800    -1.1716740    -0.8705440
  C       -3.4454200    -0.1153760     0.4879690
  C       -2.2065840     2.0368470     0.9809810
  C       -2.4366510    -1.9182050    -0.7675160
  C       -3.5304630    -1.3875060    -0.0828830
  H        4.4130950    -1.6928310     0.0671840
  H        4.0710030    -0.5292960     1.3442740
  H        4.4878230     0.6919580    -0.7653020
  H        3.2457620    -0.2529490    -1.5933530
  H        1.9831950    -2.1398170    -0.2152240
  H        2.4267450    -2.3652010     1.4815110
  H        2.7768740     1.6847790     0.7291870
  H        2.2671880     1.9220510    -0.9540200
  H        0.3069530    -1.0243470     1.2170770
  H        1.5834140    -0.1085280     2.0346680
  H       -0.4031770    -1.5700500    -1.4080150
  H       -4.3043690     0.2928860     1.0181070
  H       -2.0253310     2.7815300     0.2022010
  H       -3.1368610     2.2826280     1.5002420
  H       -1.3844770     2.1136550     1.7007310
  H       -2.4977120    -2.9041740    -1.2220500
  H       -4.4499260    -1.9612690     0.0072960
units angstrom
no_reorient  #important for SAPT in psi4, default
symmetry c1  #important for SAPT in psi4, default
}

set PROPERTIES_ORIGIN ["COM"]
properties('MP2/aug-cc-pvtz', properties = ['dipole'])
--------------------------------------------------------------------------

    Molecular point group: c1
  Charge       = 0
  Multiplicity = 1
  Basis Set: AUG-CC-PVTZ
    Blend: AUG-CC-PVTZ
  Basis Set: (AUG-CC-PVTZ AUX)
    Blend: AUG-CC-PVTZ-JKFIT

    Orbital Energies [Eh]
    ---------------------

    Doubly Occupied:

       1A    -20.520523     2A    -15.580506     3A    -11.357603
       4A    -11.259527     5A    -11.253282     6A    -11.253162
       7A    -11.248010     8A    -11.246794     9A    -11.243763
      10A    -11.240270    11A    -11.238068    12A    -11.228991
      13A    -11.227401    14A    -11.225902    15A    -11.220863
      16A     -1.368728    17A     -1.253077    18A     -1.162753
      19A     -1.079678    20A     -1.051751    21A     -1.036791
      22A     -1.025816    23A     -0.942577    24A     -0.910839
      25A     -0.870805    26A     -0.847276    27A     -0.817324
      28A     -0.791043    29A     -0.738467    30A     -0.710055
      31A     -0.668855    32A     -0.653974    33A     -0.646393
      34A     -0.626918    35A     -0.621528    36A     -0.617765
      37A     -0.597861    38A     -0.584813    39A     -0.578446
      40A     -0.572783    41A     -0.568115    42A     -0.547354
      43A     -0.543178    44A     -0.519534    45A     -0.510044
      46A     -0.499208    47A     -0.491163    48A     -0.489302
      49A     -0.480834    50A     -0.466967    51A     -0.465425
      52A     -0.419100    53A     -0.357730    54A     -0.341413
      55A     -0.331270

  @DF-RHF Final Energy:  -631.71961503298917

   => Energetics <=

    Nuclear Repulsion Energy =            999.1710662411310295
    One-Electron Energy =               -2841.4781190491571579
    Two-Electron Energy =                1210.5874377750369604
    Total Energy =                       -631.7196150329891680
  Basis Set: (AUG-CC-PVTZ AUX)
    Blend: AUG-CC-PVTZ-RI
    Molecular point group: c1

    Geometry (in Angstrom), charge = 0, multiplicity = 1:

       Center              X                  Y                   Z               Mass
    ------------   -----------------  -----------------  -----------------  -----------------
         O            0.056120449859     1.933213961217    -1.193605490422    15.994914619570
         N            1.263063649859     0.499802061217     0.217628909578    14.003074004430
         C            3.726793449859    -0.968257038783     0.422543509578    12.000000000000
         C            3.579412449859     0.152015961217    -0.607778490422    12.000000000000
         C            2.378746449859    -1.635314038783     0.699139509578    12.000000000000
         C            2.509392449859     1.150418961217    -0.175839490422    12.000000000000
         C            1.336665449859    -0.593295038783     1.095826509578    12.000000000000
         C            0.097917449859     0.911558961217    -0.494486490422    12.000000000000
         C           -1.135633550141     0.084777961217    -0.279328490422    12.000000000000
         C           -2.237203550141     0.638372961217     0.398773509578    12.000000000000
         C           -1.217087550141    -1.188943038783    -0.855283490422    12.000000000000
         C           -3.400227550141    -0.132645038783     0.503229509578    12.000000000000
         C           -2.161391550141     2.019577961217     0.996241509578    12.000000000000
         C           -2.391458550141    -1.935474038783    -0.752255490422    12.000000000000
         C           -3.485270550141    -1.404775038783    -0.067622490422    12.000000000000
         H            4.458287449859    -1.710100038783     0.082444509578     1.007825032230
         H            4.116195449859    -0.546565038783     1.359534509578     1.007825032230
         H            4.533015449859     0.674688961217    -0.750041490422     1.007825032230
         H            3.290954449859    -0.270218038783    -1.578092490422     1.007825032230
         H            2.028387449859    -2.157086038783    -0.199963490422     1.007825032230
         H            2.471937449859    -2.382470038783     1.496771509578     1.007825032230
         H            2.822066449859     1.667509961217     0.744447509578     1.007825032230
         H            2.312380449859     1.904781961217    -0.938759490422     1.007825032230
         H            0.352145449859    -1.041616038783     1.232337509578     1.007825032230
         H            1.628606449859    -0.125797038783     2.049928509578     1.007825032230
         H           -0.357984550141    -1.587319038783    -1.392754490422     1.007825032230
         H           -4.259176550141     0.275616961217     1.033367509578     1.007825032230
         H           -1.980138550141     2.764260961217     0.217461509578     1.007825032230
         H           -3.091668550141     2.265358961217     1.515502509578     1.007825032230
         H           -1.339284550141     2.096385961217     1.715991509578     1.007825032230
         H           -2.452519550141    -2.921443038783    -1.206789490422     1.007825032230
         H           -4.404733550141    -1.978538038783     0.022556509578     1.007825032230

  Basis Set: AUG-CC-PVTZ
    Blend: AUG-CC-PVTZ
  Basis Set: (AUG-CC-PVTZ AUX)
    Blend: AUG-CC-PVTZ-JKFIT
	 Reference Energy          =    -631.7196150329891680 [Eh]
	 Singles Energy            =      -0.0000000000000000 [Eh]
	 Same-Spin Energy          =      -0.6898904767220970 [Eh]
	 Opposite-Spin Energy      =      -2.2138070910505436 [Eh]
	 Correlation Energy        =      -2.9036975677726407 [Eh]
	 Total Energy              =    -634.6233126007617784 [Eh]

	 ================> DF-SCS-MP2 Energies <==================
	-----------------------------------------------------------
	 SCS Same-Spin Scale       =       0.3333333333333333 [-]
	 SCS Opposite-Spin Scale   =       1.2000000000000000 [-]
	 SCS Same-Spin Energy      =      -0.2299634922406990 [Eh]
	 SCS Opposite-Spin Energy  =      -2.6565685092606524 [Eh]
	 SCS Correlation Energy    =      -2.8865320015013514 [Eh]
	 SCS Total Energy          =    -634.6061470344905047 [Eh]
	-----------------------------------------------------------

  Dipole Moment: [D]
     X:     1.2146      Y:    -2.4801      Z:     2.0001     Total:     3.4097

*** Psi4 exiting successfully. Buy a developer a beer!
