                               Psi4 1.4a3.dev225

  ==> Input File <==

--------------------------------------------------------------------------
#psi4
#
memory 32 gb

molecule  {
0 1
  O        0.0109280     1.9504830    -1.2088660
  N        1.2104930     0.4628600     0.0596820
  C        3.6816010    -0.9509880     0.4072830
  C        3.5342200     0.1692850    -0.6230390
  C        2.3335540    -1.6180450     0.6838790
  C        2.4881907     1.1336046    -0.1617807
  C        1.2914730    -0.5760260     1.0805660
  C        0.0527250     0.9288280    -0.5097470
  C       -1.1808260     0.1020470    -0.2945890
  C       -2.2823960     0.6556420     0.3835130
  C       -1.2622800    -1.1716740    -0.8705440
  C       -3.4454200    -0.1153760     0.4879690
  C       -2.2065840     2.0368470     0.9809810
  C       -2.4366510    -1.9182050    -0.7675160
  C       -3.5304630    -1.3875060    -0.0828830
  H        4.4130950    -1.6928310     0.0671840
  H        4.0710030    -0.5292960     1.3442740
  H        4.4878230     0.6919580    -0.7653020
  H        3.2457620    -0.2529490    -1.5933530
  H        1.9831950    -2.1398170    -0.2152240
  H        2.4267450    -2.3652010     1.4815110
  H        2.7768740     1.6847790     0.7291870
  H        2.2671880     1.9220510    -0.9540200
  H        0.3069530    -1.0243470     1.2170770
  H        1.5834140    -0.1085280     2.0346680
  H       -0.4031770    -1.5700500    -1.4080150
  H       -4.3043690     0.2928860     1.0181070
  H       -2.0253310     2.7815300     0.2022010
  H       -3.1368610     2.2826280     1.5002420
  H       -1.3844770     2.1136550     1.7007310
  H       -2.4977120    -2.9041740    -1.2220500
  H       -4.4499260    -1.9612690     0.0072960
units angstrom
no_reorient  #important for SAPT in psi4, default
symmetry c1  #important for SAPT in psi4, default
}

set PROPERTIES_ORIGIN ["COM"]
properties('MP2/aug-cc-pvtz', properties = ['dipole'])
--------------------------------------------------------------------------

    Molecular point group: c1
  Charge       = 0
  Multiplicity = 1
  Basis Set: AUG-CC-PVTZ
    Blend: AUG-CC-PVTZ
  Basis Set: (AUG-CC-PVTZ AUX)
    Blend: AUG-CC-PVTZ-JKFIT

    Orbital Energies [Eh]
    ---------------------

    Doubly Occupied:

       1A    -20.510927     2A    -15.583687     3A    -11.350261
       4A    -11.265946     5A    -11.255374     6A    -11.252035
       7A    -11.246565     8A    -11.245317     9A    -11.242781
      10A    -11.239225    11A    -11.237073    12A    -11.230515
      13A    -11.227718    14A    -11.224789    15A    -11.220413
      16A     -1.366675    17A     -1.250320    18A     -1.161603
      19A     -1.085947    20A     -1.050860    21A     -1.037505
      22A     -1.024478    23A     -0.943372    24A     -0.919372
      25A     -0.866576    26A     -0.843278    27A     -0.815719
      28A     -0.792424    29A     -0.742790    30A     -0.712119
      31A     -0.666336    32A     -0.652933    33A     -0.648837
      34A     -0.627788    35A     -0.620490    36A     -0.616180
      37A     -0.596393    38A     -0.588404    39A     -0.575382
      40A     -0.572040    41A     -0.556446    42A     -0.548536
      43A     -0.541853    44A     -0.524612    45A     -0.509167
      46A     -0.503502    47A     -0.491744    48A     -0.489240
      49A     -0.480872    50A     -0.469009    51A     -0.454014
      52A     -0.416451    53A     -0.367855    54A     -0.340069
      55A     -0.330127

  @DF-RHF Final Energy:  -631.72689580160841

   => Energetics <=

    Nuclear Repulsion Energy =           1000.2581337873208440
    One-Electron Energy =               -2843.7021665699685400
    Two-Electron Energy =                1211.7171369810394026
    Total Energy =                       -631.7268958016084071
  Basis Set: (AUG-CC-PVTZ AUX)
    Blend: AUG-CC-PVTZ-RI
    Molecular point group: c1

    Geometry (in Angstrom), charge = 0, multiplicity = 1:

       Center              X                  Y                   Z               Mass
    ------------   -----------------  -----------------  -----------------  -----------------
         O            0.055211819928     1.938964549574    -1.185501279328    15.994914619570
         N            1.254776819928     0.451341549574     0.083046720672    14.003074004430
         C            3.725884819928    -0.962506450426     0.430647720672    12.000000000000
         C            3.578503819928     0.157766549574    -0.599674279328    12.000000000000
         C            2.377837819928    -1.629563450426     0.707243720672    12.000000000000
         C            2.532474519928     1.122086149574    -0.138415979328    12.000000000000
         C            1.335756819928    -0.587544450426     1.103930720672    12.000000000000
         C            0.097008819928     0.917309549574    -0.486382279328    12.000000000000
         C           -1.136542180072     0.090528549574    -0.271224279328    12.000000000000
         C           -2.238112180072     0.644123549574     0.406877720672    12.000000000000
         C           -1.217996180072    -1.183192450426    -0.847179279328    12.000000000000
         C           -3.401136180072    -0.126894450426     0.511333720672    12.000000000000
         C           -2.162300180072     2.025328549574     1.004345720672    12.000000000000
         C           -2.392367180072    -1.929723450426    -0.744151279328    12.000000000000
         C           -3.486179180072    -1.399024450426    -0.059518279328    12.000000000000
         H            4.457378819928    -1.704349450426     0.090548720672     1.007825032230
         H            4.115286819928    -0.540814450426     1.367638720672     1.007825032230
         H            4.532106819928     0.680439549574    -0.741937279328     1.007825032230
         H            3.290045819928    -0.264467450426    -1.569988279328     1.007825032230
         H            2.027478819928    -2.151335450426    -0.191859279328     1.007825032230
         H            2.471028819928    -2.376719450426     1.504875720672     1.007825032230
         H            2.821157819928     1.673260549574     0.752551720672     1.007825032230
         H            2.311471819928     1.910532549574    -0.930655279328     1.007825032230
         H            0.351236819928    -1.035865450426     1.240441720672     1.007825032230
         H            1.627697819928    -0.120046450426     2.058032720672     1.007825032230
         H           -0.358893180072    -1.581568450426    -1.384650279328     1.007825032230
         H           -4.260085180072     0.281367549574     1.041471720672     1.007825032230
         H           -1.981047180072     2.770011549574     0.225565720672     1.007825032230
         H           -3.092577180072     2.271109549574     1.523606720672     1.007825032230
         H           -1.340193180072     2.102136549574     1.724095720672     1.007825032230
         H           -2.453428180072    -2.915692450426    -1.198685279328     1.007825032230
         H           -4.405642180072    -1.972787450426     0.030660720672     1.007825032230

  Basis Set: AUG-CC-PVTZ
    Blend: AUG-CC-PVTZ
  Basis Set: (AUG-CC-PVTZ AUX)
    Blend: AUG-CC-PVTZ-JKFIT
	 Reference Energy          =    -631.7268958016084071 [Eh]
	 Singles Energy            =      -0.0000000000000000 [Eh]
	 Same-Spin Energy          =      -0.6894805362893639 [Eh]
	 Opposite-Spin Energy      =      -2.2129152472686298 [Eh]
	 Correlation Energy        =      -2.9023957835579939 [Eh]
	 Total Energy              =    -634.6292915851663565 [Eh]

	 ================> DF-SCS-MP2 Energies <==================
	-----------------------------------------------------------
	 SCS Same-Spin Scale       =       0.3333333333333333 [-]
	 SCS Opposite-Spin Scale   =       1.2000000000000000 [-]
	 SCS Same-Spin Energy      =      -0.2298268454297880 [Eh]
	 SCS Opposite-Spin Energy  =      -2.6554982967223557 [Eh]
	 SCS Correlation Energy    =      -2.8853251421521438 [Eh]
	 SCS Total Energy          =    -634.6122209437605761 [Eh]
	-----------------------------------------------------------

  Dipole Moment: [D]
     X:     1.3983      Y:    -2.5191      Z:     2.3035     Total:     3.6888

*** Psi4 exiting successfully. Buy a developer a beer!
