                               Psi4 1.4a3.dev225

  ==> Input File <==

--------------------------------------------------------------------------
#psi4
#
memory 32 gb

molecule  {
0 1
  O        0.0109280     1.9504830    -1.2088660
  N        1.2104930     0.4628600     0.0596820
  C        3.6816010    -0.9509880     0.4072830
  C        3.5342200     0.1692850    -0.6230390
  C        2.2795901    -1.4729284     0.7245284
  C        2.4642000     1.1676880    -0.1911000
  C        1.2914730    -0.5760260     1.0805660
  C        0.0527250     0.9288280    -0.5097470
  C       -1.1808260     0.1020470    -0.2945890
  C       -2.2823960     0.6556420     0.3835130
  C       -1.2622800    -1.1716740    -0.8705440
  C       -3.4454200    -0.1153760     0.4879690
  C       -2.2065840     2.0368470     0.9809810
  C       -2.4366510    -1.9182050    -0.7675160
  C       -3.5304630    -1.3875060    -0.0828830
  H        4.4130950    -1.6928310     0.0671840
  H        4.0710030    -0.5292960     1.3442740
  H        4.4878230     0.6919580    -0.7653020
  H        3.2457620    -0.2529490    -1.5933530
  H        1.9831950    -2.1398170    -0.2152240
  H        2.4267450    -2.3652010     1.4815110
  H        2.7768740     1.6847790     0.7291870
  H        2.2671880     1.9220510    -0.9540200
  H        0.3069530    -1.0243470     1.2170770
  H        1.5834140    -0.1085280     2.0346680
  H       -0.4031770    -1.5700500    -1.4080150
  H       -4.3043690     0.2928860     1.0181070
  H       -2.0253310     2.7815300     0.2022010
  H       -3.1368610     2.2826280     1.5002420
  H       -1.3844770     2.1136550     1.7007310
  H       -2.4977120    -2.9041740    -1.2220500
  H       -4.4499260    -1.9612690     0.0072960
units angstrom
no_reorient  #important for SAPT in psi4, default
symmetry c1  #important for SAPT in psi4, default
}

set PROPERTIES_ORIGIN ["COM"]
properties('MP2/aug-cc-pvtz', properties = ['dipole'])
--------------------------------------------------------------------------

    Molecular point group: c1
  Charge       = 0
  Multiplicity = 1
  Basis Set: AUG-CC-PVTZ
    Blend: AUG-CC-PVTZ
  Basis Set: (AUG-CC-PVTZ AUX)
    Blend: AUG-CC-PVTZ-JKFIT

    Orbital Energies [Eh]
    ---------------------

    Doubly Occupied:

       1A    -20.511333     2A    -15.583719     3A    -11.350017
       4A    -11.262596     5A    -11.255507     6A    -11.252268
       7A    -11.246490     8A    -11.245244     9A    -11.242948
      10A    -11.239257    11A    -11.239109    12A    -11.237224
      13A    -11.231010    14A    -11.224882    15A    -11.220711
      16A     -1.367803    17A     -1.256462    18A     -1.161872
      19A     -1.091746    20A     -1.052347    21A     -1.047989
      22A     -1.027870    23A     -0.945094    24A     -0.923401
      25A     -0.862975    26A     -0.841343    27A     -0.814659
      28A     -0.789020    29A     -0.745220    30A     -0.715791
      31A     -0.670585    32A     -0.655942    33A     -0.650962
      34A     -0.629535    35A     -0.621494    36A     -0.615855
      37A     -0.597214    38A     -0.586827    39A     -0.575880
      40A     -0.570452    41A     -0.567375    42A     -0.561945
      43A     -0.542914    44A     -0.526301    45A     -0.510801
      46A     -0.495592    47A     -0.492446    48A     -0.489001
      49A     -0.483579    50A     -0.449736    51A     -0.443906
      52A     -0.417581    53A     -0.370695    54A     -0.340414
      55A     -0.330329

  @DF-RHF Final Energy:  -631.70012972051040

   => Energetics <=

    Nuclear Repulsion Energy =           1002.8702263662443102
    One-Electron Energy =               -2848.7741773409079542
    Two-Electron Energy =                1214.2038212541531266
    Total Energy =                       -631.7001297205104038
  Basis Set: (AUG-CC-PVTZ AUX)
    Blend: AUG-CC-PVTZ-RI
    Molecular point group: c1

    Geometry (in Angstrom), charge = 0, multiplicity = 1:

       Center              X                  Y                   Z               Mass
    ------------   -----------------  -----------------  -----------------  -----------------
         O            0.059817001484     1.928378278400    -1.186170606957    15.994914619570
         N            1.259382001484     0.440755278400     0.082377393043    14.003074004430
         C            3.730490001484    -0.973092721600     0.429978393043    12.000000000000
         C            3.583109001484     0.147180278400    -0.600343606957    12.000000000000
         C            2.328479101484    -1.495033121600     0.747223793043    12.000000000000
         C            2.513089001484     1.145583278400    -0.168404606957    12.000000000000
         C            1.340362001484    -0.598130721600     1.103261393043    12.000000000000
         C            0.101614001484     0.906723278400    -0.487051606957    12.000000000000
         C           -1.131936998516     0.079942278400    -0.271893606957    12.000000000000
         C           -2.233506998516     0.633537278400     0.406208393043    12.000000000000
         C           -1.213390998516    -1.193778721600    -0.847848606957    12.000000000000
         C           -3.396530998516    -0.137480721600     0.510664393043    12.000000000000
         C           -2.157694998516     2.014742278400     1.003676393043    12.000000000000
         C           -2.387761998516    -1.940309721600    -0.744820606957    12.000000000000
         C           -3.481573998516    -1.409610721600    -0.060187606957    12.000000000000
         H            4.461984001484    -1.714935721600     0.089879393043     1.007825032230
         H            4.119892001484    -0.551400721600     1.366969393043     1.007825032230
         H            4.536712001484     0.669853278400    -0.742606606957     1.007825032230
         H            3.294651001484    -0.275053721600    -1.570657606957     1.007825032230
         H            2.032084001484    -2.161921721600    -0.192528606957     1.007825032230
         H            2.475634001484    -2.387305721600     1.504206393043     1.007825032230
         H            2.825763001484     1.662674278400     0.751882393043     1.007825032230
         H            2.316077001484     1.899946278400    -0.931324606957     1.007825032230
         H            0.355842001484    -1.046451721600     1.239772393043     1.007825032230
         H            1.632303001484    -0.130632721600     2.057363393043     1.007825032230
         H           -0.354287998516    -1.592154721600    -1.385319606957     1.007825032230
         H           -4.255479998516     0.270781278400     1.040802393043     1.007825032230
         H           -1.976441998516     2.759425278400     0.224896393043     1.007825032230
         H           -3.087971998516     2.260523278400     1.522937393043     1.007825032230
         H           -1.335587998516     2.091550278400     1.723426393043     1.007825032230
         H           -2.448822998516    -2.926278721600    -1.199354606957     1.007825032230
         H           -4.401036998516    -1.983373721600     0.029991393043     1.007825032230

  Basis Set: AUG-CC-PVTZ
    Blend: AUG-CC-PVTZ
  Basis Set: (AUG-CC-PVTZ AUX)
    Blend: AUG-CC-PVTZ-JKFIT
	 Reference Energy          =    -631.7001297205104038 [Eh]
	 Singles Energy            =      -0.0000000000000000 [Eh]
	 Same-Spin Energy          =      -0.6909481056744919 [Eh]
	 Opposite-Spin Energy      =      -2.2148314621447338 [Eh]
	 Correlation Energy        =      -2.9057795678192258 [Eh]
	 Total Energy              =    -634.6059092883295989 [Eh]

	 ================> DF-SCS-MP2 Energies <==================
	-----------------------------------------------------------
	 SCS Same-Spin Scale       =       0.3333333333333333 [-]
	 SCS Opposite-Spin Scale   =       1.2000000000000000 [-]
	 SCS Same-Spin Energy      =      -0.2303160352248306 [Eh]
	 SCS Opposite-Spin Energy  =      -2.6577977545736804 [Eh]
	 SCS Correlation Energy    =      -2.8881137897985112 [Eh]
	 SCS Total Energy          =    -634.5882435103088710 [Eh]
	-----------------------------------------------------------

  Dipole Moment: [D]
     X:     1.4052      Y:    -2.4704      Z:     2.3060     Total:     3.6600

*** Psi4 exiting successfully. Buy a developer a beer!
