                               Psi4 1.4a3.dev225

  ==> Input File <==

--------------------------------------------------------------------------
#psi4
#
memory 32 gb

molecule  {
0 1
  O        0.0109280     1.9504830    -1.2088660
  N        1.2104930     0.4628600     0.0596820
  C        3.6816010    -0.9509880     0.4072830
  C        3.5342200     0.1692850    -0.6230390
  C        2.3335540    -1.6180450     0.6838790
  C        2.4642000     1.1676880    -0.1911000
  C        1.2914730    -0.5760260     1.0805660
  C        0.0527250     0.9288280    -0.5097470
  C       -1.1808260     0.1020470    -0.2945890
  C       -2.2823960     0.6556420     0.3835130
  C       -1.2622800    -1.1716740    -0.8705440
  C       -3.4454200    -0.1153760     0.4879690
  C       -2.2065840     2.0368470     0.9809810
  C       -2.4366510    -1.9182050    -0.7675160
  C       -3.5304630    -1.3875060    -0.0828830
  H        4.4130950    -1.6928310     0.0671840
  H        4.0710030    -0.5292960     1.3442740
  H        4.4008722     0.6443000    -0.7523303
  H        3.2457620    -0.2529490    -1.5933530
  H        1.9831950    -2.1398170    -0.2152240
  H        2.4267450    -2.3652010     1.4815110
  H        2.7768740     1.6847790     0.7291870
  H        2.2671880     1.9220510    -0.9540200
  H        0.3069530    -1.0243470     1.2170770
  H        1.5834140    -0.1085280     2.0346680
  H       -0.4031770    -1.5700500    -1.4080150
  H       -4.3043690     0.2928860     1.0181070
  H       -2.0253310     2.7815300     0.2022010
  H       -3.1368610     2.2826280     1.5002420
  H       -1.3844770     2.1136550     1.7007310
  H       -2.4977120    -2.9041740    -1.2220500
  H       -4.4499260    -1.9612690     0.0072960
units angstrom
no_reorient  #important for SAPT in psi4, default
symmetry c1  #important for SAPT in psi4, default
}

set PROPERTIES_ORIGIN ["COM"]
properties('MP2/aug-cc-pvtz', properties = ['dipole'])
--------------------------------------------------------------------------

    Molecular point group: c1
  Charge       = 0
  Multiplicity = 1
  Basis Set: AUG-CC-PVTZ
    Blend: AUG-CC-PVTZ
  Basis Set: (AUG-CC-PVTZ AUX)
    Blend: AUG-CC-PVTZ-JKFIT

    Orbital Energies [Eh]
    ---------------------

    Doubly Occupied:

       1A    -20.510330     2A    -15.583281     3A    -11.348981
       4A    -11.266592     5A    -11.253926     6A    -11.251577
       7A    -11.246044     8A    -11.244713     9A    -11.242395
      10A    -11.238887    11A    -11.236736    12A    -11.229949
      13A    -11.227527    14A    -11.220116    15A    -11.213131
      16A     -1.366548    17A     -1.249032    18A     -1.161164
      19A     -1.085176    20A     -1.050533    21A     -1.037817
      22A     -1.024769    23A     -0.942947    24A     -0.918382
      25A     -0.872701    26A     -0.843931    27A     -0.815712
      28A     -0.793504    29A     -0.742236    30A     -0.712825
      31A     -0.666446    32A     -0.652886    33A     -0.648506
      34A     -0.632942    35A     -0.620991    36A     -0.615318
      37A     -0.595887    38A     -0.591619    39A     -0.575462
      40A     -0.571517    41A     -0.560434    42A     -0.549904
      43A     -0.541422    44A     -0.524451    45A     -0.507929
      46A     -0.501859    47A     -0.491955    48A     -0.489118
      49A     -0.477999    50A     -0.471977    51A     -0.462345
      52A     -0.416704    53A     -0.365700    54A     -0.339720
      55A     -0.329736

  @DF-RHF Final Energy:  -631.72497708350784

   => Energetics <=

    Nuclear Repulsion Energy =           1000.5579613553085210
    One-Electron Energy =               -2844.2973061179868637
    Two-Electron Energy =                1212.0143676791703911
    Total Energy =                       -631.7249770835078380
  Basis Set: (AUG-CC-PVTZ AUX)
    Blend: AUG-CC-PVTZ-RI
    Molecular point group: c1

    Geometry (in Angstrom), charge = 0, multiplicity = 1:

       Center              X                  Y                   Z               Mass
    ------------   -----------------  -----------------  -----------------  -----------------
         O            0.057060477034     1.937187519729    -1.183833595063    15.994914619570
         N            1.256625477034     0.449564519729     0.084714404937    14.003074004430
         C            3.727733477034    -0.964283480271     0.432315404937    12.000000000000
         C            3.580352477034     0.155989519729    -0.598006595063    12.000000000000
         C            2.379686477034    -1.631340480271     0.708911404937    12.000000000000
         C            2.510332477034     1.154392519729    -0.166067595063    12.000000000000
         C            1.337605477034    -0.589321480271     1.105598404937    12.000000000000
         C            0.098857477034     0.915532519729    -0.484714595063    12.000000000000
         C           -1.134693522966     0.088751519729    -0.269556595063    12.000000000000
         C           -2.236263522966     0.642346519729     0.408545404937    12.000000000000
         C           -1.216147522966    -1.184969480271    -0.845511595063    12.000000000000
         C           -3.399287522966    -0.128671480271     0.513001404937    12.000000000000
         C           -2.160451522966     2.023551519729     1.006013404937    12.000000000000
         C           -2.390518522966    -1.931500480271    -0.742483595063    12.000000000000
         C           -3.484330522966    -1.400801480271    -0.057850595063    12.000000000000
         H            4.459227477034    -1.706126480271     0.092216404937     1.007825032230
         H            4.117135477034    -0.542591480271     1.369306404937     1.007825032230
         H            4.447004677034     0.631004519729    -0.727297895063     1.007825032230
         H            3.291894477034    -0.266244480271    -1.568320595063     1.007825032230
         H            2.029327477034    -2.153112480271    -0.190191595063     1.007825032230
         H            2.472877477034    -2.378496480271     1.506543404937     1.007825032230
         H            2.823006477034     1.671483519729     0.754219404937     1.007825032230
         H            2.313320477034     1.908755519729    -0.928987595063     1.007825032230
         H            0.353085477034    -1.037642480271     1.242109404937     1.007825032230
         H            1.629546477034    -0.121823480271     2.059700404937     1.007825032230
         H           -0.357044522966    -1.583345480271    -1.382982595063     1.007825032230
         H           -4.258236522966     0.279590519729     1.043139404937     1.007825032230
         H           -1.979198522966     2.768234519729     0.227233404937     1.007825032230
         H           -3.090728522966     2.269332519729     1.525274404937     1.007825032230
         H           -1.338344522966     2.100359519729     1.725763404937     1.007825032230
         H           -2.451579522966    -2.917469480271    -1.197017595063     1.007825032230
         H           -4.403793522966    -1.974564480271     0.032328404937     1.007825032230

  Basis Set: AUG-CC-PVTZ
    Blend: AUG-CC-PVTZ
  Basis Set: (AUG-CC-PVTZ AUX)
    Blend: AUG-CC-PVTZ-JKFIT
	 Reference Energy          =    -631.7249770835078380 [Eh]
	 Singles Energy            =      -0.0000000000000000 [Eh]
	 Same-Spin Energy          =      -0.6890110464493886 [Eh]
	 Opposite-Spin Energy      =      -2.2117146232539477 [Eh]
	 Correlation Energy        =      -2.9007256697033363 [Eh]
	 Total Energy              =    -634.6257027532111579 [Eh]

	 ================> DF-SCS-MP2 Energies <==================
	-----------------------------------------------------------
	 SCS Same-Spin Scale       =       0.3333333333333333 [-]
	 SCS Opposite-Spin Scale   =       1.2000000000000000 [-]
	 SCS Same-Spin Energy      =      -0.2296703488164629 [Eh]
	 SCS Opposite-Spin Energy  =      -2.6540575479047370 [Eh]
	 SCS Correlation Energy    =      -2.8837278967211999 [Eh]
	 SCS Total Energy          =    -634.6087049802290494 [Eh]
	-----------------------------------------------------------

  Dipole Moment: [D]
     X:     1.4734      Y:    -2.4924      Z:     2.2835     Total:     3.6874

*** Psi4 exiting successfully. Buy a developer a beer!
