                               Psi4 1.4a3.dev225

  ==> Input File <==

--------------------------------------------------------------------------
#psi4
#
memory 32 gb

molecule  {
0 1
  O        0.0109280     1.9504830    -1.2088660
  N        1.2104930     0.4628600     0.0596820
  C        3.6816010    -0.9509880     0.4072830
  C        3.5342200     0.1692850    -0.6230390
  C        2.3335540    -1.6180450     0.6838790
  C        2.4642000     1.1676880    -0.1911000
  C        1.2778166    -0.5623704     1.0857646
  C        0.0527250     0.9288280    -0.5097470
  C       -1.1808260     0.1020470    -0.2945890
  C       -2.2823960     0.6556420     0.3835130
  C       -1.2622800    -1.1716740    -0.8705440
  C       -3.4454200    -0.1153760     0.4879690
  C       -2.2065840     2.0368470     0.9809810
  C       -2.4366510    -1.9182050    -0.7675160
  C       -3.5304630    -1.3875060    -0.0828830
  H        4.4130950    -1.6928310     0.0671840
  H        4.0710030    -0.5292960     1.3442740
  H        4.4878230     0.6919580    -0.7653020
  H        3.2457620    -0.2529490    -1.5933530
  H        1.9831950    -2.1398170    -0.2152240
  H        2.4267450    -2.3652010     1.4815110
  H        2.7768740     1.6847790     0.7291870
  H        2.2671880     1.9220510    -0.9540200
  H        0.3069530    -1.0243470     1.2170770
  H        1.5834140    -0.1085280     2.0346680
  H       -0.4031770    -1.5700500    -1.4080150
  H       -4.3043690     0.2928860     1.0181070
  H       -2.0253310     2.7815300     0.2022010
  H       -3.1368610     2.2826280     1.5002420
  H       -1.3844770     2.1136550     1.7007310
  H       -2.4977120    -2.9041740    -1.2220500
  H       -4.4499260    -1.9612690     0.0072960
units angstrom
no_reorient  #important for SAPT in psi4, default
symmetry c1  #important for SAPT in psi4, default
}

set PROPERTIES_ORIGIN ["COM"]
properties('MP2/aug-cc-pvtz', properties = ['dipole'])
--------------------------------------------------------------------------

    Molecular point group: c1
  Charge       = 0
  Multiplicity = 1
  Basis Set: AUG-CC-PVTZ
    Blend: AUG-CC-PVTZ
  Basis Set: (AUG-CC-PVTZ AUX)
    Blend: AUG-CC-PVTZ-JKFIT

    Orbital Energies [Eh]
    ---------------------

    Doubly Occupied:

       1A    -20.511059     2A    -15.584107     3A    -11.349490
       4A    -11.266192     5A    -11.255018     6A    -11.251940
       7A    -11.246416     8A    -11.245114     9A    -11.242722
      10A    -11.239221    11A    -11.237065    12A    -11.230897
      13A    -11.228060    14A    -11.225584    15A    -11.220453
      16A     -1.367360    17A     -1.250682    18A     -1.161523
      19A     -1.082433    20A     -1.050840    21A     -1.036386
      22A     -1.022664    23A     -0.943236    24A     -0.918800
      25A     -0.868268    26A     -0.843975    27A     -0.815213
      28A     -0.790691    29A     -0.743261    30A     -0.712787
      31A     -0.666875    32A     -0.653316    33A     -0.648591
      34A     -0.628180    35A     -0.620623    36A     -0.615126
      37A     -0.596226    38A     -0.588085    39A     -0.575773
      40A     -0.571867    41A     -0.561026    42A     -0.546181
      43A     -0.541736    44A     -0.524583    45A     -0.507459
      46A     -0.502291    47A     -0.491707    48A     -0.489275
      49A     -0.477923    50A     -0.469799    51A     -0.462261
      52A     -0.417159    53A     -0.365541    54A     -0.340104
      55A     -0.330097

  @DF-RHF Final Energy:  -631.73055708359891

   => Energetics <=

    Nuclear Repulsion Energy =            999.9775820476113495
    One-Electron Energy =               -2843.1497487287083459
    Two-Electron Energy =                1211.4416095974979726
    Total Energy =                       -631.7305570835990238
  Basis Set: (AUG-CC-PVTZ AUX)
    Blend: AUG-CC-PVTZ-RI
    Molecular point group: c1

    Geometry (in Angstrom), charge = 0, multiplicity = 1:

       Center              X                  Y                   Z               Mass
    ------------   -----------------  -----------------  -----------------  -----------------
         O            0.057435828910     1.936144359844    -1.184076344780    15.994914619570
         N            1.257000828910     0.448521359844     0.084471655220    14.003074004430
         C            3.728108828910    -0.965326640156     0.432072655220    12.000000000000
         C            3.580727828910     0.154946359844    -0.598249344780    12.000000000000
         C            2.380061828910    -1.632383640156     0.708668655220    12.000000000000
         C            2.510707828910     1.153349359844    -0.166310344780    12.000000000000
         C            1.324324428910    -0.576709040156     1.110554255220    12.000000000000
         C            0.099232828910     0.914489359844    -0.484957344780    12.000000000000
         C           -1.134318171090     0.087708359844    -0.269799344780    12.000000000000
         C           -2.235888171090     0.641303359844     0.408302655220    12.000000000000
         C           -1.215772171090    -1.186012640156    -0.845754344780    12.000000000000
         C           -3.398912171090    -0.129714640156     0.512758655220    12.000000000000
         C           -2.160076171090     2.022508359844     1.005770655220    12.000000000000
         C           -2.390143171090    -1.932543640156    -0.742726344780    12.000000000000
         C           -3.483955171090    -1.401844640156    -0.058093344780    12.000000000000
         H            4.459602828910    -1.707169640156     0.091973655220     1.007825032230
         H            4.117510828910    -0.543634640156     1.369063655220     1.007825032230
         H            4.534330828910     0.677619359844    -0.740512344780     1.007825032230
         H            3.292269828910    -0.267287640156    -1.568563344780     1.007825032230
         H            2.029702828910    -2.154155640156    -0.190434344780     1.007825032230
         H            2.473252828910    -2.379539640156     1.506300655220     1.007825032230
         H            2.823381828910     1.670440359844     0.753976655220     1.007825032230
         H            2.313695828910     1.907712359844    -0.929230344780     1.007825032230
         H            0.353460828910    -1.038685640156     1.241866655220     1.007825032230
         H            1.629921828910    -0.122866640156     2.059457655220     1.007825032230
         H           -0.356669171090    -1.584388640156    -1.383225344780     1.007825032230
         H           -4.257861171090     0.278547359844     1.042896655220     1.007825032230
         H           -1.978823171090     2.767191359844     0.226990655220     1.007825032230
         H           -3.090353171090     2.268289359844     1.525031655220     1.007825032230
         H           -1.337969171090     2.099316359844     1.725520655220     1.007825032230
         H           -2.451204171090    -2.918512640156    -1.197260344780     1.007825032230
         H           -4.403418171090    -1.975607640156     0.032085655220     1.007825032230

  Basis Set: AUG-CC-PVTZ
    Blend: AUG-CC-PVTZ
  Basis Set: (AUG-CC-PVTZ AUX)
    Blend: AUG-CC-PVTZ-JKFIT
	 Reference Energy          =    -631.7305570835989101 [Eh]
	 Singles Energy            =      -0.0000000000000000 [Eh]
	 Same-Spin Energy          =      -0.6889167225976841 [Eh]
	 Opposite-Spin Energy      =      -2.2121683165774084 [Eh]
	 Correlation Energy        =      -2.9010850391750926 [Eh]
	 Total Energy              =    -634.6316421227739966 [Eh]

	 ================> DF-SCS-MP2 Energies <==================
	-----------------------------------------------------------
	 SCS Same-Spin Scale       =       0.3333333333333333 [-]
	 SCS Opposite-Spin Scale   =       1.2000000000000000 [-]
	 SCS Same-Spin Energy      =      -0.2296389075325614 [Eh]
	 SCS Opposite-Spin Energy  =      -2.6546019798928899 [Eh]
	 SCS Correlation Energy    =      -2.8842408874254515 [Eh]
	 SCS Total Energy          =    -634.6147979710243590 [Eh]
	-----------------------------------------------------------

  Dipole Moment: [D]
     X:     1.3857      Y:    -2.4918      Z:     2.3004     Total:     3.6634

*** Psi4 exiting successfully. Buy a developer a beer!
