                               Psi4 1.4a3.dev225

  ==> Input File <==

--------------------------------------------------------------------------
#psi4
#
memory 32 gb

molecule  {
0 1
  O        0.0109280     1.9504830    -1.2088660
  N        1.2104930     0.4628600     0.0596820
  C        3.6816010    -0.9509880     0.4072830
  C        3.5342200     0.1692850    -0.6230390
  C        2.3335540    -1.6180450     0.6838790
  C        2.4642000     1.1676880    -0.1911000
  C        1.3025754    -0.7184579     1.2205299
  C        0.0527250     0.9288280    -0.5097470
  C       -1.1808260     0.1020470    -0.2945890
  C       -2.2823960     0.6556420     0.3835130
  C       -1.2622800    -1.1716740    -0.8705440
  C       -3.4454200    -0.1153760     0.4879690
  C       -2.2065840     2.0368470     0.9809810
  C       -2.4366510    -1.9182050    -0.7675160
  C       -3.5304630    -1.3875060    -0.0828830
  H        4.4130950    -1.6928310     0.0671840
  H        4.0710030    -0.5292960     1.3442740
  H        4.4878230     0.6919580    -0.7653020
  H        3.2457620    -0.2529490    -1.5933530
  H        1.9831950    -2.1398170    -0.2152240
  H        2.4267450    -2.3652010     1.4815110
  H        2.7768740     1.6847790     0.7291870
  H        2.2671880     1.9220510    -0.9540200
  H        0.3069530    -1.0243470     1.2170770
  H        1.5834140    -0.1085280     2.0346680
  H       -0.4031770    -1.5700500    -1.4080150
  H       -4.3043690     0.2928860     1.0181070
  H       -2.0253310     2.7815300     0.2022010
  H       -3.1368610     2.2826280     1.5002420
  H       -1.3844770     2.1136550     1.7007310
  H       -2.4977120    -2.9041740    -1.2220500
  H       -4.4499260    -1.9612690     0.0072960
units angstrom
no_reorient  #important for SAPT in psi4, default
symmetry c1  #important for SAPT in psi4, default
}

set PROPERTIES_ORIGIN ["COM"]
properties('MP2/aug-cc-pvtz', properties = ['dipole'])
--------------------------------------------------------------------------

    Molecular point group: c1
  Charge       = 0
  Multiplicity = 1
  Basis Set: AUG-CC-PVTZ
    Blend: AUG-CC-PVTZ
  Basis Set: (AUG-CC-PVTZ AUX)
    Blend: AUG-CC-PVTZ-JKFIT

    Orbital Energies [Eh]
    ---------------------

    Doubly Occupied:

       1A    -20.501558     2A    -15.572021     3A    -11.340062
       4A    -11.278937     5A    -11.249996     6A    -11.249223
       7A    -11.244441     8A    -11.242413     9A    -11.241329
      10A    -11.237992    11A    -11.236171    12A    -11.235748
      13A    -11.233164    14A    -11.224239    15A    -11.218495
      16A     -1.356282    17A     -1.217102    18A     -1.159413
      19A     -1.088103    20A     -1.049650    21A     -1.041668
      22A     -1.022344    23A     -0.941124    24A     -0.919682
      25A     -0.866934    26A     -0.839833    27A     -0.812261
      28A     -0.789725    29A     -0.735611    30A     -0.702886
      31A     -0.669493    32A     -0.652933    33A     -0.647762
      34A     -0.629445    35A     -0.620656    36A     -0.609444
      37A     -0.598150    38A     -0.589986    39A     -0.573541
      40A     -0.569972    41A     -0.556803    42A     -0.545524
      43A     -0.534481    44A     -0.528350    45A     -0.514109
      46A     -0.500967    47A     -0.490960    48A     -0.489501
      49A     -0.479135    50A     -0.475706    51A     -0.442562
      52A     -0.408846    53A     -0.361463    54A     -0.339212
      55A     -0.328431

  @DF-RHF Final Energy:  -631.70205847724901

   => Energetics <=

    Nuclear Repulsion Energy =            996.4582970119587344
    One-Electron Energy =               -2836.3090372476262928
    Two-Electron Energy =                1208.1486817584186610
    Total Energy =                       -631.7020584772490110
  Basis Set: (AUG-CC-PVTZ AUX)
    Blend: AUG-CC-PVTZ-RI
    Molecular point group: c1

    Geometry (in Angstrom), charge = 0, multiplicity = 1:

       Center              X                  Y                   Z               Mass
    ------------   -----------------  -----------------  -----------------  -----------------
         O            0.055973198492     1.945365256061    -1.192037628322    15.994914619570
         N            1.255538198492     0.457742256061     0.076510371678    14.003074004430
         C            3.726646198492    -0.956105743939     0.424111371678    12.000000000000
         C            3.579265198492     0.164167256061    -0.606210628322    12.000000000000
         C            2.378599198492    -1.623162743939     0.700707371678    12.000000000000
         C            2.509245198492     1.162570256061    -0.174271628322    12.000000000000
         C            1.347620598492    -0.723575643939     1.237358271678    12.000000000000
         C            0.097770198492     0.923710256061    -0.492918628322    12.000000000000
         C           -1.135780801508     0.096929256061    -0.277760628322    12.000000000000
         C           -2.237350801508     0.650524256061     0.400341371678    12.000000000000
         C           -1.217234801508    -1.176791743939    -0.853715628322    12.000000000000
         C           -3.400374801508    -0.120493743939     0.504797371678    12.000000000000
         C           -2.161538801508     2.031729256061     0.997809371678    12.000000000000
         C           -2.391605801508    -1.923322743939    -0.750687628322    12.000000000000
         C           -3.485417801508    -1.392623743939    -0.066054628322    12.000000000000
         H            4.458140198492    -1.697948743939     0.084012371678     1.007825032230
         H            4.116048198492    -0.534413743939     1.361102371678     1.007825032230
         H            4.532868198492     0.686840256061    -0.748473628322     1.007825032230
         H            3.290807198492    -0.258066743939    -1.576524628322     1.007825032230
         H            2.028240198492    -2.144934743939    -0.198395628322     1.007825032230
         H            2.471790198492    -2.370318743939     1.498339371678     1.007825032230
         H            2.821919198492     1.679661256061     0.746015371678     1.007825032230
         H            2.312233198492     1.916933256061    -0.937191628322     1.007825032230
         H            0.351998198492    -1.029464743939     1.233905371678     1.007825032230
         H            1.628459198492    -0.113645743939     2.051496371678     1.007825032230
         H           -0.358131801508    -1.575167743939    -1.391186628322     1.007825032230
         H           -4.259323801508     0.287768256061     1.034935371678     1.007825032230
         H           -1.980285801508     2.776412256061     0.219029371678     1.007825032230
         H           -3.091815801508     2.277510256061     1.517070371678     1.007825032230
         H           -1.339431801508     2.108537256061     1.717559371678     1.007825032230
         H           -2.452666801508    -2.909291743939    -1.205221628322     1.007825032230
         H           -4.404880801508    -1.966386743939     0.024124371678     1.007825032230

  Basis Set: AUG-CC-PVTZ
    Blend: AUG-CC-PVTZ
  Basis Set: (AUG-CC-PVTZ AUX)
    Blend: AUG-CC-PVTZ-JKFIT
	 Reference Energy          =    -631.7020584772490110 [Eh]
	 Singles Energy            =      -0.0000000000000000 [Eh]
	 Same-Spin Energy          =      -0.6894650476153065 [Eh]
	 Opposite-Spin Energy      =      -2.2144623218864115 [Eh]
	 Correlation Energy        =      -2.9039273695017180 [Eh]
	 Total Energy              =    -634.6059858467507411 [Eh]

	 ================> DF-SCS-MP2 Energies <==================
	-----------------------------------------------------------
	 SCS Same-Spin Scale       =       0.3333333333333333 [-]
	 SCS Opposite-Spin Scale   =       1.2000000000000000 [-]
	 SCS Same-Spin Energy      =      -0.2298216825384355 [Eh]
	 SCS Opposite-Spin Energy  =      -2.6573547862636935 [Eh]
	 SCS Correlation Energy    =      -2.8871764688021289 [Eh]
	 SCS Total Energy          =    -634.5892349460511923 [Eh]
	-----------------------------------------------------------

  Dipole Moment: [D]
     X:     1.6686      Y:    -2.8576      Z:     2.6508     Total:     4.2399

*** Psi4 exiting successfully. Buy a developer a beer!
