                               Psi4 1.4a3.dev225

  ==> Input File <==

--------------------------------------------------------------------------
#psi4
#
memory 32 gb

molecule  {
0 1
  O        0.0109280     1.9504830    -1.2088660
  N        1.1474312     0.5542345    -0.0453256
  C        3.6816010    -0.9509880     0.4072830
  C        3.5342200     0.1692850    -0.6230390
  C        2.3335540    -1.6180450     0.6838790
  C        2.4642000     1.1676880    -0.1911000
  C        1.2914730    -0.5760260     1.0805660
  C        0.0527250     0.9288280    -0.5097470
  C       -1.1808260     0.1020470    -0.2945890
  C       -2.2823960     0.6556420     0.3835130
  C       -1.2622800    -1.1716740    -0.8705440
  C       -3.4454200    -0.1153760     0.4879690
  C       -2.2065840     2.0368470     0.9809810
  C       -2.4366510    -1.9182050    -0.7675160
  C       -3.5304630    -1.3875060    -0.0828830
  H        4.4130950    -1.6928310     0.0671840
  H        4.0710030    -0.5292960     1.3442740
  H        4.4878230     0.6919580    -0.7653020
  H        3.2457620    -0.2529490    -1.5933530
  H        1.9831950    -2.1398170    -0.2152240
  H        2.4267450    -2.3652010     1.4815110
  H        2.7768740     1.6847790     0.7291870
  H        2.2671880     1.9220510    -0.9540200
  H        0.3069530    -1.0243470     1.2170770
  H        1.5834140    -0.1085280     2.0346680
  H       -0.4031770    -1.5700500    -1.4080150
  H       -4.3043690     0.2928860     1.0181070
  H       -2.0253310     2.7815300     0.2022010
  H       -3.1368610     2.2826280     1.5002420
  H       -1.3844770     2.1136550     1.7007310
  H       -2.4977120    -2.9041740    -1.2220500
  H       -4.4499260    -1.9612690     0.0072960
units angstrom
no_reorient  #important for SAPT in psi4, default
symmetry c1  #important for SAPT in psi4, default
}

set PROPERTIES_ORIGIN ["COM"]
properties('MP2/aug-cc-pvtz', properties = ['dipole'])
--------------------------------------------------------------------------

    Molecular point group: c1
  Charge       = 0
  Multiplicity = 1
  Basis Set: AUG-CC-PVTZ
    Blend: AUG-CC-PVTZ
  Basis Set: (AUG-CC-PVTZ AUX)
    Blend: AUG-CC-PVTZ-JKFIT

    Orbital Energies [Eh]
    ---------------------

    Doubly Occupied:

       1A    -20.481517     2A    -15.588549     3A    -11.325096
       4A    -11.282513     5A    -11.260686     6A    -11.248657
       7A    -11.243607     8A    -11.242005     9A    -11.240111
      10A    -11.239748    11A    -11.237070    12A    -11.234638
      13A    -11.233747    14A    -11.232212    15A    -11.217042
      16A     -1.370183    17A     -1.240983    18A     -1.158630
      19A     -1.098296    20A     -1.048540    21A     -1.038863
      22A     -1.018867    23A     -0.951252    24A     -0.930096
      25A     -0.869544    26A     -0.838780    27A     -0.812966
      28A     -0.796917    29A     -0.738389    30A     -0.713999
      31A     -0.663783    32A     -0.651874    33A     -0.647985
      34A     -0.638468    35A     -0.618425    36A     -0.612026
      37A     -0.600468    38A     -0.593644    39A     -0.572874
      40A     -0.570348    41A     -0.551092    42A     -0.546640
      43A     -0.535556    44A     -0.530638    45A     -0.510103
      46A     -0.499158    47A     -0.490604    48A     -0.488651
      49A     -0.479857    50A     -0.477493    51A     -0.449736
      52A     -0.404152    53A     -0.371848    54A     -0.337116
      55A     -0.326848

  @DF-RHF Final Energy:  -631.70440800771394

   => Energetics <=

    Nuclear Repulsion Energy =           1000.5242272746941126
    One-Electron Energy =               -2844.2514930830288904
    Two-Electron Energy =                1212.0228578006208409
    Total Energy =                       -631.7044080077139370
  Basis Set: (AUG-CC-PVTZ AUX)
    Blend: AUG-CC-PVTZ-RI
    Molecular point group: c1

    Geometry (in Angstrom), charge = 0, multiplicity = 1:

       Center              X                  Y                   Z               Mass
    ------------   -----------------  -----------------  -----------------  -----------------
         O            0.060976313632     1.930652058779    -1.176530414878    15.994914619570
         N            1.197479513632     0.534403558779    -0.012990014878    14.003074004430
         C            3.731649313632    -0.970818941221     0.439618585122    12.000000000000
         C            3.584268313632     0.149454058779    -0.590703414878    12.000000000000
         C            2.383602313632    -1.637875941221     0.716214585122    12.000000000000
         C            2.514248313632     1.147857058779    -0.158764414878    12.000000000000
         C            1.341521313632    -0.595856941221     1.112901585122    12.000000000000
         C            0.102773313632     0.908997058779    -0.477411414878    12.000000000000
         C           -1.130777686368     0.082216058779    -0.262253414878    12.000000000000
         C           -2.232347686368     0.635811058779     0.415848585122    12.000000000000
         C           -1.212231686368    -1.191504941221    -0.838208414878    12.000000000000
         C           -3.395371686368    -0.135206941221     0.520304585122    12.000000000000
         C           -2.156535686368     2.017016058779     1.013316585122    12.000000000000
         C           -2.386602686368    -1.938035941221    -0.735180414878    12.000000000000
         C           -3.480414686368    -1.407336941221    -0.050547414878    12.000000000000
         H            4.463143313632    -1.712661941221     0.099519585122     1.007825032230
         H            4.121051313632    -0.549126941221     1.376609585122     1.007825032230
         H            4.537871313632     0.672127058779    -0.732966414878     1.007825032230
         H            3.295810313632    -0.272779941221    -1.561017414878     1.007825032230
         H            2.033243313632    -2.159647941221    -0.182888414878     1.007825032230
         H            2.476793313632    -2.385031941221     1.513846585122     1.007825032230
         H            2.826922313632     1.664948058779     0.761522585122     1.007825032230
         H            2.317236313632     1.902220058779    -0.921684414878     1.007825032230
         H            0.357001313632    -1.044177941221     1.249412585122     1.007825032230
         H            1.633462313632    -0.128358941221     2.067003585122     1.007825032230
         H           -0.353128686368    -1.589880941221    -1.375679414878     1.007825032230
         H           -4.254320686368     0.273055058779     1.050442585122     1.007825032230
         H           -1.975282686368     2.761699058779     0.234536585122     1.007825032230
         H           -3.086812686368     2.262797058779     1.532577585122     1.007825032230
         H           -1.334428686368     2.093824058779     1.733066585122     1.007825032230
         H           -2.447663686368    -2.924004941221    -1.189714414878     1.007825032230
         H           -4.399877686368    -1.981099941221     0.039631585122     1.007825032230

  Basis Set: AUG-CC-PVTZ
    Blend: AUG-CC-PVTZ
  Basis Set: (AUG-CC-PVTZ AUX)
    Blend: AUG-CC-PVTZ-JKFIT
	 Reference Energy          =    -631.7044080077139370 [Eh]
	 Singles Energy            =      -0.0000000000000000 [Eh]
	 Same-Spin Energy          =      -0.6882580230184686 [Eh]
	 Opposite-Spin Energy      =      -2.2113833125155296 [Eh]
	 Correlation Energy        =      -2.8996413355339983 [Eh]
	 Total Energy              =    -634.6040493432478797 [Eh]

	 ================> DF-SCS-MP2 Energies <==================
	-----------------------------------------------------------
	 SCS Same-Spin Scale       =       0.3333333333333333 [-]
	 SCS Opposite-Spin Scale   =       1.2000000000000000 [-]
	 SCS Same-Spin Energy      =      -0.2294193410061562 [Eh]
	 SCS Opposite-Spin Energy  =      -2.6536599750186354 [Eh]
	 SCS Correlation Energy    =      -2.8830793160247916 [Eh]
	 SCS Total Energy          =    -634.5874873237387419 [Eh]
	-----------------------------------------------------------

  Dipole Moment: [D]
     X:     2.0528      Y:    -2.9749      Z:     2.7385     Total:     4.5347

*** Psi4 exiting successfully. Buy a developer a beer!
