                               Psi4 1.4a3.dev225

  ==> Input File <==

--------------------------------------------------------------------------
#psi4
#
memory 32 gb

molecule  {
0 1
  O        0.0109280     1.9504830    -1.2088660
  N        1.2104930     0.4628600     0.0596820
  C        3.6816010    -0.9509880     0.4072830
  C        3.5342200     0.1692850    -0.6230390
  C        2.3335540    -1.6180450     0.6838790
  C        2.4642000     1.1676880    -0.1911000
  C        1.2914730    -0.5760260     1.0805660
  C        0.0527250     0.9288280    -0.5097470
  C       -1.1808260     0.1020470    -0.2945890
  C       -2.2823960     0.6556420     0.3835130
  C       -1.2622800    -1.1716740    -0.8705440
  C       -3.4454200    -0.1153760     0.4879690
  C       -2.2065840     2.0368470     0.9809810
  C       -2.4366510    -1.9182050    -0.7675160
  C       -3.5304630    -1.3875060    -0.0828830
  H        4.4130950    -1.6928310     0.0671840
  H        4.0710030    -0.5292960     1.3442740
  H        4.4878230     0.6919580    -0.7653020
  H        3.2457620    -0.2529490    -1.5933530
  H        1.9831950    -2.1398170    -0.2152240
  H        2.4267450    -2.3652010     1.4815110
  H        2.7768740     1.6847790     0.7291870
  H        2.2671880     1.9220510    -0.9540200
  H        0.3520991    -1.0037888     1.2108172
  H        1.5834140    -0.1085280     2.0346680
  H       -0.4031770    -1.5700500    -1.4080150
  H       -4.3043690     0.2928860     1.0181070
  H       -2.0253310     2.7815300     0.2022010
  H       -3.1368610     2.2826280     1.5002420
  H       -1.3844770     2.1136550     1.7007310
  H       -2.4977120    -2.9041740    -1.2220500
  H       -4.4499260    -1.9612690     0.0072960
units angstrom
no_reorient  #important for SAPT in psi4, default
symmetry c1  #important for SAPT in psi4, default
}

set PROPERTIES_ORIGIN ["COM"]
properties('MP2/aug-cc-pvtz', properties = ['dipole'])
--------------------------------------------------------------------------

    Molecular point group: c1
  Charge       = 0
  Multiplicity = 1
  Basis Set: AUG-CC-PVTZ
    Blend: AUG-CC-PVTZ
  Basis Set: (AUG-CC-PVTZ AUX)
    Blend: AUG-CC-PVTZ-JKFIT

    Orbital Energies [Eh]
    ---------------------

    Doubly Occupied:

       1A    -20.510676     2A    -15.583563     3A    -11.349383
       4A    -11.261585     5A    -11.254304     6A    -11.251974
       7A    -11.246466     8A    -11.245086     9A    -11.242738
      10A    -11.239200    11A    -11.237026    12A    -11.230426
      13A    -11.228125    14A    -11.225499    15A    -11.220401
      16A     -1.366910    17A     -1.249757    18A     -1.161480
      19A     -1.083461    20A     -1.050893    21A     -1.038317
      22A     -1.024061    23A     -0.943363    24A     -0.919605
      25A     -0.869558    26A     -0.844131    27A     -0.815343
      28A     -0.790947    29A     -0.744182    30A     -0.713888
      31A     -0.667534    32A     -0.653095    33A     -0.648354
      34A     -0.629770    35A     -0.621279    36A     -0.615148
      37A     -0.596663    38A     -0.588323    39A     -0.575716
      40A     -0.571809    41A     -0.561482    42A     -0.548546
      43A     -0.541658    44A     -0.524710    45A     -0.508056
      46A     -0.501926    47A     -0.491759    48A     -0.489629
      49A     -0.478413    50A     -0.470726    51A     -0.462112
      52A     -0.416878    53A     -0.366025    54A     -0.340393
      55A     -0.330100

  @DF-RHF Final Energy:  -631.73005232860771

   => Energetics <=

    Nuclear Repulsion Energy =           1000.1761950875168168
    One-Electron Energy =               -2843.5275976827301747
    Two-Electron Energy =                1211.6213502666057593
    Total Energy =                       -631.7300523286075986
  Basis Set: (AUG-CC-PVTZ AUX)
    Blend: AUG-CC-PVTZ-RI
    Molecular point group: c1

    Geometry (in Angstrom), charge = 0, multiplicity = 1:

       Center              X                  Y                   Z               Mass
    ------------   -----------------  -----------------  -----------------  -----------------
         O            0.056405084439     1.936849068242    -1.183738178875    15.994914619570
         N            1.255970084439     0.449226068242     0.084809821125    14.003074004430
         C            3.727078084439    -0.964621931758     0.432410821125    12.000000000000
         C            3.579697084439     0.155651068242    -0.597911178875    12.000000000000
         C            2.379031084439    -1.631678931758     0.709006821125    12.000000000000
         C            2.509677084439     1.154054068242    -0.165972178875    12.000000000000
         C            1.336950084439    -0.589659931758     1.105693821125    12.000000000000
         C            0.098202084439     0.915194068242    -0.484619178875    12.000000000000
         C           -1.135348915561     0.088413068242    -0.269461178875    12.000000000000
         C           -2.236918915561     0.642008068242     0.408640821125    12.000000000000
         C           -1.216802915561    -1.185307931758    -0.845416178875    12.000000000000
         C           -3.399942915561    -0.129009931758     0.513096821125    12.000000000000
         C           -2.161106915561     2.023213068242     1.006108821125    12.000000000000
         C           -2.391173915561    -1.931838931758    -0.742388178875    12.000000000000
         C           -3.484985915561    -1.401139931758    -0.057755178875    12.000000000000
         H            4.458572084439    -1.706464931758     0.092311821125     1.007825032230
         H            4.116480084439    -0.542929931758     1.369401821125     1.007825032230
         H            4.533300084439     0.678324068242    -0.740174178875     1.007825032230
         H            3.291239084439    -0.266582931758    -1.568225178875     1.007825032230
         H            2.028672084439    -2.153450931758    -0.190096178875     1.007825032230
         H            2.472222084439    -2.378834931758     1.506638821125     1.007825032230
         H            2.822351084439     1.671145068242     0.754314821125     1.007825032230
         H            2.312665084439     1.908417068242    -0.928892178875     1.007825032230
         H            0.397576184439    -1.017422731758     1.235945021125     1.007825032230
         H            1.628891084439    -0.122161931758     2.059795821125     1.007825032230
         H           -0.357699915561    -1.583683931758    -1.382887178875     1.007825032230
         H           -4.258891915561     0.279252068242     1.043234821125     1.007825032230
         H           -1.979853915561     2.767896068242     0.227328821125     1.007825032230
         H           -3.091383915561     2.268994068242     1.525369821125     1.007825032230
         H           -1.338999915561     2.100021068242     1.725858821125     1.007825032230
         H           -2.452234915561    -2.917807931758    -1.196922178875     1.007825032230
         H           -4.404448915561    -1.974902931758     0.032423821125     1.007825032230

  Basis Set: AUG-CC-PVTZ
    Blend: AUG-CC-PVTZ
  Basis Set: (AUG-CC-PVTZ AUX)
    Blend: AUG-CC-PVTZ-JKFIT
	 Reference Energy          =    -631.7300523286077123 [Eh]
	 Singles Energy            =      -0.0000000000000000 [Eh]
	 Same-Spin Energy          =      -0.6888010424804103 [Eh]
	 Opposite-Spin Energy      =      -2.2117411605678021 [Eh]
	 Correlation Energy        =      -2.9005422030482126 [Eh]
	 Total Energy              =    -634.6305945316559018 [Eh]

	 ================> DF-SCS-MP2 Energies <==================
	-----------------------------------------------------------
	 SCS Same-Spin Scale       =       0.3333333333333333 [-]
	 SCS Opposite-Spin Scale   =       1.2000000000000000 [-]
	 SCS Same-Spin Energy      =      -0.2296003474934701 [Eh]
	 SCS Opposite-Spin Energy  =      -2.6540893926813625 [Eh]
	 SCS Correlation Energy    =      -2.8836897401748325 [Eh]
	 SCS Total Energy          =    -634.6137420687825852 [Eh]
	-----------------------------------------------------------

  Dipole Moment: [D]
     X:     1.3935      Y:    -2.5268      Z:     2.3155     Total:     3.6998

*** Psi4 exiting successfully. Buy a developer a beer!
