                               Psi4 1.4a3.dev225

  ==> Input File <==

--------------------------------------------------------------------------
#psi4
#
memory 32 gb

molecule  {
0 1
  O        0.0109280     1.9504830    -1.2088660
  N        1.2104930     0.4628600     0.0596820
  C        3.6816010    -0.9509880     0.4072830
  C        3.5342200     0.1692850    -0.6230390
  C        2.2894795    -1.6398545     0.6929223
  C        2.4642000     1.1676880    -0.1911000
  C        1.2914730    -0.5760260     1.0805660
  C        0.0527250     0.9288280    -0.5097470
  C       -1.1808260     0.1020470    -0.2945890
  C       -2.2823960     0.6556420     0.3835130
  C       -1.2622800    -1.1716740    -0.8705440
  C       -3.4454200    -0.1153760     0.4879690
  C       -2.2065840     2.0368470     0.9809810
  C       -2.4366510    -1.9182050    -0.7675160
  C       -3.5304630    -1.3875060    -0.0828830
  H        4.4130950    -1.6928310     0.0671840
  H        4.0710030    -0.5292960     1.3442740
  H        4.4878230     0.6919580    -0.7653020
  H        3.2457620    -0.2529490    -1.5933530
  H        1.9831950    -2.1398170    -0.2152240
  H        2.4267450    -2.3652010     1.4815110
  H        2.7768740     1.6847790     0.7291870
  H        2.2671880     1.9220510    -0.9540200
  H        0.3069530    -1.0243470     1.2170770
  H        1.5834140    -0.1085280     2.0346680
  H       -0.4031770    -1.5700500    -1.4080150
  H       -4.3043690     0.2928860     1.0181070
  H       -2.0253310     2.7815300     0.2022010
  H       -3.1368610     2.2826280     1.5002420
  H       -1.3844770     2.1136550     1.7007310
  H       -2.4977120    -2.9041740    -1.2220500
  H       -4.4499260    -1.9612690     0.0072960
units angstrom
no_reorient  #important for SAPT in psi4, default
symmetry c1  #important for SAPT in psi4, default
}

set PROPERTIES_ORIGIN ["COM"]
properties('MP2/aug-cc-pvtz', properties = ['dipole'])
--------------------------------------------------------------------------

    Molecular point group: c1
  Charge       = 0
  Multiplicity = 1
  Basis Set: AUG-CC-PVTZ
    Blend: AUG-CC-PVTZ
  Basis Set: (AUG-CC-PVTZ AUX)
    Blend: AUG-CC-PVTZ-JKFIT

    Orbital Energies [Eh]
    ---------------------

    Doubly Occupied:

       1A    -20.511001     2A    -15.584263     3A    -11.349725
       4A    -11.266383     5A    -11.254417     6A    -11.251793
       7A    -11.246332     8A    -11.245025     9A    -11.242600
      10A    -11.239123    11A    -11.236951    12A    -11.229980
      13A    -11.229225    14A    -11.225429    15A    -11.220323
      16A     -1.367181    17A     -1.249642    18A     -1.161379
      19A     -1.078911    20A     -1.050680    21A     -1.038176
      22A     -1.024093    23A     -0.942852    24A     -0.917542
      25A     -0.866230    26A     -0.845192    27A     -0.815801
      28A     -0.791589    29A     -0.742695    30A     -0.712325
      31A     -0.666518    32A     -0.653239    33A     -0.649017
      34A     -0.627471    35A     -0.622178    36A     -0.615012
      37A     -0.597013    38A     -0.584527    39A     -0.575415
      40A     -0.571853    41A     -0.559687    42A     -0.548730
      43A     -0.541283    44A     -0.525007    45A     -0.510742
      46A     -0.504460    47A     -0.491790    48A     -0.489727
      49A     -0.479657    50A     -0.468841    51A     -0.453186
      52A     -0.416934    53A     -0.367535    54A     -0.339883
      55A     -0.329934

  @DF-RHF Final Energy:  -631.72884042581848

   => Energetics <=

    Nuclear Repulsion Energy =            999.7707202935474697
    One-Electron Energy =               -2842.7461340558879783
    Two-Electron Energy =                1211.2465733365220331
    Total Energy =                       -631.7288404258183618
  Basis Set: (AUG-CC-PVTZ AUX)
    Blend: AUG-CC-PVTZ-RI
    Molecular point group: c1

    Geometry (in Angstrom), charge = 0, multiplicity = 1:

       Center              X                  Y                   Z               Mass
    ------------   -----------------  -----------------  -----------------  -----------------
         O            0.059232783459     1.938239466797    -1.184303471101    15.994914619570
         N            1.258797783459     0.450616466797     0.084244528899    14.003074004430
         C            3.729905783459    -0.963231533203     0.431845528899    12.000000000000
         C            3.582524783459     0.157041466797    -0.598476471101    12.000000000000
         C            2.337784283459    -1.652098033203     0.717484828899    12.000000000000
         C            2.512504783459     1.155444466797    -0.166537471101    12.000000000000
         C            1.339777783459    -0.588269533203     1.105128528899    12.000000000000
         C            0.101029783459     0.916584466797    -0.485184471101    12.000000000000
         C           -1.132521216541     0.089803466797    -0.270026471101    12.000000000000
         C           -2.234091216541     0.643398466797     0.408075528899    12.000000000000
         C           -1.213975216541    -1.183917533203    -0.845981471101    12.000000000000
         C           -3.397115216541    -0.127619533203     0.512531528899    12.000000000000
         C           -2.158279216541     2.024603466797     1.005543528899    12.000000000000
         C           -2.388346216541    -1.930448533203    -0.742953471101    12.000000000000
         C           -3.482158216541    -1.399749533203    -0.058320471101    12.000000000000
         H            4.461399783459    -1.705074533203     0.091746528899     1.007825032230
         H            4.119307783459    -0.541539533203     1.368836528899     1.007825032230
         H            4.536127783459     0.679714466797    -0.740739471101     1.007825032230
         H            3.294066783459    -0.265192533203    -1.568790471101     1.007825032230
         H            2.031499783459    -2.152060533203    -0.190661471101     1.007825032230
         H            2.475049783459    -2.377444533203     1.506073528899     1.007825032230
         H            2.825178783459     1.672535466797     0.753749528899     1.007825032230
         H            2.315492783459     1.909807466797    -0.929457471101     1.007825032230
         H            0.355257783459    -1.036590533203     1.241639528899     1.007825032230
         H            1.631718783459    -0.120771533203     2.059230528899     1.007825032230
         H           -0.354872216541    -1.582293533203    -1.383452471101     1.007825032230
         H           -4.256064216541     0.280642466797     1.042669528899     1.007825032230
         H           -1.977026216541     2.769286466797     0.226763528899     1.007825032230
         H           -3.088556216541     2.270384466797     1.524804528899     1.007825032230
         H           -1.336172216541     2.101411466797     1.725293528899     1.007825032230
         H           -2.449407216541    -2.916417533203    -1.197487471101     1.007825032230
         H           -4.401621216541    -1.973512533203     0.031858528899     1.007825032230

  Basis Set: AUG-CC-PVTZ
    Blend: AUG-CC-PVTZ
  Basis Set: (AUG-CC-PVTZ AUX)
    Blend: AUG-CC-PVTZ-JKFIT
	 Reference Energy          =    -631.7288404258184755 [Eh]
	 Singles Energy            =      -0.0000000000000000 [Eh]
	 Same-Spin Energy          =      -0.6888873155797962 [Eh]
	 Opposite-Spin Energy      =      -2.2122496928308180 [Eh]
	 Correlation Energy        =      -2.9011370084106143 [Eh]
	 Total Energy              =    -634.6299774342290902 [Eh]

	 ================> DF-SCS-MP2 Energies <==================
	-----------------------------------------------------------
	 SCS Same-Spin Scale       =       0.3333333333333333 [-]
	 SCS Opposite-Spin Scale   =       1.2000000000000000 [-]
	 SCS Same-Spin Energy      =      -0.2296291051932654 [Eh]
	 SCS Opposite-Spin Energy  =      -2.6546996313969813 [Eh]
	 SCS Correlation Energy    =      -2.8843287365902466 [Eh]
	 SCS Total Energy          =    -634.6131691624086670 [Eh]
	-----------------------------------------------------------

  Dipole Moment: [D]
     X:     1.3931      Y:    -2.5281      Z:     2.3063     Total:     3.6947

*** Psi4 exiting successfully. Buy a developer a beer!
