                               Psi4 1.4a3.dev225

  ==> Input File <==

--------------------------------------------------------------------------
#psi4
#
memory 32 gb

molecule  {
0 1
  O        0.0109280     1.9504830    -1.2088660
  N        1.1328598     0.3527325     0.1093048
  C        3.6816010    -0.9509880     0.4072830
  C        3.5342200     0.1692850    -0.6230390
  C        2.3335540    -1.6180450     0.6838790
  C        2.4642000     1.1676880    -0.1911000
  C        1.2914730    -0.5760260     1.0805660
  C        0.0527250     0.9288280    -0.5097470
  C       -1.1808260     0.1020470    -0.2945890
  C       -2.2823960     0.6556420     0.3835130
  C       -1.2622800    -1.1716740    -0.8705440
  C       -3.4454200    -0.1153760     0.4879690
  C       -2.2065840     2.0368470     0.9809810
  C       -2.4366510    -1.9182050    -0.7675160
  C       -3.5304630    -1.3875060    -0.0828830
  H        4.4130950    -1.6928310     0.0671840
  H        4.0710030    -0.5292960     1.3442740
  H        4.4878230     0.6919580    -0.7653020
  H        3.2457620    -0.2529490    -1.5933530
  H        1.9831950    -2.1398170    -0.2152240
  H        2.4267450    -2.3652010     1.4815110
  H        2.7768740     1.6847790     0.7291870
  H        2.2671880     1.9220510    -0.9540200
  H        0.3069530    -1.0243470     1.2170770
  H        1.5834140    -0.1085280     2.0346680
  H       -0.4031770    -1.5700500    -1.4080150
  H       -4.3043690     0.2928860     1.0181070
  H       -2.0253310     2.7815300     0.2022010
  H       -3.1368610     2.2826280     1.5002420
  H       -1.3844770     2.1136550     1.7007310
  H       -2.4977120    -2.9041740    -1.2220500
  H       -4.4499260    -1.9612690     0.0072960
units angstrom
no_reorient  #important for SAPT in psi4, default
symmetry c1  #important for SAPT in psi4, default
}

set PROPERTIES_ORIGIN ["COM"]
properties('MP2/aug-cc-pvtz', properties = ['dipole'])
--------------------------------------------------------------------------

    Molecular point group: c1
  Charge       = 0
  Multiplicity = 1
  Basis Set: AUG-CC-PVTZ
    Blend: AUG-CC-PVTZ
  Basis Set: (AUG-CC-PVTZ AUX)
    Blend: AUG-CC-PVTZ-JKFIT

    Orbital Energies [Eh]
    ---------------------

    Doubly Occupied:

       1A    -20.518107     2A    -15.586748     3A    -11.354338
       4A    -11.265174     5A    -11.260112     6A    -11.248963
       7A    -11.243437     8A    -11.240320     9A    -11.239977
      10A    -11.237130    11A    -11.234963    12A    -11.229222
      13A    -11.228739    14A    -11.228287    15A    -11.219474
      16A     -1.368634    17A     -1.262225    18A     -1.158878
      19A     -1.086543    20A     -1.048538    21A     -1.030157
      22A     -1.027027    23A     -0.944195    24A     -0.921079
      25A     -0.866049    26A     -0.846065    27A     -0.814140
      28A     -0.788526    29A     -0.744816    30A     -0.709624
      31A     -0.669870    32A     -0.656446    33A     -0.649911
      34A     -0.625730    35A     -0.621766    36A     -0.616040
      37A     -0.595238    38A     -0.592493    39A     -0.573340
      40A     -0.572478    41A     -0.552587    42A     -0.549006
      43A     -0.542694    44A     -0.520930    45A     -0.508793
      46A     -0.503683    47A     -0.489734    48A     -0.487585
      49A     -0.479328    50A     -0.471287    51A     -0.457179
      52A     -0.411583    53A     -0.369994    54A     -0.337971
      55A     -0.327804

  @DF-RHF Final Energy:  -631.70569774732121

   => Energetics <=

    Nuclear Repulsion Energy =           1000.6628142594898918
    One-Electron Energy =               -2844.4671131322011206
    Two-Electron Energy =                1212.0986011253899051
    Total Energy =                       -631.7056977473212100
  Basis Set: (AUG-CC-PVTZ AUX)
    Blend: AUG-CC-PVTZ-RI
    Molecular point group: c1

    Geometry (in Angstrom), charge = 0, multiplicity = 1:

       Center              X                  Y                   Z               Mass
    ------------   -----------------  -----------------  -----------------  -----------------
         O            0.061980810131     1.944542834786    -1.187190042327    15.994914619570
         N            1.183912610131     0.346792334786     0.130980757673    14.003074004430
         C            3.732653810131    -0.956928165214     0.428958957673    12.000000000000
         C            3.585272810131     0.163344834786    -0.601363042327    12.000000000000
         C            2.384606810131    -1.623985165214     0.705554957673    12.000000000000
         C            2.515252810131     1.161747834786    -0.169424042327    12.000000000000
         C            1.342525810131    -0.581966165214     1.102241957673    12.000000000000
         C            0.103777810131     0.922887834786    -0.488071042327    12.000000000000
         C           -1.129773189869     0.096106834786    -0.272913042327    12.000000000000
         C           -2.231343189869     0.649701834786     0.405188957673    12.000000000000
         C           -1.211227189869    -1.177614165214    -0.848868042327    12.000000000000
         C           -3.394367189869    -0.121316165214     0.509644957673    12.000000000000
         C           -2.155531189869     2.030906834786     1.002656957673    12.000000000000
         C           -2.385598189869    -1.924145165214    -0.745840042327    12.000000000000
         C           -3.479410189869    -1.393446165214    -0.061207042327    12.000000000000
         H            4.464147810131    -1.698771165214     0.088859957673     1.007825032230
         H            4.122055810131    -0.535236165214     1.365949957673     1.007825032230
         H            4.538875810131     0.686017834786    -0.743626042327     1.007825032230
         H            3.296814810131    -0.258889165214    -1.571677042327     1.007825032230
         H            2.034247810131    -2.145757165214    -0.193548042327     1.007825032230
         H            2.477797810131    -2.371141165214     1.503186957673     1.007825032230
         H            2.827926810131     1.678838834786     0.750862957673     1.007825032230
         H            2.318240810131     1.916110834786    -0.932344042327     1.007825032230
         H            0.358005810131    -1.030287165214     1.238752957673     1.007825032230
         H            1.634466810131    -0.114468165214     2.056343957673     1.007825032230
         H           -0.352124189869    -1.575990165214    -1.386339042327     1.007825032230
         H           -4.253316189869     0.286945834786     1.039782957673     1.007825032230
         H           -1.974278189869     2.775589834786     0.223876957673     1.007825032230
         H           -3.085808189869     2.276687834786     1.521917957673     1.007825032230
         H           -1.333424189869     2.107714834786     1.722406957673     1.007825032230
         H           -2.446659189869    -2.910114165214    -1.200374042327     1.007825032230
         H           -4.398873189869    -1.967209165214     0.028971957673     1.007825032230

  Basis Set: AUG-CC-PVTZ
    Blend: AUG-CC-PVTZ
  Basis Set: (AUG-CC-PVTZ AUX)
    Blend: AUG-CC-PVTZ-JKFIT
	 Reference Energy          =    -631.7056977473212100 [Eh]
	 Singles Energy            =      -0.0000000000000000 [Eh]
	 Same-Spin Energy          =      -0.6906211569056702 [Eh]
	 Opposite-Spin Energy      =      -2.2153214680595199 [Eh]
	 Correlation Energy        =      -2.9059426249651903 [Eh]
	 Total Energy              =    -634.6116403722863879 [Eh]

	 ================> DF-SCS-MP2 Energies <==================
	-----------------------------------------------------------
	 SCS Same-Spin Scale       =       0.3333333333333333 [-]
	 SCS Opposite-Spin Scale   =       1.2000000000000000 [-]
	 SCS Same-Spin Energy      =      -0.2302070523018900 [Eh]
	 SCS Opposite-Spin Energy  =      -2.6583857616714237 [Eh]
	 SCS Correlation Energy    =      -2.8885928139733137 [Eh]
	 SCS Total Energy          =    -634.5942905612945424 [Eh]
	-----------------------------------------------------------

  Dipole Moment: [D]
     X:     1.6446      Y:    -2.2503      Z:     2.1602     Total:     3.5263

*** Psi4 exiting successfully. Buy a developer a beer!
