                               Psi4 1.4a3.dev225

  ==> Input File <==

--------------------------------------------------------------------------
#psi4
#
memory 32 gb

molecule  {
0 1
  O        0.0109280     1.9504830    -1.2088660
  N        1.2104930     0.4628600     0.0596820
  C        3.6816010    -0.9509880     0.4072830
  C        3.5342200     0.1692850    -0.6230390
  C        2.3335540    -1.6180450     0.6838790
  C        2.4642000     1.1676880    -0.1911000
  C        1.2914730    -0.5760260     1.0805660
  C        0.0527250     0.9288280    -0.5097470
  C       -1.1808260     0.1020470    -0.2945890
  C       -2.2823960     0.6556420     0.3835130
  C       -1.2622800    -1.1716740    -0.8705440
  C       -3.4454200    -0.1153760     0.4879690
  C       -2.2065840     2.0368470     0.9809810
  C       -2.4366510    -1.9182050    -0.7675160
  C       -3.5304630    -1.3875060    -0.0828830
  H        4.4130950    -1.6928310     0.0671840
  H        4.0710030    -0.5292960     1.3442740
  H        4.4878230     0.6919580    -0.7653020
  H        3.2589118    -0.2337008    -1.5491197
  H        1.9831950    -2.1398170    -0.2152240
  H        2.4267450    -2.3652010     1.4815110
  H        2.7768740     1.6847790     0.7291870
  H        2.2671880     1.9220510    -0.9540200
  H        0.3069530    -1.0243470     1.2170770
  H        1.5834140    -0.1085280     2.0346680
  H       -0.4031770    -1.5700500    -1.4080150
  H       -4.3043690     0.2928860     1.0181070
  H       -2.0253310     2.7815300     0.2022010
  H       -3.1368610     2.2826280     1.5002420
  H       -1.3844770     2.1136550     1.7007310
  H       -2.4977120    -2.9041740    -1.2220500
  H       -4.4499260    -1.9612690     0.0072960
units angstrom
no_reorient  #important for SAPT in psi4, default
symmetry c1  #important for SAPT in psi4, default
}

set PROPERTIES_ORIGIN ["COM"]
properties('MP2/aug-cc-pvtz', properties = ['dipole'])
--------------------------------------------------------------------------

    Molecular point group: c1
  Charge       = 0
  Multiplicity = 1
  Basis Set: AUG-CC-PVTZ
    Blend: AUG-CC-PVTZ
  Basis Set: (AUG-CC-PVTZ AUX)
    Blend: AUG-CC-PVTZ-JKFIT

    Orbital Energies [Eh]
    ---------------------

    Doubly Occupied:

       1A    -20.510775     2A    -15.583868     3A    -11.349433
       4A    -11.266994     5A    -11.254112     6A    -11.251842
       7A    -11.246354     8A    -11.245020     9A    -11.242648
      10A    -11.239150    11A    -11.236978    12A    -11.230571
      13A    -11.227776    14A    -11.220319    15A    -11.219412
      16A     -1.366986    17A     -1.249579    18A     -1.161436
      19A     -1.084400    20A     -1.050794    21A     -1.037562
      22A     -1.023909    23A     -0.943151    24A     -0.918651
      25A     -0.869278    26A     -0.844073    27A     -0.815701
      28A     -0.793031    29A     -0.743548    30A     -0.712323
      31A     -0.666750    32A     -0.653353    33A     -0.648388
      34A     -0.629093    35A     -0.621080    36A     -0.615285
      37A     -0.596967    38A     -0.588271    39A     -0.575658
      40A     -0.571778    41A     -0.560098    42A     -0.547309
      43A     -0.541620    44A     -0.525016    45A     -0.508654
      46A     -0.503768    47A     -0.491817    48A     -0.489543
      49A     -0.479883    50A     -0.470210    51A     -0.461232
      52A     -0.416904    53A     -0.366090    54A     -0.339999
      55A     -0.329997

  @DF-RHF Final Energy:  -631.72975146758142

   => Energetics <=

    Nuclear Repulsion Energy =           1000.2085597217397890
    One-Electron Energy =               -2843.5997487956665282
    Two-Electron Energy =                1211.6614376063455438
    Total Energy =                       -631.7297514675813090
  Basis Set: (AUG-CC-PVTZ AUX)
    Blend: AUG-CC-PVTZ-RI
    Molecular point group: c1

    Geometry (in Angstrom), charge = 0, multiplicity = 1:

       Center              X                  Y                   Z               Mass
    ------------   -----------------  -----------------  -----------------  -----------------
         O            0.056563832586     1.936855567745    -1.183988698031    15.994914619570
         N            1.256128832586     0.449232567745     0.084559301969    14.003074004430
         C            3.727236832586    -0.964615432255     0.432160301969    12.000000000000
         C            3.579855832586     0.155657567745    -0.598161698031    12.000000000000
         C            2.379189832586    -1.631672432255     0.708756301969    12.000000000000
         C            2.509835832586     1.154060567745    -0.166222698031    12.000000000000
         C            1.337108832586    -0.589653432255     1.105443301969    12.000000000000
         C            0.098360832586     0.915200567745    -0.484869698031    12.000000000000
         C           -1.135190167414     0.088419567745    -0.269711698031    12.000000000000
         C           -2.236760167414     0.642014567745     0.408390301969    12.000000000000
         C           -1.216644167414    -1.185301432255    -0.845666698031    12.000000000000
         C           -3.399784167414    -0.129003432255     0.512846301969    12.000000000000
         C           -2.160948167414     2.023219567745     1.005858301969    12.000000000000
         C           -2.391015167414    -1.931832432255    -0.742638698031    12.000000000000
         C           -3.484827167414    -1.401133432255    -0.058005698031    12.000000000000
         H            4.458730832586    -1.706458432255     0.092061301969     1.007825032230
         H            4.116638832586    -0.542923432255     1.369151301969     1.007825032230
         H            4.533458832586     0.678330567745    -0.740424698031     1.007825032230
         H            3.304547632586    -0.247328232255    -1.524242398031     1.007825032230
         H            2.028830832586    -2.153444432255    -0.190346698031     1.007825032230
         H            2.472380832586    -2.378828432255     1.506388301969     1.007825032230
         H            2.822509832586     1.671151567745     0.754064301969     1.007825032230
         H            2.312823832586     1.908423567745    -0.929142698031     1.007825032230
         H            0.352588832586    -1.037974432255     1.241954301969     1.007825032230
         H            1.629049832586    -0.122155432255     2.059545301969     1.007825032230
         H           -0.357541167414    -1.583677432255    -1.383137698031     1.007825032230
         H           -4.258733167414     0.279258567745     1.042984301969     1.007825032230
         H           -1.979695167414     2.767902567745     0.227078301969     1.007825032230
         H           -3.091225167414     2.269000567745     1.525119301969     1.007825032230
         H           -1.338841167414     2.100027567745     1.725608301969     1.007825032230
         H           -2.452076167414    -2.917801432255    -1.197172698031     1.007825032230
         H           -4.404290167414    -1.974896432255     0.032173301969     1.007825032230

  Basis Set: AUG-CC-PVTZ
    Blend: AUG-CC-PVTZ
  Basis Set: (AUG-CC-PVTZ AUX)
    Blend: AUG-CC-PVTZ-JKFIT
	 Reference Energy          =    -631.7297514675814227 [Eh]
	 Singles Energy            =      -0.0000000000000000 [Eh]
	 Same-Spin Energy          =      -0.6890046486497621 [Eh]
	 Opposite-Spin Energy      =      -2.2119672501308534 [Eh]
	 Correlation Energy        =      -2.9009718987806155 [Eh]
	 Total Energy              =    -634.6307233663620764 [Eh]

	 ================> DF-SCS-MP2 Energies <==================
	-----------------------------------------------------------
	 SCS Same-Spin Scale       =       0.3333333333333333 [-]
	 SCS Opposite-Spin Scale   =       1.2000000000000000 [-]
	 SCS Same-Spin Energy      =      -0.2296682162165873 [Eh]
	 SCS Opposite-Spin Energy  =      -2.6543607001570240 [Eh]
	 SCS Correlation Energy    =      -2.8840289163736115 [Eh]
	 SCS Total Energy          =    -634.6137803839550315 [Eh]
	-----------------------------------------------------------

  Dipole Moment: [D]
     X:     1.4030      Y:    -2.5279      Z:     2.2773     Total:     3.6803

*** Psi4 exiting successfully. Buy a developer a beer!
