                               Psi4 1.4a3.dev225

  ==> Input File <==

--------------------------------------------------------------------------
#psi4
#
memory 32 gb

molecule  {
0 1
  O        0.0109280     1.9504830    -1.2088660
  N        1.2104930     0.4628600     0.0596820
  C        3.6816010    -0.9509880     0.4072830
  C        3.5342200     0.1692850    -0.6230390
  C        2.3335540    -1.6180450     0.6838790
  C        2.4642000     1.1676880    -0.1911000
  C        1.2914730    -0.5760260     1.0805660
  C        0.0527250     0.9288280    -0.5097470
  C       -1.1808260     0.1020470    -0.2945890
  C       -2.2823960     0.6556420     0.3835130
  C       -1.2622800    -1.1716740    -0.8705440
  C       -3.4454200    -0.1153760     0.4879690
  C       -2.2065840     2.0368470     0.9809810
  C       -2.4366510    -1.9182050    -0.7675160
  C       -3.5304630    -1.3875060    -0.0828830
  H        4.4130950    -1.6928310     0.0671840
  H        4.0710030    -0.5292960     1.3442740
  H        4.4878230     0.6919580    -0.7653020
  H        3.2457620    -0.2529490    -1.5933530
  H        1.9831950    -2.1398170    -0.2152240
  H        2.4267450    -2.3652010     1.4815110
  H        2.7768740     1.6847790     0.7291870
  H        2.2671880     1.9220510    -0.9540200
  H        0.3069530    -1.0243470     1.2170770
  H        1.5701664    -0.1297420     1.9913729
  H       -0.4031770    -1.5700500    -1.4080150
  H       -4.3043690     0.2928860     1.0181070
  H       -2.0253310     2.7815300     0.2022010
  H       -3.1368610     2.2826280     1.5002420
  H       -1.3844770     2.1136550     1.7007310
  H       -2.4977120    -2.9041740    -1.2220500
  H       -4.4499260    -1.9612690     0.0072960
units angstrom
no_reorient  #important for SAPT in psi4, default
symmetry c1  #important for SAPT in psi4, default
}

set PROPERTIES_ORIGIN ["COM"]
properties('MP2/aug-cc-pvtz', properties = ['dipole'])
--------------------------------------------------------------------------

    Molecular point group: c1
  Charge       = 0
  Multiplicity = 1
  Basis Set: AUG-CC-PVTZ
    Blend: AUG-CC-PVTZ
  Basis Set: (AUG-CC-PVTZ AUX)
    Blend: AUG-CC-PVTZ-JKFIT

    Orbital Energies [Eh]
    ---------------------

    Doubly Occupied:

       1A    -20.510341     2A    -15.583242     3A    -11.349068
       4A    -11.260891     5A    -11.254595     6A    -11.251675
       7A    -11.246128     8A    -11.244807     9A    -11.242481
      10A    -11.238978    11A    -11.236836    12A    -11.230134
      13A    -11.228315    14A    -11.225622    15A    -11.220271
      16A     -1.366626    17A     -1.249598    18A     -1.161257
      19A     -1.083596    20A     -1.050670    21A     -1.037817
      22A     -1.023882    23A     -0.943381    24A     -0.919876
      25A     -0.868692    26A     -0.843973    27A     -0.815221
      28A     -0.791174    29A     -0.744288    30A     -0.712699
      31A     -0.666752    32A     -0.654172    33A     -0.649355
      34A     -0.627867    35A     -0.621516    36A     -0.615278
      37A     -0.596624    38A     -0.589012    39A     -0.575510
      40A     -0.571783    41A     -0.559941    42A     -0.547274
      43A     -0.541657    44A     -0.525624    45A     -0.508396
      46A     -0.503473    47A     -0.491530    48A     -0.489274
      49A     -0.478388    50A     -0.469711    51A     -0.461422
      52A     -0.416663    53A     -0.366316    54A     -0.339806
      55A     -0.329841

  @DF-RHF Final Energy:  -631.72995018754773

   => Energetics <=

    Nuclear Repulsion Energy =           1000.2616235440647188
    One-Electron Energy =               -2843.7165107911446285
    Two-Electron Energy =                1211.7249370595322944
    Total Energy =                       -631.7299501875477290
  Basis Set: (AUG-CC-PVTZ AUX)
    Blend: AUG-CC-PVTZ-RI
    Molecular point group: c1

    Geometry (in Angstrom), charge = 0, multiplicity = 1:

       Center              X                  Y                   Z               Mass
    ------------   -----------------  -----------------  -----------------  -----------------
         O            0.056694802052     1.937056319059    -1.183554429965    15.994914619570
         N            1.256259802052     0.449433319059     0.084993570035    14.003074004430
         C            3.727367802052    -0.964414680941     0.432594570035    12.000000000000
         C            3.579986802052     0.155858319059    -0.597727429965    12.000000000000
         C            2.379320802052    -1.631471680941     0.709190570035    12.000000000000
         C            2.509966802052     1.154261319059    -0.165788429965    12.000000000000
         C            1.337239802052    -0.589452680941     1.105877570035    12.000000000000
         C            0.098491802052     0.915401319059    -0.484435429965    12.000000000000
         C           -1.135059197948     0.088620319059    -0.269277429965    12.000000000000
         C           -2.236629197948     0.642215319059     0.408824570035    12.000000000000
         C           -1.216513197948    -1.185100680941    -0.845232429965    12.000000000000
         C           -3.399653197948    -0.128802680941     0.513280570035    12.000000000000
         C           -2.160817197948     2.023420319059     1.006292570035    12.000000000000
         C           -2.390884197948    -1.931631680941    -0.742204429965    12.000000000000
         C           -3.484696197948    -1.400932680941    -0.057571429965    12.000000000000
         H            4.458861802052    -1.706257680941     0.092495570035     1.007825032230
         H            4.116769802052    -0.542722680941     1.369585570035     1.007825032230
         H            4.533589802052     0.678531319059    -0.739990429965     1.007825032230
         H            3.291528802052    -0.266375680941    -1.568041429965     1.007825032230
         H            2.028961802052    -2.153243680941    -0.189912429965     1.007825032230
         H            2.472511802052    -2.378627680941     1.506822570035     1.007825032230
         H            2.822640802052     1.671352319059     0.754498570035     1.007825032230
         H            2.312954802052     1.908624319059    -0.928708429965     1.007825032230
         H            0.352719802052    -1.037773680941     1.242388570035     1.007825032230
         H            1.615933202052    -0.143168680941     2.016684470035     1.007825032230
         H           -0.357410197948    -1.583476680941    -1.382703429965     1.007825032230
         H           -4.258602197948     0.279459319059     1.043418570035     1.007825032230
         H           -1.979564197948     2.768103319059     0.227512570035     1.007825032230
         H           -3.091094197948     2.269201319059     1.525553570035     1.007825032230
         H           -1.338710197948     2.100228319059     1.726042570035     1.007825032230
         H           -2.451945197948    -2.917600680941    -1.196738429965     1.007825032230
         H           -4.404159197948    -1.974695680941     0.032607570035     1.007825032230

  Basis Set: AUG-CC-PVTZ
    Blend: AUG-CC-PVTZ
  Basis Set: (AUG-CC-PVTZ AUX)
    Blend: AUG-CC-PVTZ-JKFIT
	 Reference Energy          =    -631.7299501875477290 [Eh]
	 Singles Energy            =      -0.0000000000000000 [Eh]
	 Same-Spin Energy          =      -0.6889455742640815 [Eh]
	 Opposite-Spin Energy      =      -2.2119195418120170 [Eh]
	 Correlation Energy        =      -2.9008651160760985 [Eh]
	 Total Energy              =    -634.6308153036238764 [Eh]

	 ================> DF-SCS-MP2 Energies <==================
	-----------------------------------------------------------
	 SCS Same-Spin Scale       =       0.3333333333333333 [-]
	 SCS Opposite-Spin Scale   =       1.2000000000000000 [-]
	 SCS Same-Spin Energy      =      -0.2296485247546938 [Eh]
	 SCS Opposite-Spin Energy  =      -2.6543034501744205 [Eh]
	 SCS Correlation Energy    =      -2.8839519749291145 [Eh]
	 SCS Total Energy          =    -634.6139021624768475 [Eh]
	-----------------------------------------------------------

  Dipole Moment: [D]
     X:     1.4240      Y:    -2.5186      Z:     2.3444     Total:     3.7239

*** Psi4 exiting successfully. Buy a developer a beer!
