                               Psi4 1.4a3.dev225

  ==> Input File <==

--------------------------------------------------------------------------
#psi4
#
memory 32 gb

molecule  {
0 1
  O        0.0109280     1.9504830    -1.2088660
  N        1.2104930     0.4628600     0.0596820
  C        3.6816010    -0.9509880     0.4072830
  C        3.5342200     0.1692850    -0.6230390
  C        2.3335540    -1.6180450     0.6838790
  C        2.4642000     1.1676880    -0.1911000
  C        1.2231908    -0.5077478     1.1065589
  C        0.0527250     0.9288280    -0.5097470
  C       -1.1808260     0.1020470    -0.2945890
  C       -2.2823960     0.6556420     0.3835130
  C       -1.2622800    -1.1716740    -0.8705440
  C       -3.4454200    -0.1153760     0.4879690
  C       -2.2065840     2.0368470     0.9809810
  C       -2.4366510    -1.9182050    -0.7675160
  C       -3.5304630    -1.3875060    -0.0828830
  H        4.4130950    -1.6928310     0.0671840
  H        4.0710030    -0.5292960     1.3442740
  H        4.4878230     0.6919580    -0.7653020
  H        3.2457620    -0.2529490    -1.5933530
  H        1.9831950    -2.1398170    -0.2152240
  H        2.4267450    -2.3652010     1.4815110
  H        2.7768740     1.6847790     0.7291870
  H        2.2671880     1.9220510    -0.9540200
  H        0.3069530    -1.0243470     1.2170770
  H        1.5834140    -0.1085280     2.0346680
  H       -0.4031770    -1.5700500    -1.4080150
  H       -4.3043690     0.2928860     1.0181070
  H       -2.0253310     2.7815300     0.2022010
  H       -3.1368610     2.2826280     1.5002420
  H       -1.3844770     2.1136550     1.7007310
  H       -2.4977120    -2.9041740    -1.2220500
  H       -4.4499260    -1.9612690     0.0072960
units angstrom
no_reorient  #important for SAPT in psi4, default
symmetry c1  #important for SAPT in psi4, default
}

set PROPERTIES_ORIGIN ["COM"]
properties('MP2/aug-cc-pvtz', properties = ['dipole'])
--------------------------------------------------------------------------

    Molecular point group: c1
  Charge       = 0
  Multiplicity = 1
  Basis Set: AUG-CC-PVTZ
    Blend: AUG-CC-PVTZ
  Basis Set: (AUG-CC-PVTZ AUX)
    Blend: AUG-CC-PVTZ-JKFIT

    Orbital Energies [Eh]
    ---------------------

    Doubly Occupied:

       1A    -20.512167     2A    -15.585035     3A    -11.349552
       4A    -11.263790     5A    -11.256566     6A    -11.252300
       7A    -11.246720     8A    -11.245495     9A    -11.243017
      10A    -11.239543    11A    -11.237410    12A    -11.231458
      13A    -11.227135    14A    -11.225256    15A    -11.220914
      16A     -1.368835    17A     -1.255095    18A     -1.161899
      19A     -1.079255    20A     -1.051066    21A     -1.033823
      22A     -1.019809    23A     -0.943512    24A     -0.918854
      25A     -0.871161    26A     -0.843463    27A     -0.814953
      28A     -0.789478    29A     -0.745542    30A     -0.714398
      31A     -0.667554    32A     -0.655623    33A     -0.650272
      34A     -0.630073    35A     -0.621713    36A     -0.614216
      37A     -0.596171    38A     -0.588188    39A     -0.576236
      40A     -0.572318    41A     -0.563748    42A     -0.543659
      43A     -0.542230    44A     -0.522971    45A     -0.506283
      46A     -0.501654    47A     -0.492327    48A     -0.488728
      49A     -0.475234    50A     -0.469388    51A     -0.462869
      52A     -0.418010    53A     -0.361229    54A     -0.340442
      55A     -0.330460

  @DF-RHF Final Energy:  -631.72315448704592

   => Energetics <=

    Nuclear Repulsion Energy =           1000.0101121846743126
    One-Electron Energy =               -2843.1883401580753343
    Two-Electron Energy =                1211.4550734863551043
    Total Energy =                       -631.7231544870460311
  Basis Set: (AUG-CC-PVTZ AUX)
    Blend: AUG-CC-PVTZ-RI
    Molecular point group: c1

    Geometry (in Angstrom), charge = 0, multiplicity = 1:

       Center              X                  Y                   Z               Mass
    ------------   -----------------  -----------------  -----------------  -----------------
         O            0.060662857548     1.932917520247    -1.185304771669    15.994914619570
         N            1.260227857548     0.445294520247     0.083243228331    14.003074004430
         C            3.731335857548    -0.968553479753     0.430844228331    12.000000000000
         C            3.583954857548     0.151719520247    -0.599477771669    12.000000000000
         C            2.383288857548    -1.635610479753     0.707440228331    12.000000000000
         C            2.513934857548     1.150122520247    -0.167538771669    12.000000000000
         C            1.272925657548    -0.525313279753     1.130120128331    12.000000000000
         C            0.102459857548     0.911262520247    -0.486185771669    12.000000000000
         C           -1.131091142452     0.084481520247    -0.271027771669    12.000000000000
         C           -2.232661142452     0.638076520247     0.407074228331    12.000000000000
         C           -1.212545142452    -1.189239479753    -0.846982771669    12.000000000000
         C           -3.395685142452    -0.132941479753     0.511530228331    12.000000000000
         C           -2.156849142452     2.019281520247     1.004542228331    12.000000000000
         C           -2.386916142452    -1.935770479753    -0.743954771669    12.000000000000
         C           -3.480728142452    -1.405071479753    -0.059321771669    12.000000000000
         H            4.462829857548    -1.710396479753     0.090745228331     1.007825032230
         H            4.120737857548    -0.546861479753     1.367835228331     1.007825032230
         H            4.537557857548     0.674392520247    -0.741740771669     1.007825032230
         H            3.295496857548    -0.270514479753    -1.569791771669     1.007825032230
         H            2.032929857548    -2.157382479753    -0.191662771669     1.007825032230
         H            2.476479857548    -2.382766479753     1.505072228331     1.007825032230
         H            2.826608857548     1.667213520247     0.752748228331     1.007825032230
         H            2.316922857548     1.904485520247    -0.930458771669     1.007825032230
         H            0.356687857548    -1.041912479753     1.240638228331     1.007825032230
         H            1.633148857548    -0.126093479753     2.058229228331     1.007825032230
         H           -0.353442142452    -1.587615479753    -1.384453771669     1.007825032230
         H           -4.254634142452     0.275320520247     1.041668228331     1.007825032230
         H           -1.975596142452     2.763964520247     0.225762228331     1.007825032230
         H           -3.087126142452     2.265062520247     1.523803228331     1.007825032230
         H           -1.334742142452     2.096089520247     1.724292228331     1.007825032230
         H           -2.447977142452    -2.921739479753    -1.198488771669     1.007825032230
         H           -4.400191142452    -1.978834479753     0.030857228331     1.007825032230

  Basis Set: AUG-CC-PVTZ
    Blend: AUG-CC-PVTZ
  Basis Set: (AUG-CC-PVTZ AUX)
    Blend: AUG-CC-PVTZ-JKFIT
	 Reference Energy          =    -631.7231544870459174 [Eh]
	 Singles Energy            =      -0.0000000000000000 [Eh]
	 Same-Spin Energy          =      -0.6888690430225106 [Eh]
	 Opposite-Spin Energy      =      -2.2124114147892420 [Eh]
	 Correlation Energy        =      -2.9012804578117528 [Eh]
	 Total Energy              =    -634.6244349448576259 [Eh]

	 ================> DF-SCS-MP2 Energies <==================
	-----------------------------------------------------------
	 SCS Same-Spin Scale       =       0.3333333333333333 [-]
	 SCS Opposite-Spin Scale   =       1.2000000000000000 [-]
	 SCS Same-Spin Energy      =      -0.2296230143408369 [Eh]
	 SCS Opposite-Spin Energy  =      -2.6548936977470903 [Eh]
	 SCS Correlation Energy    =      -2.8845167120879269 [Eh]
	 SCS Total Energy          =    -634.6076711991338470 [Eh]
	-----------------------------------------------------------

  Dipole Moment: [D]
     X:     1.3178      Y:    -2.3827      Z:     2.2802     Total:     3.5515

*** Psi4 exiting successfully. Buy a developer a beer!
