                               Psi4 1.4a3.dev225

  ==> Input File <==

--------------------------------------------------------------------------
#psi4
#
memory 32 gb

molecule  {
0 1
  O        0.0109280     1.9504830    -1.2088660
  N        1.2104930     0.4628600     0.0596820
  C        3.6816010    -0.9509880     0.4072830
  C        3.5342200     0.1692850    -0.6230390
  C        2.3335540    -1.6180450     0.6838790
  C        2.4642000     1.1676880    -0.1911000
  C        1.2914730    -0.5760260     1.0805660
  C        0.0527250     0.9288280    -0.5097470
  C       -1.1808260     0.1020470    -0.2945890
  C       -2.2823960     0.6556420     0.3835130
  C       -1.2622800    -1.1716740    -0.8705440
  C       -3.4454200    -0.1153760     0.4879690
  C       -2.2065840     2.0368470     0.9809810
  C       -2.4366510    -1.9182050    -0.7675160
  C       -3.5304630    -1.3875060    -0.0828830
  H        4.4130950    -1.6928310     0.0671840
  H        4.0710030    -0.5292960     1.3442740
  H        4.4878230     0.6919580    -0.7653020
  H        3.2457620    -0.2529490    -1.5933530
  H        1.9831950    -2.1398170    -0.2152240
  H        2.4267450    -2.3652010     1.4815110
  H        2.7768740     1.6847790     0.7291870
  H        2.2671880     1.9220510    -0.9540200
  H        0.3069530    -1.0243470     1.2170770
  H        1.5834140    -0.1085280     2.0346680
  H       -0.4031770    -1.5700500    -1.4080150
  H       -4.3043690     0.2928860     1.0181070
  H       -2.0253310     2.7815300     0.2022010
  H       -3.1368610     2.2826280     1.5002420
  H       -1.3994878     2.1122526     1.6875891
  H       -2.4977120    -2.9041740    -1.2220500
  H       -4.4499260    -1.9612690     0.0072960
units angstrom
no_reorient  #important for SAPT in psi4, default
symmetry c1  #important for SAPT in psi4, default
}

set PROPERTIES_ORIGIN ["COM"]
properties('MP2/aug-cc-pvtz', properties = ['dipole'])
--------------------------------------------------------------------------

    Molecular point group: c1
  Charge       = 0
  Multiplicity = 1
  Basis Set: AUG-CC-PVTZ
    Blend: AUG-CC-PVTZ
  Basis Set: (AUG-CC-PVTZ AUX)
    Blend: AUG-CC-PVTZ-JKFIT

    Orbital Energies [Eh]
    ---------------------

    Doubly Occupied:

       1A    -20.510809     2A    -15.583930     3A    -11.349464
       4A    -11.267091     5A    -11.254658     6A    -11.251693
       7A    -11.246288     8A    -11.244953     9A    -11.242576
      10A    -11.239064    11A    -11.236852    12A    -11.230648
      13A    -11.228336    14A    -11.225695    15A    -11.217875
      16A     -1.367022    17A     -1.249617    18A     -1.161390
      19A     -1.083622    20A     -1.051119    21A     -1.037305
      22A     -1.023157    23A     -0.944130    24A     -0.919205
      25A     -0.867476    26A     -0.844107    27A     -0.815461
      28A     -0.791143    29A     -0.742730    30A     -0.712441
      31A     -0.666838    32A     -0.652867    33A     -0.648416
      34A     -0.627876    35A     -0.620406    36A     -0.615382
      37A     -0.596424    38A     -0.588178    39A     -0.576951
      40A     -0.572715    41A     -0.560258    42A     -0.547655
      43A     -0.541707    44A     -0.525050    45A     -0.508396
      46A     -0.502134    47A     -0.491612    48A     -0.489299
      49A     -0.478525    50A     -0.469647    51A     -0.461571
      52A     -0.416933    53A     -0.366252    54A     -0.339934
      55A     -0.330041

  @DF-RHF Final Energy:  -631.73071840244597

   => Energetics <=

    Nuclear Repulsion Energy =           1000.0512292546450226
    One-Electron Energy =               -2843.2940532766783690
    Two-Electron Energy =                1211.5121056195873734
    Total Energy =                       -631.7307184024459730
  Basis Set: (AUG-CC-PVTZ AUX)
    Blend: AUG-CC-PVTZ-RI
    Molecular point group: c1

    Geometry (in Angstrom), charge = 0, multiplicity = 1:

       Center              X                  Y                   Z               Mass
    ------------   -----------------  -----------------  -----------------  -----------------
         O            0.056703550086     1.936958024732    -1.183704033658    15.994914619570
         N            1.256268550086     0.449335024732     0.084843966342    14.003074004430
         C            3.727376550086    -0.964512975268     0.432444966342    12.000000000000
         C            3.579995550086     0.155760024732    -0.597877033658    12.000000000000
         C            2.379329550086    -1.631569975268     0.709040966342    12.000000000000
         C            2.509975550086     1.154163024732    -0.165938033658    12.000000000000
         C            1.337248550086    -0.589550975268     1.105727966342    12.000000000000
         C            0.098500550086     0.915303024732    -0.484585033658    12.000000000000
         C           -1.135050449914     0.088522024732    -0.269427033658    12.000000000000
         C           -2.236620449914     0.642117024732     0.408674966342    12.000000000000
         C           -1.216504449914    -1.185198975268    -0.845382033658    12.000000000000
         C           -3.399644449914    -0.128900975268     0.513130966342    12.000000000000
         C           -2.160808449914     2.023322024732     1.006142966342    12.000000000000
         C           -2.390875449914    -1.931729975268    -0.742354033658    12.000000000000
         C           -3.484687449914    -1.401030975268    -0.057721033658    12.000000000000
         H            4.458870550086    -1.706355975268     0.092345966342     1.007825032230
         H            4.116778550086    -0.542820975268     1.369435966342     1.007825032230
         H            4.533598550086     0.678433024732    -0.740140033658     1.007825032230
         H            3.291537550086    -0.266473975268    -1.568191033658     1.007825032230
         H            2.028970550086    -2.153341975268    -0.190062033658     1.007825032230
         H            2.472520550086    -2.378725975268     1.506672966342     1.007825032230
         H            2.822649550086     1.671254024732     0.754348966342     1.007825032230
         H            2.312963550086     1.908526024732    -0.928858033658     1.007825032230
         H            0.352728550086    -1.037871975268     1.242238966342     1.007825032230
         H            1.629189550086    -0.122052975268     2.059829966342     1.007825032230
         H           -0.357401449914    -1.583574975268    -1.382853033658     1.007825032230
         H           -4.258593449914     0.279361024732     1.043268966342     1.007825032230
         H           -1.979555449914     2.768005024732     0.227362966342     1.007825032230
         H           -3.091085449914     2.269103024732     1.525403966342     1.007825032230
         H           -1.353712249914     2.098727624732     1.712751066342     1.007825032230
         H           -2.451936449914    -2.917698975268    -1.196888033658     1.007825032230
         H           -4.404150449914    -1.974793975268     0.032457966342     1.007825032230

  Basis Set: AUG-CC-PVTZ
    Blend: AUG-CC-PVTZ
  Basis Set: (AUG-CC-PVTZ AUX)
    Blend: AUG-CC-PVTZ-JKFIT
	 Reference Energy          =    -631.7307184024459730 [Eh]
	 Singles Energy            =      -0.0000000000000000 [Eh]
	 Same-Spin Energy          =      -0.6890128785023151 [Eh]
	 Opposite-Spin Energy      =      -2.2121442181080098 [Eh]
	 Correlation Energy        =      -2.9011570966103246 [Eh]
	 Total Energy              =    -634.6318754990562638 [Eh]

	 ================> DF-SCS-MP2 Energies <==================
	-----------------------------------------------------------
	 SCS Same-Spin Scale       =       0.3333333333333333 [-]
	 SCS Opposite-Spin Scale   =       1.2000000000000000 [-]
	 SCS Same-Spin Energy      =      -0.2296709595007717 [Eh]
	 SCS Opposite-Spin Energy  =      -2.6545730617296117 [Eh]
	 SCS Correlation Energy    =      -2.8842440212303835 [Eh]
	 SCS Total Energy          =    -634.6149624236763884 [Eh]
	-----------------------------------------------------------

  Dipole Moment: [D]
     X:     1.4108      Y:    -2.5154      Z:     2.3110     Total:     3.6957

*** Psi4 exiting successfully. Buy a developer a beer!
