                               Psi4 1.4a3.dev225

  ==> Input File <==

--------------------------------------------------------------------------
#psi4
#
memory 32 gb

molecule  {
0 1
  O        0.0109280     1.9504830    -1.2088660
  N        1.2104930     0.4628600     0.0596820
  C        3.6816010    -0.9509880     0.4072830
  C        3.5342200     0.1692850    -0.6230390
  C        2.3335540    -1.6180450     0.6838790
  C        2.4642000     1.1676880    -0.1911000
  C        1.2914730    -0.5760260     1.0805660
  C        0.0527250     0.9288280    -0.5097470
  C       -1.1808260     0.1020470    -0.2945890
  C       -2.2823960     0.6556420     0.3835130
  C       -1.2622800    -1.1716740    -0.8705440
  C       -3.4454200    -0.1153760     0.4879690
  C       -2.2065840     2.0368470     0.9809810
  C       -2.4366510    -1.9182050    -0.7675160
  C       -3.5304630    -1.3875060    -0.0828830
  H        4.4130950    -1.6928310     0.0671840
  H        4.0710030    -0.5292960     1.3442740
  H        4.4878230     0.6919580    -0.7653020
  H        3.2457620    -0.2529490    -1.5933530
  H        1.9831950    -2.1398170    -0.2152240
  H        2.4267450    -2.3652010     1.4815110
  H        2.8336751     1.7787150     0.8963685
  H        2.2671880     1.9220510    -0.9540200
  H        0.3069530    -1.0243470     1.2170770
  H        1.5834140    -0.1085280     2.0346680
  H       -0.4031770    -1.5700500    -1.4080150
  H       -4.3043690     0.2928860     1.0181070
  H       -2.0253310     2.7815300     0.2022010
  H       -3.1368610     2.2826280     1.5002420
  H       -1.3844770     2.1136550     1.7007310
  H       -2.4977120    -2.9041740    -1.2220500
  H       -4.4499260    -1.9612690     0.0072960
units angstrom
no_reorient  #important for SAPT in psi4, default
symmetry c1  #important for SAPT in psi4, default
}

set PROPERTIES_ORIGIN ["COM"]
properties('MP2/aug-cc-pvtz', properties = ['dipole'])
--------------------------------------------------------------------------

    Molecular point group: c1
  Charge       = 0
  Multiplicity = 1
  Basis Set: AUG-CC-PVTZ
    Blend: AUG-CC-PVTZ
  Basis Set: (AUG-CC-PVTZ AUX)
    Blend: AUG-CC-PVTZ-JKFIT

    Orbital Energies [Eh]
    ---------------------

    Doubly Occupied:

       1A    -20.513006     2A    -15.587566     3A    -11.351560
       4A    -11.277821     5A    -11.267455     6A    -11.252695
       7A    -11.247314     8A    -11.246039     9A    -11.243405
      10A    -11.239870    11A    -11.237663    12A    -11.231168
      13A    -11.228918    14A    -11.228307    15A    -11.220784
      16A     -1.369036    17A     -1.251053    18A     -1.162242
      19A     -1.084327    20A     -1.051494    21A     -1.036303
      22A     -1.023003    23A     -0.943261    24A     -0.916887
      25A     -0.867800    26A     -0.842419    27A     -0.816237
      28A     -0.789733    29A     -0.736858    30A     -0.713761
      31A     -0.667784    32A     -0.653409    33A     -0.645225
      34A     -0.626583    35A     -0.621122    36A     -0.611260
      37A     -0.594971    38A     -0.586873    39A     -0.576425
      40A     -0.571646    41A     -0.562101    42A     -0.549092
      43A     -0.542048    44A     -0.524265    45A     -0.508277
      46A     -0.495403    47A     -0.490675    48A     -0.486436
      49A     -0.477709    50A     -0.468154    51A     -0.460173
      52A     -0.418825    53A     -0.365868    54A     -0.340822
      55A     -0.330789

  @DF-RHF Final Energy:  -631.71132803707212

   => Energetics <=

    Nuclear Repulsion Energy =            998.9649314076474411
    One-Electron Energy =               -2841.0446867506216222
    Two-Electron Energy =                1210.3684273059022871
    Total Energy =                       -631.7113280370720076
  Basis Set: (AUG-CC-PVTZ AUX)
    Blend: AUG-CC-PVTZ-RI
    Molecular point group: c1

    Geometry (in Angstrom), charge = 0, multiplicity = 1:

       Center              X                  Y                   Z               Mass
    ------------   -----------------  -----------------  -----------------  -----------------
         O            0.056347258701     1.936485007717    -1.184598699778    15.994914619570
         N            1.255912258701     0.448862007717     0.083949300222    14.003074004430
         C            3.727020258701    -0.964985992283     0.431550300222    12.000000000000
         C            3.579639258701     0.155287007717    -0.598771699778    12.000000000000
         C            2.378973258701    -1.632042992283     0.708146300222    12.000000000000
         C            2.509619258701     1.153690007717    -0.166832699778    12.000000000000
         C            1.336892258701    -0.590023992283     1.104833300222    12.000000000000
         C            0.098144258701     0.914830007717    -0.485479699778    12.000000000000
         C           -1.135406741299     0.088049007717    -0.270321699778    12.000000000000
         C           -2.236976741299     0.641644007717     0.407780300222    12.000000000000
         C           -1.216860741299    -1.185671992283    -0.846276699778    12.000000000000
         C           -3.400000741299    -0.129373992283     0.512236300222    12.000000000000
         C           -2.161164741299     2.022849007717     1.005248300222    12.000000000000
         C           -2.391231741299    -1.932202992283    -0.743248699778    12.000000000000
         C           -3.485043741299    -1.401503992283    -0.058615699778    12.000000000000
         H            4.458514258701    -1.706828992283     0.091451300222     1.007825032230
         H            4.116422258701    -0.543293992283     1.368541300222     1.007825032230
         H            4.533242258701     0.677960007717    -0.741034699778     1.007825032230
         H            3.291181258701    -0.266946992283    -1.569085699778     1.007825032230
         H            2.028614258701    -2.153814992283    -0.190956699778     1.007825032230
         H            2.472164258701    -2.379198992283     1.505778300222     1.007825032230
         H            2.879094358701     1.764717007717     0.920635800222     1.007825032230
         H            2.312607258701     1.908053007717    -0.929752699778     1.007825032230
         H            0.352372258701    -1.038344992283     1.241344300222     1.007825032230
         H            1.628833258701    -0.122525992283     2.058935300222     1.007825032230
         H           -0.357757741299    -1.584047992283    -1.383747699778     1.007825032230
         H           -4.258949741299     0.278888007717     1.042374300222     1.007825032230
         H           -1.979911741299     2.767532007717     0.226468300222     1.007825032230
         H           -3.091441741299     2.268630007717     1.524509300222     1.007825032230
         H           -1.339057741299     2.099657007717     1.724998300222     1.007825032230
         H           -2.452292741299    -2.918171992283    -1.197782699778     1.007825032230
         H           -4.404506741299    -1.975266992283     0.031563300222     1.007825032230

  Basis Set: AUG-CC-PVTZ
    Blend: AUG-CC-PVTZ
  Basis Set: (AUG-CC-PVTZ AUX)
    Blend: AUG-CC-PVTZ-JKFIT
	 Reference Energy          =    -631.7113280370721213 [Eh]
	 Singles Energy            =      -0.0000000000000000 [Eh]
	 Same-Spin Energy          =      -0.6892634689517614 [Eh]
	 Opposite-Spin Energy      =      -2.2139403019742425 [Eh]
	 Correlation Energy        =      -2.9032037709260039 [Eh]
	 Total Energy              =    -634.6145318079981053 [Eh]

	 ================> DF-SCS-MP2 Energies <==================
	-----------------------------------------------------------
	 SCS Same-Spin Scale       =       0.3333333333333333 [-]
	 SCS Opposite-Spin Scale   =       1.2000000000000000 [-]
	 SCS Same-Spin Energy      =      -0.2297544896505871 [Eh]
	 SCS Opposite-Spin Energy  =      -2.6567283623690909 [Eh]
	 SCS Correlation Energy    =      -2.8864828520196779 [Eh]
	 SCS Total Energy          =    -634.5978108890917611 [Eh]
	-----------------------------------------------------------

  Dipole Moment: [D]
     X:     1.2572      Y:    -2.6409      Z:     2.1610     Total:     3.6366

*** Psi4 exiting successfully. Buy a developer a beer!
