                               Psi4 1.4a3.dev225

  ==> Input File <==

--------------------------------------------------------------------------
#psi4
#
memory 32 gb

molecule  {
0 1
  O        0.0109280     1.9504830    -1.2088660
  N        1.2107691     0.4713739     0.0836966
  C        3.6816010    -0.9509880     0.4072830
  C        3.5342200     0.1692850    -0.6230390
  C        2.3335540    -1.6180450     0.6838790
  C        2.4642000     1.1676880    -0.1911000
  C        1.2914730    -0.5760260     1.0805660
  C        0.0527250     0.9288280    -0.5097470
  C       -1.1808260     0.1020470    -0.2945890
  C       -2.2823960     0.6556420     0.3835130
  C       -1.2622800    -1.1716740    -0.8705440
  C       -3.4454200    -0.1153760     0.4879690
  C       -2.2065840     2.0368470     0.9809810
  C       -2.4366510    -1.9182050    -0.7675160
  C       -3.5304630    -1.3875060    -0.0828830
  H        4.4130950    -1.6928310     0.0671840
  H        4.0710030    -0.5292960     1.3442740
  H        4.4878230     0.6919580    -0.7653020
  H        3.2457620    -0.2529490    -1.5933530
  H        1.9831950    -2.1398170    -0.2152240
  H        2.4267450    -2.3652010     1.4815110
  H        2.7768740     1.6847790     0.7291870
  H        2.2671880     1.9220510    -0.9540200
  H        0.3069530    -1.0243470     1.2170770
  H        1.5834140    -0.1085280     2.0346680
  H       -0.4031770    -1.5700500    -1.4080150
  H       -4.3043690     0.2928860     1.0181070
  H       -2.0253310     2.7815300     0.2022010
  H       -3.1368610     2.2826280     1.5002420
  H       -1.3844770     2.1136550     1.7007310
  H       -2.4977120    -2.9041740    -1.2220500
  H       -4.4499260    -1.9612690     0.0072960
units angstrom
no_reorient  #important for SAPT in psi4, default
symmetry c1  #important for SAPT in psi4, default
}

set PROPERTIES_ORIGIN ["COM"]
properties('MP2/aug-cc-pvtz', properties = ['dipole'])
--------------------------------------------------------------------------

    Molecular point group: c1
  Charge       = 0
  Multiplicity = 1
  Basis Set: AUG-CC-PVTZ
    Blend: AUG-CC-PVTZ
  Basis Set: (AUG-CC-PVTZ AUX)
    Blend: AUG-CC-PVTZ-JKFIT

    Orbital Energies [Eh]
    ---------------------

    Doubly Occupied:

       1A    -20.512028     2A    -15.583446     3A    -11.350738
       4A    -11.265891     5A    -11.254486     6A    -11.252021
       7A    -11.246549     8A    -11.245230     9A    -11.242781
      10A    -11.239283    11A    -11.237113    12A    -11.230430
      13A    -11.228232    14A    -11.225802    15A    -11.220384
      16A     -1.367080    17A     -1.250409    18A     -1.161593
      19A     -1.083052    20A     -1.050906    21A     -1.037246
      22A     -1.023685    23A     -0.943043    24A     -0.917821
      25A     -0.868054    26A     -0.844686    27A     -0.815691
      28A     -0.791179    29A     -0.741978    30A     -0.712117
      31A     -0.667042    32A     -0.652995    33A     -0.648175
      34A     -0.627208    35A     -0.621058    36A     -0.615940
      37A     -0.596540    38A     -0.587645    39A     -0.575931
      40A     -0.571761    41A     -0.561915    42A     -0.547574
      43A     -0.541922    44A     -0.523826    45A     -0.508361
      46A     -0.501602    47A     -0.491524    48A     -0.489392
      49A     -0.478882    50A     -0.469320    51A     -0.462505
      52A     -0.417244    53A     -0.364756    54A     -0.340180
      55A     -0.330155

  @DF-RHF Final Energy:  -631.73023878197898

   => Energetics <=

    Nuclear Repulsion Energy =            999.8857831261030924
    One-Electron Energy =               -2842.9592335735760571
    Two-Electron Energy =                1211.3432116654942092
    Total Energy =                       -631.7302387819788692
  Basis Set: (AUG-CC-PVTZ AUX)
    Blend: AUG-CC-PVTZ-RI
    Molecular point group: c1

    Geometry (in Angstrom), charge = 0, multiplicity = 1:

       Center              X                  Y                   Z               Mass
    ------------   -----------------  -----------------  -----------------  -----------------
         O            0.056610041427     1.936364151137    -1.185424711114    15.994914619570
         N            1.256451141427     0.457255051137     0.107137888886    14.003074004430
         C            3.727283041427    -0.965106848863     0.430724288886    12.000000000000
         C            3.579902041427     0.155166151137    -0.599597711114    12.000000000000
         C            2.379236041427    -1.632163848863     0.707320288886    12.000000000000
         C            2.509882041427     1.153569151137    -0.167658711114    12.000000000000
         C            1.337155041427    -0.590144848863     1.104007288886    12.000000000000
         C            0.098407041427     0.914709151137    -0.486305711114    12.000000000000
         C           -1.135143958573     0.087928151137    -0.271147711114    12.000000000000
         C           -2.236713958573     0.641523151137     0.406954288886    12.000000000000
         C           -1.216597958573    -1.185792848863    -0.847102711114    12.000000000000
         C           -3.399737958573    -0.129494848863     0.511410288886    12.000000000000
         C           -2.160901958573     2.022728151137     1.004422288886    12.000000000000
         C           -2.390968958573    -1.932323848863    -0.744074711114    12.000000000000
         C           -3.484780958573    -1.401624848863    -0.059441711114    12.000000000000
         H            4.458777041427    -1.706949848863     0.090625288886     1.007825032230
         H            4.116685041427    -0.543414848863     1.367715288886     1.007825032230
         H            4.533505041427     0.677839151137    -0.741860711114     1.007825032230
         H            3.291444041427    -0.267067848863    -1.569911711114     1.007825032230
         H            2.028877041427    -2.153935848863    -0.191782711114     1.007825032230
         H            2.472427041427    -2.379319848863     1.504952288886     1.007825032230
         H            2.822556041427     1.670660151137     0.752628288886     1.007825032230
         H            2.312870041427     1.907932151137    -0.930578711114     1.007825032230
         H            0.352635041427    -1.038465848863     1.240518288886     1.007825032230
         H            1.629096041427    -0.122646848863     2.058109288886     1.007825032230
         H           -0.357494958573    -1.584168848863    -1.384573711114     1.007825032230
         H           -4.258686958573     0.278767151137     1.041548288886     1.007825032230
         H           -1.979648958573     2.767411151137     0.225642288886     1.007825032230
         H           -3.091178958573     2.268509151137     1.523683288886     1.007825032230
         H           -1.338794958573     2.099536151137     1.724172288886     1.007825032230
         H           -2.452029958573    -2.918292848863    -1.198608711114     1.007825032230
         H           -4.404243958573    -1.975387848863     0.030737288886     1.007825032230

  Basis Set: AUG-CC-PVTZ
    Blend: AUG-CC-PVTZ
  Basis Set: (AUG-CC-PVTZ AUX)
    Blend: AUG-CC-PVTZ-JKFIT
	 Reference Energy          =    -631.7302387819789828 [Eh]
	 Singles Energy            =      -0.0000000000000000 [Eh]
	 Same-Spin Energy          =      -0.6891222097926546 [Eh]
	 Opposite-Spin Energy      =      -2.2123893984231824 [Eh]
	 Correlation Energy        =      -2.9015116082158370 [Eh]
	 Total Energy              =    -634.6317503901948385 [Eh]

	 ================> DF-SCS-MP2 Energies <==================
	-----------------------------------------------------------
	 SCS Same-Spin Scale       =       0.3333333333333333 [-]
	 SCS Opposite-Spin Scale   =       1.2000000000000000 [-]
	 SCS Same-Spin Energy      =      -0.2297074032642182 [Eh]
	 SCS Opposite-Spin Energy  =      -2.6548672781078189 [Eh]
	 SCS Correlation Energy    =      -2.8845746813720372 [Eh]
	 SCS Total Energy          =    -634.6148134633509699 [Eh]
	-----------------------------------------------------------

  Dipole Moment: [D]
     X:     1.3863      Y:    -2.5177      Z:     2.2597     Total:     3.6561

*** Psi4 exiting successfully. Buy a developer a beer!
