                               Psi4 1.4a3.dev225

  ==> Input File <==

--------------------------------------------------------------------------
#psi4
#
memory 32 gb

molecule  {
0 1
  O        0.0109280     1.9504830    -1.2088660
  N        1.2104930     0.4628600     0.0596820
  C        3.6816010    -0.9509880     0.4072830
  C        3.5385609     0.1953615    -0.6692762
  C        2.3335540    -1.6180450     0.6838790
  C        2.4642000     1.1676880    -0.1911000
  C        1.2914730    -0.5760260     1.0805660
  C        0.0527250     0.9288280    -0.5097470
  C       -1.1808260     0.1020470    -0.2945890
  C       -2.2823960     0.6556420     0.3835130
  C       -1.2622800    -1.1716740    -0.8705440
  C       -3.4454200    -0.1153760     0.4879690
  C       -2.2065840     2.0368470     0.9809810
  C       -2.4366510    -1.9182050    -0.7675160
  C       -3.5304630    -1.3875060    -0.0828830
  H        4.4130950    -1.6928310     0.0671840
  H        4.0710030    -0.5292960     1.3442740
  H        4.4878230     0.6919580    -0.7653020
  H        3.2457620    -0.2529490    -1.5933530
  H        1.9831950    -2.1398170    -0.2152240
  H        2.4267450    -2.3652010     1.4815110
  H        2.7768740     1.6847790     0.7291870
  H        2.2671880     1.9220510    -0.9540200
  H        0.3069530    -1.0243470     1.2170770
  H        1.5834140    -0.1085280     2.0346680
  H       -0.4031770    -1.5700500    -1.4080150
  H       -4.3043690     0.2928860     1.0181070
  H       -2.0253310     2.7815300     0.2022010
  H       -3.1368610     2.2826280     1.5002420
  H       -1.3844770     2.1136550     1.7007310
  H       -2.4977120    -2.9041740    -1.2220500
  H       -4.4499260    -1.9612690     0.0072960
units angstrom
no_reorient  #important for SAPT in psi4, default
symmetry c1  #important for SAPT in psi4, default
}

set PROPERTIES_ORIGIN ["COM"]
properties('MP2/aug-cc-pvtz', properties = ['dipole'])
--------------------------------------------------------------------------

    Molecular point group: c1
  Charge       = 0
  Multiplicity = 1
  Basis Set: AUG-CC-PVTZ
    Blend: AUG-CC-PVTZ
  Basis Set: (AUG-CC-PVTZ AUX)
    Blend: AUG-CC-PVTZ-JKFIT

    Orbital Energies [Eh]
    ---------------------

    Doubly Occupied:

       1A    -20.510732     2A    -15.584142     3A    -11.349550
       4A    -11.266725     5A    -11.254269     6A    -11.251856
       7A    -11.246383     8A    -11.245062     9A    -11.242657
      10A    -11.239156    11A    -11.236983    12A    -11.230444
      13A    -11.229458    14A    -11.223926    15A    -11.220331
      16A     -1.366925    17A     -1.249041    18A     -1.161411
      19A     -1.078397    20A     -1.050738    21A     -1.037497
      22A     -1.022772    23A     -0.942583    24A     -0.917306
      25A     -0.868724    26A     -0.842870    27A     -0.815528
      28A     -0.792854    29A     -0.742776    30A     -0.711934
      31A     -0.666315    32A     -0.653336    33A     -0.648338
      34A     -0.628837    35A     -0.620794    36A     -0.614907
      37A     -0.595655    38A     -0.586677    39A     -0.575636
      40A     -0.571186    41A     -0.558280    42A     -0.547789
      43A     -0.541318    44A     -0.525117    45A     -0.509501
      46A     -0.504726    47A     -0.492484    48A     -0.489552
      49A     -0.481215    50A     -0.472022    51A     -0.450830
      52A     -0.416683    53A     -0.366727    54A     -0.339986
      55A     -0.329996

  @DF-RHF Final Energy:  -631.72853935220485

   => Energetics <=

    Nuclear Repulsion Energy =            999.3294670750260593
    One-Electron Energy =               -2841.8741444893335029
    Two-Electron Energy =                1210.8161380621024819
    Total Energy =                       -631.7285393522049617
  Basis Set: (AUG-CC-PVTZ AUX)
    Blend: AUG-CC-PVTZ-RI
    Molecular point group: c1

    Geometry (in Angstrom), charge = 0, multiplicity = 1:

       Center              X                  Y                   Z               Mass
    ------------   -----------------  -----------------  -----------------  -----------------
         O            0.056372635281     1.935410593016    -1.181037765946    15.994914619570
         N            1.255937635281     0.447787593016     0.087510234054    14.003074004430
         C            3.727045635281    -0.966060406984     0.435111234054    12.000000000000
         C            3.584005535281     0.180289093016    -0.641447965946    12.000000000000
         C            2.378998635281    -1.633117406984     0.711707234054    12.000000000000
         C            2.509644635281     1.152615593016    -0.163271765946    12.000000000000
         C            1.336917635281    -0.591098406984     1.108394234054    12.000000000000
         C            0.098169635281     0.913755593016    -0.481918765946    12.000000000000
         C           -1.135381364719     0.086974593016    -0.266760765946    12.000000000000
         C           -2.236951364719     0.640569593016     0.411341234054    12.000000000000
         C           -1.216835364719    -1.186746406984    -0.842715765946    12.000000000000
         C           -3.399975364719    -0.130448406984     0.515797234054    12.000000000000
         C           -2.161139364719     2.021774593016     1.008809234054    12.000000000000
         C           -2.391206364719    -1.933277406984    -0.739687765946    12.000000000000
         C           -3.485018364719    -1.402578406984    -0.055054765946    12.000000000000
         H            4.458539635281    -1.707903406984     0.095012234054     1.007825032230
         H            4.116447635281    -0.544368406984     1.372102234054     1.007825032230
         H            4.533267635281     0.676885593016    -0.737473765946     1.007825032230
         H            3.291206635281    -0.268021406984    -1.565524765946     1.007825032230
         H            2.028639635281    -2.154889406984    -0.187395765946     1.007825032230
         H            2.472189635281    -2.380273406984     1.509339234054     1.007825032230
         H            2.822318635281     1.669706593016     0.757015234054     1.007825032230
         H            2.312632635281     1.906978593016    -0.926191765946     1.007825032230
         H            0.352397635281    -1.039419406984     1.244905234054     1.007825032230
         H            1.628858635281    -0.123600406984     2.062496234054     1.007825032230
         H           -0.357732364719    -1.585122406984    -1.380186765946     1.007825032230
         H           -4.258924364719     0.277813593016     1.045935234054     1.007825032230
         H           -1.979886364719     2.766457593016     0.230029234054     1.007825032230
         H           -3.091416364719     2.267555593016     1.528070234054     1.007825032230
         H           -1.339032364719     2.098582593016     1.728559234054     1.007825032230
         H           -2.452267364719    -2.919246406984    -1.194221765946     1.007825032230
         H           -4.404481364719    -1.976341406984     0.035124234054     1.007825032230

  Basis Set: AUG-CC-PVTZ
    Blend: AUG-CC-PVTZ
  Basis Set: (AUG-CC-PVTZ AUX)
    Blend: AUG-CC-PVTZ-JKFIT
	 Reference Energy          =    -631.7285393522048480 [Eh]
	 Singles Energy            =      -0.0000000000000000 [Eh]
	 Same-Spin Energy          =      -0.6887655384011422 [Eh]
	 Opposite-Spin Energy      =      -2.2121528726088133 [Eh]
	 Correlation Energy        =      -2.9009184110099557 [Eh]
	 Total Energy              =    -634.6294577632147593 [Eh]

	 ================> DF-SCS-MP2 Energies <==================
	-----------------------------------------------------------
	 SCS Same-Spin Scale       =       0.3333333333333333 [-]
	 SCS Opposite-Spin Scale   =       1.2000000000000000 [-]
	 SCS Same-Spin Energy      =      -0.2295885128003807 [Eh]
	 SCS Opposite-Spin Energy  =      -2.6545834471305758 [Eh]
	 SCS Correlation Energy    =      -2.8841719599309563 [Eh]
	 SCS Total Energy          =    -634.6127113121358434 [Eh]
	-----------------------------------------------------------

  Dipole Moment: [D]
     X:     1.3989      Y:    -2.5062      Z:     2.2843     Total:     3.6683

*** Psi4 exiting successfully. Buy a developer a beer!
