                               Psi4 1.4a3.dev225

  ==> Input File <==

--------------------------------------------------------------------------
#psi4
#
memory 32 gb

molecule  {
0 1
  O        0.0109280     1.9504830    -1.2088660
  N        1.2104930     0.4628600     0.0596820
  C        3.6816010    -0.9509880     0.4072830
  C        3.5342200     0.1692850    -0.6230390
  C        2.3335540    -1.6180450     0.6838790
  C        2.4642000     1.1676880    -0.1911000
  C        1.2914730    -0.5760260     1.0805660
  C        0.0412221     0.9488081    -0.4973249
  C       -1.1808260     0.1020470    -0.2945890
  C       -2.2823960     0.6556420     0.3835130
  C       -1.2622800    -1.1716740    -0.8705440
  C       -3.4454200    -0.1153760     0.4879690
  C       -2.2065840     2.0368470     0.9809810
  C       -2.4366510    -1.9182050    -0.7675160
  C       -3.5304630    -1.3875060    -0.0828830
  H        4.4130950    -1.6928310     0.0671840
  H        4.0710030    -0.5292960     1.3442740
  H        4.4878230     0.6919580    -0.7653020
  H        3.2457620    -0.2529490    -1.5933530
  H        1.9831950    -2.1398170    -0.2152240
  H        2.4267450    -2.3652010     1.4815110
  H        2.7768740     1.6847790     0.7291870
  H        2.2671880     1.9220510    -0.9540200
  H        0.3069530    -1.0243470     1.2170770
  H        1.5834140    -0.1085280     2.0346680
  H       -0.4031770    -1.5700500    -1.4080150
  H       -4.3043690     0.2928860     1.0181070
  H       -2.0253310     2.7815300     0.2022010
  H       -3.1368610     2.2826280     1.5002420
  H       -1.3844770     2.1136550     1.7007310
  H       -2.4977120    -2.9041740    -1.2220500
  H       -4.4499260    -1.9612690     0.0072960
units angstrom
no_reorient  #important for SAPT in psi4, default
symmetry c1  #important for SAPT in psi4, default
}

set PROPERTIES_ORIGIN ["COM"]
properties('MP2/aug-cc-pvtz', properties = ['dipole'])
--------------------------------------------------------------------------

    Molecular point group: c1
  Charge       = 0
  Multiplicity = 1
  Basis Set: AUG-CC-PVTZ
    Blend: AUG-CC-PVTZ
  Basis Set: (AUG-CC-PVTZ AUX)
    Blend: AUG-CC-PVTZ-JKFIT

    Orbital Energies [Eh]
    ---------------------

    Doubly Occupied:

       1A    -20.513771     2A    -15.581694     3A    -11.349975
       4A    -11.265786     5A    -11.253576     6A    -11.251694
       7A    -11.246732     8A    -11.245170     9A    -11.242805
      10A    -11.239410    11A    -11.237013    12A    -11.229800
      13A    -11.227571    14A    -11.224891    15A    -11.221079
      16A     -1.372984    17A     -1.247675    18A     -1.161677
      19A     -1.082057    20A     -1.051369    21A     -1.036458
      22A     -1.022666    23A     -0.943025    24A     -0.916930
      25A     -0.866462    26A     -0.844392    27A     -0.814689
      28A     -0.789792    29A     -0.742280    30A     -0.712046
      31A     -0.667527    32A     -0.652760    33A     -0.648151
      34A     -0.627001    35A     -0.620531    36A     -0.615056
      37A     -0.596884    38A     -0.587932    39A     -0.575857
      40A     -0.572263    41A     -0.560163    42A     -0.546980
      43A     -0.543190    44A     -0.525773    45A     -0.508553
      46A     -0.501612    47A     -0.491436    48A     -0.489172
      49A     -0.479068    50A     -0.468904    51A     -0.460661
      52A     -0.418071    53A     -0.365521    54A     -0.340172
      55A     -0.330341

  @DF-RHF Final Energy:  -631.73056587402459

   => Energetics <=

    Nuclear Repulsion Energy =            999.9154658258336212
    One-Electron Energy =               -2843.0339690770369998
    Two-Electron Energy =                1211.3879373771787868
    Total Energy =                       -631.7305658740247054
  Basis Set: (AUG-CC-PVTZ AUX)
    Blend: AUG-CC-PVTZ-RI
    Molecular point group: c1

    Geometry (in Angstrom), charge = 0, multiplicity = 1:

       Center              X                  Y                   Z               Mass
    ------------   -----------------  -----------------  -----------------  -----------------
         O            0.057308610522     1.935770738907    -1.184503074299    15.994914619570
         N            1.256873610522     0.448147738907     0.084044925701    14.003074004430
         C            3.727981610522    -0.965700261093     0.431645925701    12.000000000000
         C            3.580600610522     0.154572738907    -0.598676074299    12.000000000000
         C            2.379934610522    -1.632757261093     0.708241925701    12.000000000000
         C            2.510580610522     1.152975738907    -0.166737074299    12.000000000000
         C            1.337853610522    -0.590738261093     1.104928925701    12.000000000000
         C            0.087602710522     0.934095838907    -0.472961974299    12.000000000000
         C           -1.134445389478     0.087334738907    -0.270226074299    12.000000000000
         C           -2.236015389478     0.640929738907     0.407875925701    12.000000000000
         C           -1.215899389478    -1.186386261093    -0.846181074299    12.000000000000
         C           -3.399039389478    -0.130088261093     0.512331925701    12.000000000000
         C           -2.160203389478     2.022134738907     1.005343925701    12.000000000000
         C           -2.390270389478    -1.932917261093    -0.743153074299    12.000000000000
         C           -3.484082389478    -1.402218261093    -0.058520074299    12.000000000000
         H            4.459475610522    -1.707543261093     0.091546925701     1.007825032230
         H            4.117383610522    -0.544008261093     1.368636925701     1.007825032230
         H            4.534203610522     0.677245738907    -0.740939074299     1.007825032230
         H            3.292142610522    -0.267661261093    -1.568990074299     1.007825032230
         H            2.029575610522    -2.154529261093    -0.190861074299     1.007825032230
         H            2.473125610522    -2.379913261093     1.505873925701     1.007825032230
         H            2.823254610522     1.670066738907     0.753549925701     1.007825032230
         H            2.313568610522     1.907338738907    -0.929657074299     1.007825032230
         H            0.353333610522    -1.039059261093     1.241439925701     1.007825032230
         H            1.629794610522    -0.123240261093     2.059030925701     1.007825032230
         H           -0.356796389478    -1.584762261093    -1.383652074299     1.007825032230
         H           -4.257988389478     0.278173738907     1.042469925701     1.007825032230
         H           -1.978950389478     2.766817738907     0.226563925701     1.007825032230
         H           -3.090480389478     2.267915738907     1.524604925701     1.007825032230
         H           -1.338096389478     2.098942738907     1.725093925701     1.007825032230
         H           -2.451331389478    -2.918886261093    -1.197687074299     1.007825032230
         H           -4.403545389478    -1.975981261093     0.031658925701     1.007825032230

  Basis Set: AUG-CC-PVTZ
    Blend: AUG-CC-PVTZ
  Basis Set: (AUG-CC-PVTZ AUX)
    Blend: AUG-CC-PVTZ-JKFIT
	 Reference Energy          =    -631.7305658740245917 [Eh]
	 Singles Energy            =      -0.0000000000000000 [Eh]
	 Same-Spin Energy          =      -0.6889232769262561 [Eh]
	 Opposite-Spin Energy      =      -2.2121001873967194 [Eh]
	 Correlation Energy        =      -2.9010234643229755 [Eh]
	 Total Energy              =    -634.6315893383475668 [Eh]

	 ================> DF-SCS-MP2 Energies <==================
	-----------------------------------------------------------
	 SCS Same-Spin Scale       =       0.3333333333333333 [-]
	 SCS Opposite-Spin Scale   =       1.2000000000000000 [-]
	 SCS Same-Spin Energy      =      -0.2296410923087520 [Eh]
	 SCS Opposite-Spin Energy  =      -2.6545202248760633 [Eh]
	 SCS Correlation Energy    =      -2.8841613171848155 [Eh]
	 SCS Total Energy          =    -634.6147271912094538 [Eh]
	-----------------------------------------------------------

  Dipole Moment: [D]
     X:     1.3094      Y:    -2.4501      Z:     2.2533     Total:     3.5770

*** Psi4 exiting successfully. Buy a developer a beer!
