                               Psi4 1.4a3.dev225

  ==> Input File <==

--------------------------------------------------------------------------
#psi4
#
memory 32 gb

molecule  {
0 1
  O        0.0109280     1.9504830    -1.2088660
  N        1.2104930     0.4628600     0.0596820
  C        3.6816010    -0.9509880     0.4072830
  C        3.5342200     0.1692850    -0.6230390
  C        2.3335540    -1.6180450     0.6838790
  C        2.4642000     1.1676880    -0.1911000
  C        1.2914730    -0.5760260     1.0805660
  C        0.0527250     0.9288280    -0.5097470
  C       -1.1808260     0.1020470    -0.2945890
  C       -2.2041058     0.6162972     0.3353193
  C       -1.2622800    -1.1716740    -0.8705440
  C       -3.4454200    -0.1153760     0.4879690
  C       -2.2065840     2.0368470     0.9809810
  C       -2.4366510    -1.9182050    -0.7675160
  C       -3.5304630    -1.3875060    -0.0828830
  H        4.4130950    -1.6928310     0.0671840
  H        4.0710030    -0.5292960     1.3442740
  H        4.4878230     0.6919580    -0.7653020
  H        3.2457620    -0.2529490    -1.5933530
  H        1.9831950    -2.1398170    -0.2152240
  H        2.4267450    -2.3652010     1.4815110
  H        2.7768740     1.6847790     0.7291870
  H        2.2671880     1.9220510    -0.9540200
  H        0.3069530    -1.0243470     1.2170770
  H        1.5834140    -0.1085280     2.0346680
  H       -0.4031770    -1.5700500    -1.4080150
  H       -4.3043690     0.2928860     1.0181070
  H       -2.0253310     2.7815300     0.2022010
  H       -3.1368610     2.2826280     1.5002420
  H       -1.3844770     2.1136550     1.7007310
  H       -2.4977120    -2.9041740    -1.2220500
  H       -4.4499260    -1.9612690     0.0072960
units angstrom
no_reorient  #important for SAPT in psi4, default
symmetry c1  #important for SAPT in psi4, default
}

set PROPERTIES_ORIGIN ["COM"]
properties('MP2/aug-cc-pvtz', properties = ['dipole'])
--------------------------------------------------------------------------

    Molecular point group: c1
  Charge       = 0
  Multiplicity = 1
  Basis Set: AUG-CC-PVTZ
    Blend: AUG-CC-PVTZ
  Basis Set: (AUG-CC-PVTZ AUX)
    Blend: AUG-CC-PVTZ-JKFIT

    Orbital Energies [Eh]
    ---------------------

    Doubly Occupied:

       1A    -20.511084     2A    -15.584021     3A    -11.349262
       4A    -11.267787     5A    -11.254722     6A    -11.246995
       7A    -11.246245     8A    -11.242695     9A    -11.241458
      10A    -11.239176    11A    -11.234065    12A    -11.230882
      13A    -11.228492    14A    -11.225789    15A    -11.221419
      16A     -1.367418    17A     -1.249865    18A     -1.168198
      19A     -1.083843    20A     -1.052786    21A     -1.033807
      22A     -1.022123    23A     -0.938426    24A     -0.919714
      25A     -0.867029    26A     -0.845566    27A     -0.824009
      28A     -0.788360    29A     -0.742874    30A     -0.713786
      31A     -0.666637    32A     -0.654092    33A     -0.647251
      34A     -0.627874    35A     -0.621208    36A     -0.616214
      37A     -0.599325    38A     -0.588658    39A     -0.569450
      40A     -0.568049    41A     -0.561177    42A     -0.547660
      43A     -0.541113    44A     -0.525303    45A     -0.509816
      46A     -0.500269    47A     -0.494663    48A     -0.483547
      49A     -0.477572    50A     -0.469630    51A     -0.461693
      52A     -0.414960    53A     -0.366423    54A     -0.347458
      55A     -0.329651

  @DF-RHF Final Energy:  -631.71939228235942

   => Energetics <=

    Nuclear Repulsion Energy =           1001.4145264342924975
    One-Electron Energy =               -2846.0046589000571657
    Two-Electron Energy =                1212.8707401834053599
    Total Energy =                       -631.7193922823594221
  Basis Set: (AUG-CC-PVTZ AUX)
    Blend: AUG-CC-PVTZ-RI
    Molecular point group: c1

    Geometry (in Angstrom), charge = 0, multiplicity = 1:

       Center              X                  Y                   Z               Mass
    ------------   -----------------  -----------------  -----------------  -----------------
         O            0.052004067519     1.939275367695    -1.180922185369    15.994914619570
         N            1.251569067519     0.451652367695     0.087625814631    14.003074004430
         C            3.722677067519    -0.962195632305     0.435226814631    12.000000000000
         C            3.575296067519     0.158077367695    -0.595095185369    12.000000000000
         C            2.374630067519    -1.629252632305     0.711822814631    12.000000000000
         C            2.505276067519     1.156480367695    -0.163156185369    12.000000000000
         C            1.332549067519    -0.587233632305     1.108509814631    12.000000000000
         C            0.093801067519     0.917620367695    -0.481803185369    12.000000000000
         C           -1.139749932481     0.090839367695    -0.266645185369    12.000000000000
         C           -2.163029732481     0.605089567695     0.363263114631    12.000000000000
         C           -1.221203932481    -1.182881632305    -0.842600185369    12.000000000000
         C           -3.404343932481    -0.126583632305     0.515912814631    12.000000000000
         C           -2.165507932481     2.025639367695     1.008924814631    12.000000000000
         C           -2.395574932481    -1.929412632305    -0.739572185369    12.000000000000
         C           -3.489386932481    -1.398713632305    -0.054939185369    12.000000000000
         H            4.454171067519    -1.704038632305     0.095127814631     1.007825032230
         H            4.112079067519    -0.540503632305     1.372217814631     1.007825032230
         H            4.528899067519     0.680750367695    -0.737358185369     1.007825032230
         H            3.286838067519    -0.264156632305    -1.565409185369     1.007825032230
         H            2.024271067519    -2.151024632305    -0.187280185369     1.007825032230
         H            2.467821067519    -2.376408632305     1.509454814631     1.007825032230
         H            2.817950067519     1.673571367695     0.757130814631     1.007825032230
         H            2.308264067519     1.910843367695    -0.926076185369     1.007825032230
         H            0.348029067519    -1.035554632305     1.245020814631     1.007825032230
         H            1.624490067519    -0.119735632305     2.062611814631     1.007825032230
         H           -0.362100932481    -1.581257632305    -1.380071185369     1.007825032230
         H           -4.263292932481     0.281678367695     1.046050814631     1.007825032230
         H           -1.984254932481     2.770322367695     0.230144814631     1.007825032230
         H           -3.095784932481     2.271420367695     1.528185814631     1.007825032230
         H           -1.343400932481     2.102447367695     1.728674814631     1.007825032230
         H           -2.456635932481    -2.915381632305    -1.194106185369     1.007825032230
         H           -4.408849932481    -1.972476632305     0.035239814631     1.007825032230

  Basis Set: AUG-CC-PVTZ
    Blend: AUG-CC-PVTZ
  Basis Set: (AUG-CC-PVTZ AUX)
    Blend: AUG-CC-PVTZ-JKFIT
	 Reference Energy          =    -631.7193922823594221 [Eh]
	 Singles Energy            =      -0.0000000000000000 [Eh]
	 Same-Spin Energy          =      -0.6882727680311425 [Eh]
	 Opposite-Spin Energy      =      -2.2119522734151484 [Eh]
	 Correlation Energy        =      -2.9002250414462907 [Eh]
	 Total Energy              =    -634.6196173238057554 [Eh]

	 ================> DF-SCS-MP2 Energies <==================
	-----------------------------------------------------------
	 SCS Same-Spin Scale       =       0.3333333333333333 [-]
	 SCS Opposite-Spin Scale   =       1.2000000000000000 [-]
	 SCS Same-Spin Energy      =      -0.2294242560103808 [Eh]
	 SCS Opposite-Spin Energy  =      -2.6543427280981780 [Eh]
	 SCS Correlation Energy    =      -2.8837669841085587 [Eh]
	 SCS Total Energy          =    -634.6031592664679692 [Eh]
	-----------------------------------------------------------

  Dipole Moment: [D]
     X:     1.3804      Y:    -2.5842      Z:     2.2875     Total:     3.7170

*** Psi4 exiting successfully. Buy a developer a beer!
