                               Psi4 1.4a3.dev225

  ==> Input File <==

--------------------------------------------------------------------------
#psi4
#
memory 32 gb

molecule  {
0 1
  O        0.0109280     1.9504830    -1.2088660
  N        1.2104930     0.4628600     0.0596820
  C        3.6816010    -0.9509880     0.4072830
  C        3.5342200     0.1692850    -0.6230390
  C        2.3335540    -1.6180450     0.6838790
  C        2.4642000     1.1676880    -0.1911000
  C        1.3051294    -0.5896816     1.0753674
  C        0.0527250     0.9288280    -0.5097470
  C       -1.1808260     0.1020470    -0.2945890
  C       -2.2823960     0.6556420     0.3835130
  C       -1.2622800    -1.1716740    -0.8705440
  C       -3.4454200    -0.1153760     0.4879690
  C       -2.2065840     2.0368470     0.9809810
  C       -2.4366510    -1.9182050    -0.7675160
  C       -3.5304630    -1.3875060    -0.0828830
  H        4.4130950    -1.6928310     0.0671840
  H        4.0710030    -0.5292960     1.3442740
  H        4.4878230     0.6919580    -0.7653020
  H        3.2457620    -0.2529490    -1.5933530
  H        1.9831950    -2.1398170    -0.2152240
  H        2.4267450    -2.3652010     1.4815110
  H        2.7768740     1.6847790     0.7291870
  H        2.2671880     1.9220510    -0.9540200
  H        0.3069530    -1.0243470     1.2170770
  H        1.5834140    -0.1085280     2.0346680
  H       -0.4031770    -1.5700500    -1.4080150
  H       -4.3043690     0.2928860     1.0181070
  H       -2.0253310     2.7815300     0.2022010
  H       -3.1368610     2.2826280     1.5002420
  H       -1.3844770     2.1136550     1.7007310
  H       -2.4977120    -2.9041740    -1.2220500
  H       -4.4499260    -1.9612690     0.0072960
units angstrom
no_reorient  #important for SAPT in psi4, default
symmetry c1  #important for SAPT in psi4, default
}

set PROPERTIES_ORIGIN ["COM"]
properties('MP2/aug-cc-pvtz', properties = ['dipole'])
--------------------------------------------------------------------------

    Molecular point group: c1
  Charge       = 0
  Multiplicity = 1
  Basis Set: AUG-CC-PVTZ
    Blend: AUG-CC-PVTZ
  Basis Set: (AUG-CC-PVTZ AUX)
    Blend: AUG-CC-PVTZ-JKFIT

    Orbital Energies [Eh]
    ---------------------

    Doubly Occupied:

       1A    -20.510522     2A    -15.583714     3A    -11.349430
       4A    -11.268058     5A    -11.254255     6A    -11.251753
       7A    -11.246268     8A    -11.244917     9A    -11.242569
      10A    -11.239055    11A    -11.236887    12A    -11.230331
      13A    -11.228595    14A    -11.225783    15A    -11.220221
      16A     -1.366647    17A     -1.248519    18A     -1.161336
      19A     -1.084986    20A     -1.050771    21A     -1.038300
      22A     -1.023620    23A     -0.943101    24A     -0.918842
      25A     -0.866563    26A     -0.844256    27A     -0.815392
      28A     -0.791313    29A     -0.742127    30A     -0.711949
      31A     -0.666699    32A     -0.652529    33A     -0.648217
      34A     -0.627561    35A     -0.620319    36A     -0.615420
      37A     -0.596568    38A     -0.588071    39A     -0.575540
      40A     -0.571761    41A     -0.559456    42A     -0.549000
      43A     -0.541488    44A     -0.524926    45A     -0.508663
      46A     -0.501660    47A     -0.491304    48A     -0.489401
      49A     -0.479054    50A     -0.469376    51A     -0.460652
      52A     -0.416706    53A     -0.366788    54A     -0.339877
      55A     -0.329899

  @DF-RHF Final Energy:  -631.73003014311314

   => Energetics <=

    Nuclear Repulsion Energy =            999.9668278631610292
    One-Electron Energy =               -2843.1316862033122561
    Two-Electron Energy =                1211.4348281970380867
    Total Energy =                       -631.7300301431130265
  Basis Set: (AUG-CC-PVTZ AUX)
    Blend: AUG-CC-PVTZ-RI
    Molecular point group: c1

    Geometry (in Angstrom), charge = 0, multiplicity = 1:

       Center              X                  Y                   Z               Mass
    ------------   -----------------  -----------------  -----------------  -----------------
         O            0.055822320498     1.937757773736    -1.183462128381    15.994914619570
         N            1.255387320498     0.450134773736     0.085085871619    14.003074004430
         C            3.726495320498    -0.963713226264     0.432686871619    12.000000000000
         C            3.579114320498     0.156559773736    -0.597635128381    12.000000000000
         C            2.378448320498    -1.630770226264     0.709282871619    12.000000000000
         C            2.509094320498     1.154962773736    -0.165696128381    12.000000000000
         C            1.350023720498    -0.602406826264     1.100771271619    12.000000000000
         C            0.097619320498     0.916102773736    -0.484343128381    12.000000000000
         C           -1.135931679502     0.089321773736    -0.269185128381    12.000000000000
         C           -2.237501679502     0.642916773736     0.408916871619    12.000000000000
         C           -1.217385679502    -1.184399226264    -0.845140128381    12.000000000000
         C           -3.400525679502    -0.128101226264     0.513372871619    12.000000000000
         C           -2.161689679502     2.024121773736     1.006384871619    12.000000000000
         C           -2.391756679502    -1.930930226264    -0.742112128381    12.000000000000
         C           -3.485568679502    -1.400231226264    -0.057479128381    12.000000000000
         H            4.457989320498    -1.705556226264     0.092587871619     1.007825032230
         H            4.115897320498    -0.542021226264     1.369677871619     1.007825032230
         H            4.532717320498     0.679232773736    -0.739898128381     1.007825032230
         H            3.290656320498    -0.265674226264    -1.567949128381     1.007825032230
         H            2.028089320498    -2.152542226264    -0.189820128381     1.007825032230
         H            2.471639320498    -2.377926226264     1.506914871619     1.007825032230
         H            2.821768320498     1.672053773736     0.754590871619     1.007825032230
         H            2.312082320498     1.909325773736    -0.928616128381     1.007825032230
         H            0.351847320498    -1.037072226264     1.242480871619     1.007825032230
         H            1.628308320498    -0.121253226264     2.060071871619     1.007825032230
         H           -0.358282679502    -1.582775226264    -1.382611128381     1.007825032230
         H           -4.259474679502     0.280160773736     1.043510871619     1.007825032230
         H           -1.980436679502     2.768804773736     0.227604871619     1.007825032230
         H           -3.091966679502     2.269902773736     1.525645871619     1.007825032230
         H           -1.339582679502     2.100929773736     1.726134871619     1.007825032230
         H           -2.452817679502    -2.916899226264    -1.196646128381     1.007825032230
         H           -4.405031679502    -1.973994226264     0.032699871619     1.007825032230

  Basis Set: AUG-CC-PVTZ
    Blend: AUG-CC-PVTZ
  Basis Set: (AUG-CC-PVTZ AUX)
    Blend: AUG-CC-PVTZ-JKFIT
	 Reference Energy          =    -631.7300301431131402 [Eh]
	 Singles Energy            =      -0.0000000000000000 [Eh]
	 Same-Spin Energy          =      -0.6891559857489197 [Eh]
	 Opposite-Spin Energy      =      -2.2124254708412847 [Eh]
	 Correlation Energy        =      -2.9015814565902045 [Eh]
	 Total Energy              =    -634.6316115997033194 [Eh]

	 ================> DF-SCS-MP2 Energies <==================
	-----------------------------------------------------------
	 SCS Same-Spin Scale       =       0.3333333333333333 [-]
	 SCS Opposite-Spin Scale   =       1.2000000000000000 [-]
	 SCS Same-Spin Energy      =      -0.2297186619163065 [Eh]
	 SCS Opposite-Spin Energy  =      -2.6549105650095415 [Eh]
	 SCS Correlation Energy    =      -2.8846292269258482 [Eh]
	 SCS Total Energy          =    -634.6146593700390213 [Eh]
	-----------------------------------------------------------

  Dipole Moment: [D]
     X:     1.4246      Y:    -2.5482      Z:     2.3072     Total:     3.7210

*** Psi4 exiting successfully. Buy a developer a beer!
