                               Psi4 1.4a3.dev225

  ==> Input File <==

--------------------------------------------------------------------------
#psi4
#
memory 32 gb

molecule  {
0 1
  O        0.0109280     1.9504830    -1.2088660
  N        1.2104930     0.4628600     0.0596820
  C        3.6816010    -0.9509880     0.4072830
  C        3.5342200     0.1692850    -0.6230390
  C        2.3335540    -1.6180450     0.6838790
  C        2.4642000     1.1676880    -0.1911000
  C        1.2914730    -0.5760260     1.0805660
  C        0.0527250     0.9288280    -0.5097470
  C       -1.1808260     0.1020470    -0.2945890
  C       -2.2823960     0.6556420     0.3835130
  C       -1.2622800    -1.1716740    -0.8705440
  C       -3.4454200    -0.1153760     0.4879690
  C       -2.2065840     2.0368470     0.9809810
  C       -2.4366510    -1.9182050    -0.7675160
  C       -3.5304630    -1.3875060    -0.0828830
  H        4.4130950    -1.6928310     0.0671840
  H        4.0710030    -0.5292960     1.3442740
  H        4.6617246     0.7872741    -0.7912455
  H        3.2457620    -0.2529490    -1.5933530
  H        1.9831950    -2.1398170    -0.2152240
  H        2.4267450    -2.3652010     1.4815110
  H        2.7768740     1.6847790     0.7291870
  H        2.2671880     1.9220510    -0.9540200
  H        0.3069530    -1.0243470     1.2170770
  H        1.5834140    -0.1085280     2.0346680
  H       -0.4031770    -1.5700500    -1.4080150
  H       -4.3043690     0.2928860     1.0181070
  H       -2.0253310     2.7815300     0.2022010
  H       -3.1368610     2.2826280     1.5002420
  H       -1.3844770     2.1136550     1.7007310
  H       -2.4977120    -2.9041740    -1.2220500
  H       -4.4499260    -1.9612690     0.0072960
units angstrom
no_reorient  #important for SAPT in psi4, default
symmetry c1  #important for SAPT in psi4, default
}

set PROPERTIES_ORIGIN ["COM"]
properties('MP2/aug-cc-pvtz', properties = ['dipole'])
--------------------------------------------------------------------------

    Molecular point group: c1
  Charge       = 0
  Multiplicity = 1
  Basis Set: AUG-CC-PVTZ
    Blend: AUG-CC-PVTZ
  Basis Set: (AUG-CC-PVTZ AUX)
    Blend: AUG-CC-PVTZ-JKFIT

    Orbital Energies [Eh]
    ---------------------

    Doubly Occupied:

       1A    -20.512129     2A    -15.585803     3A    -11.350865
       4A    -11.268518     5A    -11.256771     6A    -11.252647
       7A    -11.248871     8A    -11.247224     9A    -11.245912
      10A    -11.243389    11A    -11.239886    12A    -11.237691
      13A    -11.232731    14A    -11.230556    15A    -11.220997
      16A     -1.368334    17A     -1.251343    18A     -1.162240
      19A     -1.083320    20A     -1.051597    21A     -1.037682
      22A     -1.021765    23A     -0.944004    24A     -0.920136
      25A     -0.862321    26A     -0.844966    27A     -0.815357
      28A     -0.787996    29A     -0.744042    30A     -0.712371
      31A     -0.667755    32A     -0.653795    33A     -0.649056
      34A     -0.625908    35A     -0.619369    36A     -0.614575
      37A     -0.597822    38A     -0.581976    39A     -0.576206
      40A     -0.572682    41A     -0.560608    42A     -0.543142
      43A     -0.539353    44A     -0.525959    45A     -0.508605
      46A     -0.502899    47A     -0.491232    48A     -0.489954
      49A     -0.480210    50A     -0.468803    51A     -0.451541
      52A     -0.417419    53A     -0.367754    54A     -0.340809
      55A     -0.330779

  @DF-RHF Final Energy:  -631.71076071317270

   => Energetics <=

    Nuclear Repulsion Energy =            998.9638444801772721
    One-Electron Energy =               -2841.0298619673931171
    Two-Electron Energy =                1210.3552567740432551
    Total Energy =                       -631.7107607131727036
  Basis Set: (AUG-CC-PVTZ AUX)
    Blend: AUG-CC-PVTZ-RI
    Molecular point group: c1

    Geometry (in Angstrom), charge = 0, multiplicity = 1:

       Center              X                  Y                   Z               Mass
    ------------   -----------------  -----------------  -----------------  -----------------
         O            0.055766270044     1.936478160415    -1.183640519118    15.994914619570
         N            1.255331270044     0.448855160415     0.084907480882    14.003074004430
         C            3.726439270044    -0.964992839585     0.432508480882    12.000000000000
         C            3.579058270044     0.155280160415    -0.597813519118    12.000000000000
         C            2.378392270044    -1.632049839585     0.709104480882    12.000000000000
         C            2.509038270044     1.153683160415    -0.165874519118    12.000000000000
         C            1.336311270044    -0.590030839585     1.105791480882    12.000000000000
         C            0.097563270044     0.914823160415    -0.484521519118    12.000000000000
         C           -1.135987729956     0.088042160415    -0.269363519118    12.000000000000
         C           -2.237557729956     0.641637160415     0.408738480882    12.000000000000
         C           -1.217441729956    -1.185678839585    -0.845318519118    12.000000000000
         C           -3.400581729956    -0.129380839585     0.513194480882    12.000000000000
         C           -2.161745729956     2.022842160415     1.006206480882    12.000000000000
         C           -2.391812729956    -1.932209839585    -0.742290519118    12.000000000000
         C           -3.485624729956    -1.401510839585    -0.057657519118    12.000000000000
         H            4.457933270044    -1.706835839585     0.092409480882     1.007825032230
         H            4.115841270044    -0.543300839585     1.369499480882     1.007825032230
         H            4.706562870044     0.773269260415    -0.766020019118     1.007825032230
         H            3.290600270044    -0.266953839585    -1.568127519118     1.007825032230
         H            2.028033270044    -2.153821839585    -0.189998519118     1.007825032230
         H            2.471583270044    -2.379205839585     1.506736480882     1.007825032230
         H            2.821712270044     1.670774160415     0.754412480882     1.007825032230
         H            2.312026270044     1.908046160415    -0.928794519118     1.007825032230
         H            0.351791270044    -1.038351839585     1.242302480882     1.007825032230
         H            1.628252270044    -0.122532839585     2.059893480882     1.007825032230
         H           -0.358338729956    -1.584054839585    -1.382789519118     1.007825032230
         H           -4.259530729956     0.278881160415     1.043332480882     1.007825032230
         H           -1.980492729956     2.767525160415     0.227426480882     1.007825032230
         H           -3.092022729956     2.268623160415     1.525467480882     1.007825032230
         H           -1.339638729956     2.099650160415     1.725956480882     1.007825032230
         H           -2.452873729956    -2.918178839585    -1.196824519118     1.007825032230
         H           -4.405087729956    -1.975273839585     0.032521480882     1.007825032230

  Basis Set: AUG-CC-PVTZ
    Blend: AUG-CC-PVTZ
  Basis Set: (AUG-CC-PVTZ AUX)
    Blend: AUG-CC-PVTZ-JKFIT
	 Reference Energy          =    -631.7107607131727036 [Eh]
	 Singles Energy            =      -0.0000000000000000 [Eh]
	 Same-Spin Energy          =      -0.6890698884698706 [Eh]
	 Opposite-Spin Energy      =      -2.2139501583224490 [Eh]
	 Correlation Energy        =      -2.9030200467923195 [Eh]
	 Total Energy              =    -634.6137807599650387 [Eh]

	 ================> DF-SCS-MP2 Energies <==================
	-----------------------------------------------------------
	 SCS Same-Spin Scale       =       0.3333333333333333 [-]
	 SCS Opposite-Spin Scale   =       1.2000000000000000 [-]
	 SCS Same-Spin Energy      =      -0.2296899628232902 [Eh]
	 SCS Opposite-Spin Energy  =      -2.6567401899869387 [Eh]
	 SCS Correlation Energy    =      -2.8864301528102287 [Eh]
	 SCS Total Energy          =    -634.5971908659829523 [Eh]
	-----------------------------------------------------------

  Dipole Moment: [D]
     X:     1.2017      Y:    -2.6013      Z:     2.3619     Total:     3.7134

*** Psi4 exiting successfully. Buy a developer a beer!
