                               Psi4 1.4a3.dev225

  ==> Input File <==

--------------------------------------------------------------------------
#psi4
#
memory 32 gb

molecule  {
0 1
  O        0.0109280     1.9504830    -1.2088660
  N        1.2104930     0.4628600     0.0596820
  C        3.6816010    -0.9509880     0.4072830
  C        3.5342200     0.1692850    -0.6230390
  C        2.3335540    -1.6180450     0.6838790
  C        2.4642000     1.1676880    -0.1911000
  C        1.2903628    -0.5617828     1.0665696
  C        0.0527250     0.9288280    -0.5097470
  C       -1.1808260     0.1020470    -0.2945890
  C       -2.2823960     0.6556420     0.3835130
  C       -1.2622800    -1.1716740    -0.8705440
  C       -3.4454200    -0.1153760     0.4879690
  C       -2.2065840     2.0368470     0.9809810
  C       -2.4366510    -1.9182050    -0.7675160
  C       -3.5304630    -1.3875060    -0.0828830
  H        4.4130950    -1.6928310     0.0671840
  H        4.0710030    -0.5292960     1.3442740
  H        4.4878230     0.6919580    -0.7653020
  H        3.2457620    -0.2529490    -1.5933530
  H        1.9831950    -2.1398170    -0.2152240
  H        2.4267450    -2.3652010     1.4815110
  H        2.7768740     1.6847790     0.7291870
  H        2.2671880     1.9220510    -0.9540200
  H        0.3069530    -1.0243470     1.2170770
  H        1.5834140    -0.1085280     2.0346680
  H       -0.4031770    -1.5700500    -1.4080150
  H       -4.3043690     0.2928860     1.0181070
  H       -2.0253310     2.7815300     0.2022010
  H       -3.1368610     2.2826280     1.5002420
  H       -1.3844770     2.1136550     1.7007310
  H       -2.4977120    -2.9041740    -1.2220500
  H       -4.4499260    -1.9612690     0.0072960
units angstrom
no_reorient  #important for SAPT in psi4, default
symmetry c1  #important for SAPT in psi4, default
}

set PROPERTIES_ORIGIN ["COM"]
properties('MP2/aug-cc-pvtz', properties = ['dipole'])
--------------------------------------------------------------------------

    Molecular point group: c1
  Charge       = 0
  Multiplicity = 1
  Basis Set: AUG-CC-PVTZ
    Blend: AUG-CC-PVTZ
  Basis Set: (AUG-CC-PVTZ AUX)
    Blend: AUG-CC-PVTZ-JKFIT

    Orbital Energies [Eh]
    ---------------------

    Doubly Occupied:

       1A    -20.511725     2A    -15.584611     3A    -11.350336
       4A    -11.266622     5A    -11.255161     6A    -11.252014
       7A    -11.246534     8A    -11.245254     9A    -11.242763
      10A    -11.239242    11A    -11.237086    12A    -11.230287
      13A    -11.227896    14A    -11.225837    15A    -11.220504
      16A     -1.368211    17A     -1.253790    18A     -1.161619
      19A     -1.083455    20A     -1.050924    21A     -1.036866
      22A     -1.023213    23A     -0.943418    24A     -0.918821
      25A     -0.867811    26A     -0.844723    27A     -0.815720
      28A     -0.791327    29A     -0.743313    30A     -0.713216
      31A     -0.666866    32A     -0.653334    33A     -0.649195
      34A     -0.627500    35A     -0.620502    36A     -0.615858
      37A     -0.596321    38A     -0.587937    39A     -0.575887
      40A     -0.572132    41A     -0.561494    42A     -0.546727
      43A     -0.541969    44A     -0.524567    45A     -0.507827
      46A     -0.501179    47A     -0.491616    48A     -0.489330
      49A     -0.478295    50A     -0.468860    51A     -0.462258
      52A     -0.417585    53A     -0.365987    54A     -0.340023
      55A     -0.330133

  @DF-RHF Final Energy:  -631.73027035201426

   => Energetics <=

    Nuclear Repulsion Energy =           1000.3362536107856613
    One-Electron Energy =               -2843.8416859288086016
    Two-Electron Energy =                1211.7751619660086817
    Total Energy =                       -631.7302703520142586
  Basis Set: (AUG-CC-PVTZ AUX)
    Blend: AUG-CC-PVTZ-RI
    Molecular point group: c1

    Geometry (in Angstrom), charge = 0, multiplicity = 1:

       Center              X                  Y                   Z               Mass
    ------------   -----------------  -----------------  -----------------  -----------------
         O            0.056694659962     1.936109647272    -1.182942396815    15.994914619570
         N            1.256259659962     0.448486647272     0.085605603185    14.003074004430
         C            3.727367659962    -0.965361352728     0.433206603185    12.000000000000
         C            3.579986659962     0.154911647272    -0.597115396815    12.000000000000
         C            2.379320659962    -1.632418352728     0.709802603185    12.000000000000
         C            2.509966659962     1.153314647272    -0.165176396815    12.000000000000
         C            1.336129459962    -0.576156152728     1.092493203185    12.000000000000
         C            0.098491659962     0.914454647272    -0.483823396815    12.000000000000
         C           -1.135059340038     0.087673647272    -0.268665396815    12.000000000000
         C           -2.236629340038     0.641268647272     0.409436603185    12.000000000000
         C           -1.216513340038    -1.186047352728    -0.844620396815    12.000000000000
         C           -3.399653340038    -0.129749352728     0.513892603185    12.000000000000
         C           -2.160817340038     2.022473647272     1.006904603185    12.000000000000
         C           -2.390884340038    -1.932578352728    -0.741592396815    12.000000000000
         C           -3.484696340038    -1.401879352728    -0.056959396815    12.000000000000
         H            4.458861659962    -1.707204352728     0.093107603185     1.007825032230
         H            4.116769659962    -0.543669352728     1.370197603185     1.007825032230
         H            4.533589659962     0.677584647272    -0.739378396815     1.007825032230
         H            3.291528659962    -0.267322352728    -1.567429396815     1.007825032230
         H            2.028961659962    -2.154190352728    -0.189300396815     1.007825032230
         H            2.472511659962    -2.379574352728     1.507434603185     1.007825032230
         H            2.822640659962     1.670405647272     0.755110603185     1.007825032230
         H            2.312954659962     1.907677647272    -0.928096396815     1.007825032230
         H            0.352719659962    -1.038720352728     1.243000603185     1.007825032230
         H            1.629180659962    -0.122901352728     2.060591603185     1.007825032230
         H           -0.357410340038    -1.584423352728    -1.382091396815     1.007825032230
         H           -4.258602340038     0.278512647272     1.044030603185     1.007825032230
         H           -1.979564340038     2.767156647272     0.228124603185     1.007825032230
         H           -3.091094340038     2.268254647272     1.526165603185     1.007825032230
         H           -1.338710340038     2.099281647272     1.726654603185     1.007825032230
         H           -2.451945340038    -2.918547352728    -1.196126396815     1.007825032230
         H           -4.404159340038    -1.975642352728     0.033219603185     1.007825032230

  Basis Set: AUG-CC-PVTZ
    Blend: AUG-CC-PVTZ
  Basis Set: (AUG-CC-PVTZ AUX)
    Blend: AUG-CC-PVTZ-JKFIT
	 Reference Energy          =    -631.7302703520142586 [Eh]
	 Singles Energy            =      -0.0000000000000000 [Eh]
	 Same-Spin Energy          =      -0.6891435666408035 [Eh]
	 Opposite-Spin Energy      =      -2.2123162720168570 [Eh]
	 Correlation Energy        =      -2.9014598386576607 [Eh]
	 Total Energy              =    -634.6317301906718740 [Eh]

	 ================> DF-SCS-MP2 Energies <==================
	-----------------------------------------------------------
	 SCS Same-Spin Scale       =       0.3333333333333333 [-]
	 SCS Opposite-Spin Scale   =       1.2000000000000000 [-]
	 SCS Same-Spin Energy      =      -0.2297145222136011 [Eh]
	 SCS Opposite-Spin Energy  =      -2.6547795264202283 [Eh]
	 SCS Correlation Energy    =      -2.8844940486338295 [Eh]
	 SCS Total Energy          =    -634.6147644006481414 [Eh]
	-----------------------------------------------------------

  Dipole Moment: [D]
     X:     1.3780      Y:    -2.4854      Z:     2.2639     Total:     3.6334

*** Psi4 exiting successfully. Buy a developer a beer!
