                               Psi4 1.4a3.dev225

  ==> Input File <==

--------------------------------------------------------------------------
#psi4
#
memory 32 gb

molecule  {
0 1
  O        0.0109280     1.9504830    -1.2088660
  N        1.2104930     0.4628600     0.0596820
  C        3.6816010    -0.9509880     0.4072830
  C        3.5342200     0.1692850    -0.6230390
  C        2.3335540    -1.6180450     0.6838790
  C        2.5500733     1.2159655    -0.2082774
  C        1.2914730    -0.5760260     1.0805660
  C        0.0527250     0.9288280    -0.5097470
  C       -1.1808260     0.1020470    -0.2945890
  C       -2.2823960     0.6556420     0.3835130
  C       -1.2622800    -1.1716740    -0.8705440
  C       -3.4454200    -0.1153760     0.4879690
  C       -2.2065840     2.0368470     0.9809810
  C       -2.4366510    -1.9182050    -0.7675160
  C       -3.5304630    -1.3875060    -0.0828830
  H        4.4130950    -1.6928310     0.0671840
  H        4.0710030    -0.5292960     1.3442740
  H        4.4878230     0.6919580    -0.7653020
  H        3.2457620    -0.2529490    -1.5933530
  H        1.9831950    -2.1398170    -0.2152240
  H        2.4267450    -2.3652010     1.4815110
  H        2.7768740     1.6847790     0.7291870
  H        2.2671880     1.9220510    -0.9540200
  H        0.3069530    -1.0243470     1.2170770
  H        1.5834140    -0.1085280     2.0346680
  H       -0.4031770    -1.5700500    -1.4080150
  H       -4.3043690     0.2928860     1.0181070
  H       -2.0253310     2.7815300     0.2022010
  H       -3.1368610     2.2826280     1.5002420
  H       -1.3844770     2.1136550     1.7007310
  H       -2.4977120    -2.9041740    -1.2220500
  H       -4.4499260    -1.9612690     0.0072960
units angstrom
no_reorient  #important for SAPT in psi4, default
symmetry c1  #important for SAPT in psi4, default
}

set PROPERTIES_ORIGIN ["COM"]
properties('MP2/aug-cc-pvtz', properties = ['dipole'])
--------------------------------------------------------------------------

    Molecular point group: c1
  Charge       = 0
  Multiplicity = 1
  Basis Set: AUG-CC-PVTZ
    Blend: AUG-CC-PVTZ
  Basis Set: (AUG-CC-PVTZ AUX)
    Blend: AUG-CC-PVTZ-JKFIT

    Orbital Energies [Eh]
    ---------------------

    Doubly Occupied:

       1A    -20.506983     2A    -15.579449     3A    -11.345810
       4A    -11.264785     5A    -11.259463     6A    -11.250138
       7A    -11.244530     8A    -11.243101     9A    -11.241121
      10A    -11.237689    11A    -11.235550    12A    -11.230909
      13A    -11.229893    14A    -11.228044    15A    -11.218984
      16A     -1.361595    17A     -1.233359    18A     -1.159478
      19A     -1.085462    20A     -1.049009    21A     -1.036235
      22A     -1.024333    23A     -0.941286    24A     -0.919195
      25A     -0.862830    26A     -0.845145    27A     -0.813407
      28A     -0.790198    29A     -0.740772    30A     -0.707395
      31A     -0.665804    32A     -0.650275    33A     -0.645924
      34A     -0.632851    35A     -0.618385    36A     -0.612755
      37A     -0.597725    38A     -0.584938    39A     -0.573515
      40A     -0.570663    41A     -0.556300    42A     -0.547888
      43A     -0.540693    44A     -0.523773    45A     -0.511985
      46A     -0.503703    47A     -0.489798    48A     -0.489670
      49A     -0.480874    50A     -0.473110    51A     -0.457502
      52A     -0.412026    53A     -0.365359    54A     -0.338373
      55A     -0.328397

  @DF-RHF Final Energy:  -631.72251579731301

   => Energetics <=

    Nuclear Repulsion Energy =            997.9715906641695256
    One-Electron Energy =               -2839.2713457529853258
    Two-Electron Energy =                1209.5772392915027922
    Total Energy =                       -631.7225157973130081
  Basis Set: (AUG-CC-PVTZ AUX)
    Blend: AUG-CC-PVTZ-RI
    Molecular point group: c1

    Geometry (in Angstrom), charge = 0, multiplicity = 1:

       Center              X                  Y                   Z               Mass
    ------------   -----------------  -----------------  -----------------  -----------------
         O            0.051556094567     1.934099065079    -1.182754478687    15.994914619570
         N            1.251121094567     0.446476065079     0.085793521313    14.003074004430
         C            3.722229094567    -0.967371934921     0.433394521313    12.000000000000
         C            3.574848094567     0.152901065079    -0.596927478687    12.000000000000
         C            2.374182094567    -1.634428934921     0.709990521313    12.000000000000
         C            2.590701394567     1.199581565079    -0.182165878687    12.000000000000
         C            1.332101094567    -0.592409934921     1.106677521313    12.000000000000
         C            0.093353094567     0.912444065079    -0.483635478687    12.000000000000
         C           -1.140197905433     0.085663065079    -0.268477478687    12.000000000000
         C           -2.241767905433     0.639258065079     0.409624521313    12.000000000000
         C           -1.221651905433    -1.188057934921    -0.844432478687    12.000000000000
         C           -3.404791905433    -0.131759934921     0.514080521313    12.000000000000
         C           -2.165955905433     2.020463065079     1.007092521313    12.000000000000
         C           -2.396022905433    -1.934588934921    -0.741404478687    12.000000000000
         C           -3.489834905433    -1.403889934921    -0.056771478687    12.000000000000
         H            4.453723094567    -1.709214934921     0.093295521313     1.007825032230
         H            4.111631094567    -0.545679934921     1.370385521313     1.007825032230
         H            4.528451094567     0.675574065079    -0.739190478687     1.007825032230
         H            3.286390094567    -0.269332934921    -1.567241478687     1.007825032230
         H            2.023823094567    -2.156200934921    -0.189112478687     1.007825032230
         H            2.467373094567    -2.381584934921     1.507622521313     1.007825032230
         H            2.817502094567     1.668395065079     0.755298521313     1.007825032230
         H            2.307816094567     1.905667065079    -0.927908478687     1.007825032230
         H            0.347581094567    -1.040730934921     1.243188521313     1.007825032230
         H            1.624042094567    -0.124911934921     2.060779521313     1.007825032230
         H           -0.362548905433    -1.586433934921    -1.381903478687     1.007825032230
         H           -4.263740905433     0.276502065079     1.044218521313     1.007825032230
         H           -1.984702905433     2.765146065079     0.228312521313     1.007825032230
         H           -3.096232905433     2.266244065079     1.526353521313     1.007825032230
         H           -1.343848905433     2.097271065079     1.726842521313     1.007825032230
         H           -2.457083905433    -2.920557934921    -1.195938478687     1.007825032230
         H           -4.409297905433    -1.977652934921     0.033407521313     1.007825032230

  Basis Set: AUG-CC-PVTZ
    Blend: AUG-CC-PVTZ
  Basis Set: (AUG-CC-PVTZ AUX)
    Blend: AUG-CC-PVTZ-JKFIT
	 Reference Energy          =    -631.7225157973130081 [Eh]
	 Singles Energy            =      -0.0000000000000000 [Eh]
	 Same-Spin Energy          =      -0.6889796281379699 [Eh]
	 Opposite-Spin Energy      =      -2.2129347475289718 [Eh]
	 Correlation Energy        =      -2.9019143756669417 [Eh]
	 Total Energy              =    -634.6244301729799417 [Eh]

	 ================> DF-SCS-MP2 Energies <==================
	-----------------------------------------------------------
	 SCS Same-Spin Scale       =       0.3333333333333333 [-]
	 SCS Opposite-Spin Scale   =       1.2000000000000000 [-]
	 SCS Same-Spin Energy      =      -0.2296598760459899 [Eh]
	 SCS Opposite-Spin Energy  =      -2.6555216970347661 [Eh]
	 SCS Correlation Energy    =      -2.8851815730807560 [Eh]
	 SCS Total Energy          =    -634.6076973703937938 [Eh]
	-----------------------------------------------------------

  Dipole Moment: [D]
     X:     1.7092      Y:    -2.4604      Z:     2.3193     Total:     3.7887

*** Psi4 exiting successfully. Buy a developer a beer!
