                               Psi4 1.4a3.dev225

  ==> Input File <==

--------------------------------------------------------------------------
#psi4
#
memory 32 gb

molecule  {
0 1
  O        0.0109280     1.9504830    -1.2088660
  N        1.2104930     0.4628600     0.0596820
  C        3.6816010    -0.9509880     0.4072830
  C        3.5342200     0.1692850    -0.6230390
  C        2.3335540    -1.6180450     0.6838790
  C        2.4642000     1.1676880    -0.1911000
  C        1.2914730    -0.5760260     1.0805660
  C        0.0638521     0.9085960    -0.5221036
  C       -1.1808260     0.1020470    -0.2945890
  C       -2.2823960     0.6556420     0.3835130
  C       -1.2622800    -1.1716740    -0.8705440
  C       -3.4454200    -0.1153760     0.4879690
  C       -2.2065840     2.0368470     0.9809810
  C       -2.4366510    -1.9182050    -0.7675160
  C       -3.5304630    -1.3875060    -0.0828830
  H        4.4130950    -1.6928310     0.0671840
  H        4.0710030    -0.5292960     1.3442740
  H        4.4878230     0.6919580    -0.7653020
  H        3.2457620    -0.2529490    -1.5933530
  H        1.9831950    -2.1398170    -0.2152240
  H        2.4267450    -2.3652010     1.4815110
  H        2.7768740     1.6847790     0.7291870
  H        2.2671880     1.9220510    -0.9540200
  H        0.3069530    -1.0243470     1.2170770
  H        1.5834140    -0.1085280     2.0346680
  H       -0.4031770    -1.5700500    -1.4080150
  H       -4.3043690     0.2928860     1.0181070
  H       -2.0253310     2.7815300     0.2022010
  H       -3.1368610     2.2826280     1.5002420
  H       -1.3844770     2.1136550     1.7007310
  H       -2.4977120    -2.9041740    -1.2220500
  H       -4.4499260    -1.9612690     0.0072960
units angstrom
no_reorient  #important for SAPT in psi4, default
symmetry c1  #important for SAPT in psi4, default
}

set PROPERTIES_ORIGIN ["COM"]
properties('MP2/aug-cc-pvtz', properties = ['dipole'])
--------------------------------------------------------------------------

    Molecular point group: c1
  Charge       = 0
  Multiplicity = 1
  Basis Set: AUG-CC-PVTZ
    Blend: AUG-CC-PVTZ
  Basis Set: (AUG-CC-PVTZ AUX)
    Blend: AUG-CC-PVTZ-JKFIT

    Orbital Energies [Eh]
    ---------------------

    Doubly Occupied:

       1A    -20.507844     2A    -15.586138     3A    -11.349060
       4A    -11.268316     5A    -11.255680     6A    -11.252024
       7A    -11.246056     8A    -11.244869     9A    -11.242503
      10A    -11.238884    11A    -11.236958    12A    -11.231468
      13A    -11.229068    14A    -11.226469    15A    -11.219621
      16A     -1.361184    17A     -1.251021    18A     -1.161207
      19A     -1.085122    20A     -1.050265    21A     -1.038171
      22A     -1.023682    23A     -0.943437    24A     -0.920556
      25A     -0.868413    26A     -0.843830    27A     -0.815935
      28A     -0.792196    29A     -0.743129    30A     -0.712619
      31A     -0.666117    32A     -0.653066    33A     -0.648658
      34A     -0.628683    35A     -0.620812    36A     -0.614992
      37A     -0.595870    38A     -0.588178    39A     -0.575488
      40A     -0.571333    41A     -0.560172    42A     -0.547909
      43A     -0.540012    44A     -0.523946    45A     -0.507771
      46A     -0.502178    47A     -0.491614    48A     -0.489637
      49A     -0.477821    50A     -0.470294    51A     -0.462401
      52A     -0.415545    53A     -0.366724    54A     -0.339829
      55A     -0.329669

  @DF-RHF Final Energy:  -631.72978983353391

   => Energetics <=

    Nuclear Repulsion Energy =           1000.0146571642280833
    One-Electron Energy =               -2843.2200093303845279
    Two-Electron Energy =                1211.4755623326225304
    Total Energy =                       -631.7297898335339141
  Basis Set: (AUG-CC-PVTZ AUX)
    Blend: AUG-CC-PVTZ-RI
    Molecular point group: c1

    Geometry (in Angstrom), charge = 0, multiplicity = 1:

       Center              X                  Y                   Z               Mass
    ------------   -----------------  -----------------  -----------------  -----------------
         O            0.055971739336     1.938146275710    -1.183039268286    15.994914619570
         N            1.255536739336     0.450523275710     0.085508731714    14.003074004430
         C            3.726644739336    -0.963324724290     0.433109731714    12.000000000000
         C            3.579263739336     0.156948275710    -0.597212268286    12.000000000000
         C            2.378597739336    -1.630381724290     0.709705731714    12.000000000000
         C            2.509243739336     1.155351275710    -0.165273268286    12.000000000000
         C            1.336516739336    -0.588362724290     1.106392731714    12.000000000000
         C            0.108895839336     0.896259275710    -0.496276868286    12.000000000000
         C           -1.135782260664     0.089710275710    -0.268762268286    12.000000000000
         C           -2.237352260664     0.643305275710     0.409339731714    12.000000000000
         C           -1.217236260664    -1.184010724290    -0.844717268286    12.000000000000
         C           -3.400376260664    -0.127712724290     0.513795731714    12.000000000000
         C           -2.161540260664     2.024510275710     1.006807731714    12.000000000000
         C           -2.391607260664    -1.930541724290    -0.741689268286    12.000000000000
         C           -3.485419260664    -1.399842724290    -0.057056268286    12.000000000000
         H            4.458138739336    -1.705167724290     0.093010731714     1.007825032230
         H            4.116046739336    -0.541632724290     1.370100731714     1.007825032230
         H            4.532866739336     0.679621275710    -0.739475268286     1.007825032230
         H            3.290805739336    -0.265285724290    -1.567526268286     1.007825032230
         H            2.028238739336    -2.152153724290    -0.189397268286     1.007825032230
         H            2.471788739336    -2.377537724290     1.507337731714     1.007825032230
         H            2.821917739336     1.672442275710     0.755013731714     1.007825032230
         H            2.312231739336     1.909714275710    -0.928193268286     1.007825032230
         H            0.351996739336    -1.036683724290     1.242903731714     1.007825032230
         H            1.628457739336    -0.120864724290     2.060494731714     1.007825032230
         H           -0.358133260664    -1.582386724290    -1.382188268286     1.007825032230
         H           -4.259325260664     0.280549275710     1.043933731714     1.007825032230
         H           -1.980287260664     2.769193275710     0.228027731714     1.007825032230
         H           -3.091817260664     2.270291275710     1.526068731714     1.007825032230
         H           -1.339433260664     2.101318275710     1.726557731714     1.007825032230
         H           -2.452668260664    -2.916510724290    -1.196223268286     1.007825032230
         H           -4.404882260664    -1.973605724290     0.033122731714     1.007825032230

  Basis Set: AUG-CC-PVTZ
    Blend: AUG-CC-PVTZ
  Basis Set: (AUG-CC-PVTZ AUX)
    Blend: AUG-CC-PVTZ-JKFIT
	 Reference Energy          =    -631.7297898335339141 [Eh]
	 Singles Energy            =      -0.0000000000000000 [Eh]
	 Same-Spin Energy          =      -0.6891624004553878 [Eh]
	 Opposite-Spin Energy      =      -2.2125521146571705 [Eh]
	 Correlation Energy        =      -2.9017145151125581 [Eh]
	 Total Energy              =    -634.6315043486464447 [Eh]

	 ================> DF-SCS-MP2 Energies <==================
	-----------------------------------------------------------
	 SCS Same-Spin Scale       =       0.3333333333333333 [-]
	 SCS Opposite-Spin Scale   =       1.2000000000000000 [-]
	 SCS Same-Spin Energy      =      -0.2297208001517959 [Eh]
	 SCS Opposite-Spin Energy  =      -2.6550625375886043 [Eh]
	 SCS Correlation Energy    =      -2.8847833377404002 [Eh]
	 SCS Total Energy          =    -634.6145731712742872 [Eh]
	-----------------------------------------------------------

  Dipole Moment: [D]
     X:     1.4972      Y:    -2.5890      Z:     2.3557     Total:     3.8071

*** Psi4 exiting successfully. Buy a developer a beer!
