                               Psi4 1.4a3.dev225

  ==> Input File <==

--------------------------------------------------------------------------
#psi4
#
memory 32 gb

molecule  {
0 1
  O        0.0109280     1.9504830    -1.2088660
  N        1.2104930     0.4628600     0.0596820
  C        3.6816010    -0.9509880     0.4072830
  C        3.5342200     0.1692850    -0.6230390
  C        2.3335540    -1.6180450     0.6838790
  C        2.4642000     1.1676880    -0.1911000
  C        1.2914730    -0.5760260     1.0805660
  C        0.0527250     0.9288280    -0.5097470
  C       -1.1808260     0.1020470    -0.2945890
  C       -2.2823960     0.6556420     0.3835130
  C       -1.2622800    -1.1716740    -0.8705440
  C       -3.4454200    -0.1153760     0.4879690
  C       -2.2065840     2.0368470     0.9809810
  C       -2.4366510    -1.9182050    -0.7675160
  C       -3.5304630    -1.3875060    -0.0828830
  H        4.4130950    -1.6928310     0.0671840
  H        4.0710030    -0.5292960     1.3442740
  H        4.4878230     0.6919580    -0.7653020
  H        3.2457620    -0.2529490    -1.5933530
  H        1.9838425    -2.2359128    -0.1523774
  H        2.4267450    -2.3652010     1.4815110
  H        2.7768740     1.6847790     0.7291870
  H        2.2671880     1.9220510    -0.9540200
  H        0.3069530    -1.0243470     1.2170770
  H        1.5834140    -0.1085280     2.0346680
  H       -0.4031770    -1.5700500    -1.4080150
  H       -4.3043690     0.2928860     1.0181070
  H       -2.0253310     2.7815300     0.2022010
  H       -3.1368610     2.2826280     1.5002420
  H       -1.3844770     2.1136550     1.7007310
  H       -2.4977120    -2.9041740    -1.2220500
  H       -4.4499260    -1.9612690     0.0072960
units angstrom
no_reorient  #important for SAPT in psi4, default
symmetry c1  #important for SAPT in psi4, default
}

set PROPERTIES_ORIGIN ["COM"]
properties('MP2/aug-cc-pvtz', properties = ['dipole'])
--------------------------------------------------------------------------

    Molecular point group: c1
  Charge       = 0
  Multiplicity = 1
  Basis Set: AUG-CC-PVTZ
    Blend: AUG-CC-PVTZ
  Basis Set: (AUG-CC-PVTZ AUX)
    Blend: AUG-CC-PVTZ-JKFIT

    Orbital Energies [Eh]
    ---------------------

    Doubly Occupied:

       1A    -20.510641     2A    -15.583733     3A    -11.349324
       4A    -11.267719     5A    -11.254569     6A    -11.251789
       7A    -11.246226     8A    -11.244915     9A    -11.242596
      10A    -11.239074    11A    -11.236918    12A    -11.230358
      13A    -11.228970    14A    -11.225529    15A    -11.220301
      16A     -1.366859    17A     -1.249400    18A     -1.161356
      19A     -1.083151    20A     -1.050735    21A     -1.037147
      22A     -1.023126    23A     -0.943125    24A     -0.918804
      25A     -0.868103    26A     -0.844634    27A     -0.815502
      28A     -0.791483    29A     -0.741991    30A     -0.712022
      31A     -0.666790    32A     -0.652667    33A     -0.649174
      34A     -0.627588    35A     -0.619776    36A     -0.615950
      37A     -0.595116    38A     -0.587675    39A     -0.575680
      40A     -0.571370    41A     -0.560641    42A     -0.546843
      43A     -0.541466    44A     -0.524917    45A     -0.508179
      46A     -0.501579    47A     -0.491159    48A     -0.489582
      49A     -0.478591    50A     -0.470059    51A     -0.460560
      52A     -0.416812    53A     -0.366172    54A     -0.339920
      55A     -0.329949

  @DF-RHF Final Energy:  -631.72953123016703

   => Energetics <=

    Nuclear Repulsion Energy =            999.7278714536166717
    One-Electron Energy =               -2842.6581786485253360
    Two-Electron Energy =                1211.2007759647417515
    Total Energy =                       -631.7295312301669128
  Basis Set: (AUG-CC-PVTZ AUX)
    Blend: AUG-CC-PVTZ-RI
    Molecular point group: c1

    Geometry (in Angstrom), charge = 0, multiplicity = 1:

       Center              X                  Y                   Z               Mass
    ------------   -----------------  -----------------  -----------------  -----------------
         O            0.056625862163     1.937427841610    -1.184081047049    15.994914619570
         N            1.256190862163     0.449804841610     0.084466952951    14.003074004430
         C            3.727298862163    -0.964043158390     0.432067952951    12.000000000000
         C            3.579917862163     0.156229841610    -0.598254047049    12.000000000000
         C            2.379251862163    -1.631100158390     0.708663952951    12.000000000000
         C            2.509897862163     1.154632841610    -0.166315047049    12.000000000000
         C            1.337170862163    -0.589081158390     1.105350952951    12.000000000000
         C            0.098422862163     0.915772841610    -0.484962047049    12.000000000000
         C           -1.135128137837     0.088991841610    -0.269804047049    12.000000000000
         C           -2.236698137837     0.642586841610     0.408297952951    12.000000000000
         C           -1.216582137837    -1.184729158390    -0.845759047049    12.000000000000
         C           -3.399722137837    -0.128431158390     0.512753952951    12.000000000000
         C           -2.160886137837     2.023791841610     1.005765952951    12.000000000000
         C           -2.390953137837    -1.931260158390    -0.742731047049    12.000000000000
         C           -3.484765137837    -1.400561158390    -0.058098047049    12.000000000000
         H            4.458792862163    -1.705886158390     0.091968952951     1.007825032230
         H            4.116700862163    -0.542351158390     1.369058952951     1.007825032230
         H            4.533520862163     0.678902841610    -0.740517047049     1.007825032230
         H            3.291459862163    -0.266004158390    -1.568568047049     1.007825032230
         H            2.029540362163    -2.248967958390    -0.127592447049     1.007825032230
         H            2.472442862163    -2.378256158390     1.506295952951     1.007825032230
         H            2.822571862163     1.671723841610     0.753971952951     1.007825032230
         H            2.312885862163     1.908995841610    -0.929235047049     1.007825032230
         H            0.352650862163    -1.037402158390     1.241861952951     1.007825032230
         H            1.629111862163    -0.121583158390     2.059452952951     1.007825032230
         H           -0.357479137837    -1.583105158390    -1.383230047049     1.007825032230
         H           -4.258671137837     0.279830841610     1.042891952951     1.007825032230
         H           -1.979633137837     2.768474841610     0.226985952951     1.007825032230
         H           -3.091163137837     2.269572841610     1.525026952951     1.007825032230
         H           -1.338779137837     2.100599841610     1.725515952951     1.007825032230
         H           -2.452014137837    -2.917229158390    -1.197265047049     1.007825032230
         H           -4.404228137837    -1.974324158390     0.032080952951     1.007825032230

  Basis Set: AUG-CC-PVTZ
    Blend: AUG-CC-PVTZ
  Basis Set: (AUG-CC-PVTZ AUX)
    Blend: AUG-CC-PVTZ-JKFIT
	 Reference Energy          =    -631.7295312301670265 [Eh]
	 Singles Energy            =      -0.0000000000000000 [Eh]
	 Same-Spin Energy          =      -0.6889717472780132 [Eh]
	 Opposite-Spin Energy      =      -2.2121386478299074 [Eh]
	 Correlation Energy        =      -2.9011103951079207 [Eh]
	 Total Energy              =    -634.6306416252749614 [Eh]

	 ================> DF-SCS-MP2 Energies <==================
	-----------------------------------------------------------
	 SCS Same-Spin Scale       =       0.3333333333333333 [-]
	 SCS Opposite-Spin Scale   =       1.2000000000000000 [-]
	 SCS Same-Spin Energy      =      -0.2296572490926711 [Eh]
	 SCS Opposite-Spin Energy  =      -2.6545663773958887 [Eh]
	 SCS Correlation Energy    =      -2.8842236264885597 [Eh]
	 SCS Total Energy          =    -634.6137548566555324 [Eh]
	-----------------------------------------------------------

  Dipole Moment: [D]
     X:     1.4102      Y:    -2.5521      Z:     2.3089     Total:     3.7192

*** Psi4 exiting successfully. Buy a developer a beer!
