                               Psi4 1.4a3.dev225

  ==> Input File <==

--------------------------------------------------------------------------
#psi4
#
memory 32 gb

molecule  {
0 1
  O        0.0109280     1.9504830    -1.2088660
  N        1.2104930     0.4628600     0.0596820
  C        3.6816010    -0.9509880     0.4072830
  C        3.5342200     0.1692850    -0.6230390
  C        2.3335540    -1.6180450     0.6838790
  C        2.4642000     1.1676880    -0.1911000
  C        1.2914730    -0.5760260     1.0805660
  C        0.0527250     0.9288280    -0.5097470
  C       -1.1808260     0.1020470    -0.2945890
  C       -2.2823960     0.6556420     0.3835130
  C       -1.2622800    -1.1716740    -0.8705440
  C       -3.4454200    -0.1153760     0.4879690
  C       -2.2065840     2.0368470     0.9809810
  C       -2.4366510    -1.9182050    -0.7675160
  C       -3.5304630    -1.3875060    -0.0828830
  H        4.4130950    -1.6928310     0.0671840
  H        4.0710030    -0.5292960     1.3442740
  H        4.4878230     0.6919580    -0.7653020
  H        3.2457620    -0.2529490    -1.5933530
  H        1.9831950    -2.1398170    -0.2152240
  H        2.4267450    -2.3652010     1.4815110
  H        2.7768740     1.6847790     0.7291870
  H        2.2671880     1.9220510    -0.9540200
  H        0.3069530    -1.0243470     1.2170770
  H        1.5834140    -0.1085280     2.0346680
  H       -0.4031770    -1.5700500    -1.4080150
  H       -4.3043690     0.2928860     1.0181070
  H       -2.0253310     2.7815300     0.2022010
  H       -3.1368610     2.2826280     1.5002420
  H       -1.5345851     2.0996307     1.5693122
  H       -2.4977120    -2.9041740    -1.2220500
  H       -4.4499260    -1.9612690     0.0072960
units angstrom
no_reorient  #important for SAPT in psi4, default
symmetry c1  #important for SAPT in psi4, default
}

set PROPERTIES_ORIGIN ["COM"]
properties('MP2/aug-cc-pvtz', properties = ['dipole'])
--------------------------------------------------------------------------

    Molecular point group: c1
  Charge       = 0
  Multiplicity = 1
  Basis Set: AUG-CC-PVTZ
    Blend: AUG-CC-PVTZ
  Basis Set: (AUG-CC-PVTZ AUX)
    Blend: AUG-CC-PVTZ-JKFIT

    Orbital Energies [Eh]
    ---------------------

    Doubly Occupied:

       1A    -20.510994     2A    -15.584097     3A    -11.349522
       4A    -11.267199     5A    -11.254807     6A    -11.250639
       7A    -11.246012     8A    -11.244660     9A    -11.242154
      10A    -11.238707    11A    -11.236121    12A    -11.230724
      13A    -11.228419    14A    -11.225797    15A    -11.195397
      16A     -1.367212    17A     -1.249781    18A     -1.161496
      19A     -1.083706    20A     -1.056656    21A     -1.037517
      22A     -1.023023    23A     -0.957832    24A     -0.922251
      25A     -0.867849    26A     -0.844198    27A     -0.817671
      28A     -0.792703    29A     -0.743261    30A     -0.713535
      31A     -0.668327    32A     -0.652907    33A     -0.649534
      34A     -0.628342    35A     -0.620252    36A     -0.617996
      37A     -0.602951    38A     -0.594085    39A     -0.587176
      40A     -0.573024    41A     -0.560294    42A     -0.548569
      43A     -0.541937    44A     -0.526561    45A     -0.510356
      46A     -0.502577    47A     -0.492046    48A     -0.488827
      49A     -0.478501    50A     -0.469775    51A     -0.461668
      52A     -0.416968    53A     -0.366407    54A     -0.339584
      55A     -0.330561

  @DF-RHF Final Energy:  -631.69710718129966

   => Energetics <=

    Nuclear Repulsion Energy =           1000.8779956372575271
    One-Electron Energy =               -2844.8038736328212508
    Two-Electron Energy =                1212.2287708142641804
    Total Energy =                       -631.6971071812995433
  Basis Set: (AUG-CC-PVTZ AUX)
    Blend: AUG-CC-PVTZ-RI
    Molecular point group: c1

    Geometry (in Angstrom), charge = 0, multiplicity = 1:

       Center              X                  Y                   Z               Mass
    ------------   -----------------  -----------------  -----------------  -----------------
         O            0.057373829026     1.937020647699    -1.183117208347    15.994914619570
         N            1.256938829026     0.449397647699     0.085430791653    14.003074004430
         C            3.728046829026    -0.964450352301     0.433031791653    12.000000000000
         C            3.580665829026     0.155822647699    -0.597290208347    12.000000000000
         C            2.379999829026    -1.631507352301     0.709627791653    12.000000000000
         C            2.510645829026     1.154225647699    -0.165351208347    12.000000000000
         C            1.337918829026    -0.589488352301     1.106314791653    12.000000000000
         C            0.099170829026     0.915365647699    -0.483998208347    12.000000000000
         C           -1.134380170974     0.088584647699    -0.268840208347    12.000000000000
         C           -2.235950170974     0.642179647699     0.409261791653    12.000000000000
         C           -1.215834170974    -1.185136352301    -0.844795208347    12.000000000000
         C           -3.398974170974    -0.128838352301     0.513717791653    12.000000000000
         C           -2.160138170974     2.023384647699     1.006729791653    12.000000000000
         C           -2.390205170974    -1.931667352301    -0.741767208347    12.000000000000
         C           -3.484017170974    -1.400968352301    -0.057134208347    12.000000000000
         H            4.459540829026    -1.706293352301     0.092932791653     1.007825032230
         H            4.117448829026    -0.542758352301     1.370022791653     1.007825032230
         H            4.534268829026     0.678495647699    -0.739553208347     1.007825032230
         H            3.292207829026    -0.266411352301    -1.567604208347     1.007825032230
         H            2.029640829026    -2.153279352301    -0.189475208347     1.007825032230
         H            2.473190829026    -2.378663352301     1.507259791653     1.007825032230
         H            2.823319829026     1.671316647699     0.754935791653     1.007825032230
         H            2.313633829026     1.908588647699    -0.928271208347     1.007825032230
         H            0.353398829026    -1.037809352301     1.242825791653     1.007825032230
         H            1.629859829026    -0.121990352301     2.060416791653     1.007825032230
         H           -0.356731170974    -1.583512352301    -1.382266208347     1.007825032230
         H           -4.257923170974     0.279423647699     1.043855791653     1.007825032230
         H           -1.978885170974     2.768067647699     0.227949791653     1.007825032230
         H           -3.090415170974     2.269165647699     1.525990791653     1.007825032230
         H           -1.488139270974     2.086168347699     1.595060991653     1.007825032230
         H           -2.451266170974    -2.917636352301    -1.196301208347     1.007825032230
         H           -4.403480170974    -1.974731352301     0.033044791653     1.007825032230

  Basis Set: AUG-CC-PVTZ
    Blend: AUG-CC-PVTZ
  Basis Set: (AUG-CC-PVTZ AUX)
    Blend: AUG-CC-PVTZ-JKFIT
	 Reference Energy          =    -631.6971071812996570 [Eh]
	 Singles Energy            =      -0.0000000000000000 [Eh]
	 Same-Spin Energy          =      -0.6890583322123582 [Eh]
	 Opposite-Spin Energy      =      -2.2115864997734538 [Eh]
	 Correlation Energy        =      -2.9006448319858120 [Eh]
	 Total Energy              =    -634.5977520132854579 [Eh]

	 ================> DF-SCS-MP2 Energies <==================
	-----------------------------------------------------------
	 SCS Same-Spin Scale       =       0.3333333333333333 [-]
	 SCS Opposite-Spin Scale   =       1.2000000000000000 [-]
	 SCS Same-Spin Energy      =      -0.2296861107374527 [Eh]
	 SCS Opposite-Spin Energy  =      -2.6539037997281443 [Eh]
	 SCS Correlation Energy    =      -2.8835899104655969 [Eh]
	 SCS Total Energy          =    -634.5806970917652734 [Eh]
	-----------------------------------------------------------

  Dipole Moment: [D]
     X:     1.4474      Y:    -2.4915      Z:     2.3512     Total:     3.7190

*** Psi4 exiting successfully. Buy a developer a beer!
