                               Psi4 1.4a3.dev225

  ==> Input File <==

--------------------------------------------------------------------------
#psi4
#
memory 32 gb

molecule  {
0 1
  O        0.0109280     1.9504830    -1.2088660
  N        1.2104930     0.4628600     0.0596820
  C        3.6816010    -0.9509880     0.4072830
  C        3.5342200     0.1692850    -0.6230390
  C        2.3335540    -1.6180450     0.6838790
  C        2.4642000     1.1676880    -0.1911000
  C        1.2914730    -0.5760260     1.0805660
  C        0.0527250     0.9288280    -0.5097470
  C       -1.1808260     0.1020470    -0.2945890
  C       -2.2823960     0.6556420     0.3835130
  C       -1.2622800    -1.1716740    -0.8705440
  C       -3.4454200    -0.1153760     0.4879690
  C       -2.2065840     2.0368470     0.9809810
  C       -2.4366510    -1.9182050    -0.7675160
  C       -3.5316806    -1.4057192    -0.0910559
  H        4.4130950    -1.6928310     0.0671840
  H        4.0710030    -0.5292960     1.3442740
  H        4.4878230     0.6919580    -0.7653020
  H        3.2457620    -0.2529490    -1.5933530
  H        1.9831950    -2.1398170    -0.2152240
  H        2.4267450    -2.3652010     1.4815110
  H        2.7768740     1.6847790     0.7291870
  H        2.2671880     1.9220510    -0.9540200
  H        0.3069530    -1.0243470     1.2170770
  H        1.5834140    -0.1085280     2.0346680
  H       -0.4031770    -1.5700500    -1.4080150
  H       -4.3043690     0.2928860     1.0181070
  H       -2.0253310     2.7815300     0.2022010
  H       -3.1368610     2.2826280     1.5002420
  H       -1.3844770     2.1136550     1.7007310
  H       -2.4977120    -2.9041740    -1.2220500
  H       -4.4499260    -1.9612690     0.0072960
units angstrom
no_reorient  #important for SAPT in psi4, default
symmetry c1  #important for SAPT in psi4, default
}

set PROPERTIES_ORIGIN ["COM"]
properties('MP2/aug-cc-pvtz', properties = ['dipole'])
--------------------------------------------------------------------------

    Molecular point group: c1
  Charge       = 0
  Multiplicity = 1
  Basis Set: AUG-CC-PVTZ
    Blend: AUG-CC-PVTZ
  Basis Set: (AUG-CC-PVTZ AUX)
    Blend: AUG-CC-PVTZ-JKFIT

    Orbital Energies [Eh]
    ---------------------

    Doubly Occupied:

       1A    -20.510900     2A    -15.584001     3A    -11.349598
       4A    -11.267084     5A    -11.254688     6A    -11.251607
       7A    -11.246595     8A    -11.245388     9A    -11.242861
      10A    -11.238899    11A    -11.238340    12A    -11.230667
      13A    -11.228353    14A    -11.225720    15A    -11.220252
      16A     -1.367114    17A     -1.249669    18A     -1.160609
      19A     -1.083606    20A     -1.051863    21A     -1.036578
      22A     -1.022153    23A     -0.942239    24A     -0.919280
      25A     -0.867800    26A     -0.845234    27A     -0.814735
      28A     -0.790793    29A     -0.742711    30A     -0.712203
      31A     -0.667935    32A     -0.653339    33A     -0.648066
      34A     -0.627965    35A     -0.620138    36A     -0.615113
      37A     -0.596153    38A     -0.588099    39A     -0.574642
      40A     -0.571569    41A     -0.561045    42A     -0.548310
      43A     -0.541838    44A     -0.524897    45A     -0.509091
      46A     -0.501673    47A     -0.491245    48A     -0.488607
      49A     -0.478365    50A     -0.469651    51A     -0.461577
      52A     -0.417029    53A     -0.366288    54A     -0.337628
      55A     -0.331692

  @DF-RHF Final Energy:  -631.73009786569287

   => Energetics <=

    Nuclear Repulsion Energy =            999.7434125123137392
    One-Electron Energy =               -2842.6800342136421023
    Two-Electron Energy =                1211.2065238356356076
    Total Energy =                       -631.7300978656928692
  Basis Set: (AUG-CC-PVTZ AUX)
    Blend: AUG-CC-PVTZ-RI
    Molecular point group: c1

    Geometry (in Angstrom), charge = 0, multiplicity = 1:

       Center              X                  Y                   Z               Mass
    ------------   -----------------  -----------------  -----------------  -----------------
         O            0.056701004636     1.938027014748    -1.183286421091    15.994914619570
         N            1.256266004636     0.450404014748     0.085261578909    14.003074004430
         C            3.727374004636    -0.963443985252     0.432862578909    12.000000000000
         C            3.579993004636     0.156829014748    -0.597459421091    12.000000000000
         C            2.379327004636    -1.630500985252     0.709458578909    12.000000000000
         C            2.509973004636     1.155232014748    -0.165520421091    12.000000000000
         C            1.337246004636    -0.588481985252     1.106145578909    12.000000000000
         C            0.098498004636     0.916372014748    -0.484167421091    12.000000000000
         C           -1.135052995364     0.089591014748    -0.269009421091    12.000000000000
         C           -2.236622995364     0.643186014748     0.409092578909    12.000000000000
         C           -1.216506995364    -1.184129985252    -0.844964421091    12.000000000000
         C           -3.399646995364    -0.127831985252     0.513548578909    12.000000000000
         C           -2.160810995364     2.024391014748     1.006560578909    12.000000000000
         C           -2.390877995364    -1.930660985252    -0.741936421091    12.000000000000
         C           -3.485907595364    -1.418175185252    -0.065476321091    12.000000000000
         H            4.458868004636    -1.705286985252     0.092763578909     1.007825032230
         H            4.116776004636    -0.541751985252     1.369853578909     1.007825032230
         H            4.533596004636     0.679502014748    -0.739722421091     1.007825032230
         H            3.291535004636    -0.265404985252    -1.567773421091     1.007825032230
         H            2.028968004636    -2.152272985252    -0.189644421091     1.007825032230
         H            2.472518004636    -2.377656985252     1.507090578909     1.007825032230
         H            2.822647004636     1.672323014748     0.754766578909     1.007825032230
         H            2.312961004636     1.909595014748    -0.928440421091     1.007825032230
         H            0.352726004636    -1.036802985252     1.242656578909     1.007825032230
         H            1.629187004636    -0.120983985252     2.060247578909     1.007825032230
         H           -0.357403995364    -1.582505985252    -1.382435421091     1.007825032230
         H           -4.258595995364     0.280430014748     1.043686578909     1.007825032230
         H           -1.979557995364     2.769074014748     0.227780578909     1.007825032230
         H           -3.091087995364     2.270172014748     1.525821578909     1.007825032230
         H           -1.338703995364     2.101199014748     1.726310578909     1.007825032230
         H           -2.451938995364    -2.916629985252    -1.196470421091     1.007825032230
         H           -4.404152995364    -1.973724985252     0.032875578909     1.007825032230

  Basis Set: AUG-CC-PVTZ
    Blend: AUG-CC-PVTZ
  Basis Set: (AUG-CC-PVTZ AUX)
    Blend: AUG-CC-PVTZ-JKFIT
	 Reference Energy          =    -631.7300978656928692 [Eh]
	 Singles Energy            =      -0.0000000000000000 [Eh]
	 Same-Spin Energy          =      -0.6889994143604278 [Eh]
	 Opposite-Spin Energy      =      -2.2123496662774627 [Eh]
	 Correlation Energy        =      -2.9013490806378903 [Eh]
	 Total Energy              =    -634.6314469463308114 [Eh]

	 ================> DF-SCS-MP2 Energies <==================
	-----------------------------------------------------------
	 SCS Same-Spin Scale       =       0.3333333333333333 [-]
	 SCS Opposite-Spin Scale   =       1.2000000000000000 [-]
	 SCS Same-Spin Energy      =      -0.2296664714534759 [Eh]
	 SCS Opposite-Spin Energy  =      -2.6548195995329551 [Eh]
	 SCS Correlation Energy    =      -2.8844860709864308 [Eh]
	 SCS Total Energy          =    -634.6145839366793098 [Eh]
	-----------------------------------------------------------

  Dipole Moment: [D]
     X:     1.4031      Y:    -2.5187      Z:     2.3058     Total:     3.6918

*** Psi4 exiting successfully. Buy a developer a beer!
