                               Psi4 1.4a3.dev225

  ==> Input File <==

--------------------------------------------------------------------------
#psi4
#
memory 32 gb

molecule  {
0 1
  O        0.0109280     1.9504830    -1.2088660
  N        1.2104930     0.4628600     0.0596820
  C        3.6816010    -0.9509880     0.4072830
  C        3.5342200     0.1692850    -0.6230390
  C        2.3335540    -1.6180450     0.6838790
  C        2.3783267     1.1194105    -0.1739226
  C        1.2914730    -0.5760260     1.0805660
  C        0.0527250     0.9288280    -0.5097470
  C       -1.1808260     0.1020470    -0.2945890
  C       -2.2823960     0.6556420     0.3835130
  C       -1.2622800    -1.1716740    -0.8705440
  C       -3.4454200    -0.1153760     0.4879690
  C       -2.2065840     2.0368470     0.9809810
  C       -2.4366510    -1.9182050    -0.7675160
  C       -3.5304630    -1.3875060    -0.0828830
  H        4.4130950    -1.6928310     0.0671840
  H        4.0710030    -0.5292960     1.3442740
  H        4.4878230     0.6919580    -0.7653020
  H        3.2457620    -0.2529490    -1.5933530
  H        1.9831950    -2.1398170    -0.2152240
  H        2.4267450    -2.3652010     1.4815110
  H        2.7768740     1.6847790     0.7291870
  H        2.2671880     1.9220510    -0.9540200
  H        0.3069530    -1.0243470     1.2170770
  H        1.5834140    -0.1085280     2.0346680
  H       -0.4031770    -1.5700500    -1.4080150
  H       -4.3043690     0.2928860     1.0181070
  H       -2.0253310     2.7815300     0.2022010
  H       -3.1368610     2.2826280     1.5002420
  H       -1.3844770     2.1136550     1.7007310
  H       -2.4977120    -2.9041740    -1.2220500
  H       -4.4499260    -1.9612690     0.0072960
units angstrom
no_reorient  #important for SAPT in psi4, default
symmetry c1  #important for SAPT in psi4, default
}

set PROPERTIES_ORIGIN ["COM"]
properties('MP2/aug-cc-pvtz', properties = ['dipole'])
--------------------------------------------------------------------------

    Molecular point group: c1
  Charge       = 0
  Multiplicity = 1
  Basis Set: AUG-CC-PVTZ
    Blend: AUG-CC-PVTZ
  Basis Set: (AUG-CC-PVTZ AUX)
    Blend: AUG-CC-PVTZ-JKFIT

    Orbital Energies [Eh]
    ---------------------

    Doubly Occupied:

       1A    -20.515014     2A    -15.586375     3A    -11.353013
       4A    -11.269357     5A    -11.253500     6A    -11.252990
       7A    -11.248124     8A    -11.246872     9A    -11.244126
      10A    -11.240565    11A    -11.238371    12A    -11.231335
      13A    -11.226111    14A    -11.224101    15A    -11.221660
      16A     -1.374025    17A     -1.270456    18A     -1.163371
      19A     -1.082962    20A     -1.052762    21A     -1.040107
      22A     -1.020746    23A     -0.945508    24A     -0.919253
      25A     -0.873813    26A     -0.842785    27A     -0.817140
      28A     -0.793575    29A     -0.743560    30A     -0.717467
      31A     -0.668197    32A     -0.656368    33A     -0.651954
      34A     -0.626465    35A     -0.625255    36A     -0.617419
      37A     -0.596036    38A     -0.593054    39A     -0.577535
      40A     -0.573321    41A     -0.564512    42A     -0.544508
      43A     -0.542265    44A     -0.523821    45A     -0.508998
      46A     -0.497419    47A     -0.492451    48A     -0.489446
      49A     -0.474607    50A     -0.471063    51A     -0.453193
      52A     -0.421458    53A     -0.362968    54A     -0.341560
      55A     -0.331525

  @DF-RHF Final Energy:  -631.71998601001758

   => Energetics <=

    Nuclear Repulsion Energy =           1002.0811570275411668
    One-Electron Energy =               -2847.1734077964915741
    Two-Electron Energy =                1213.3722647589329426
    Total Energy =                       -631.7199860100174647
  Basis Set: (AUG-CC-PVTZ AUX)
    Blend: AUG-CC-PVTZ-RI
    Molecular point group: c1

    Geometry (in Angstrom), charge = 0, multiplicity = 1:

       Center              X                  Y                   Z               Mass
    ------------   -----------------  -----------------  -----------------  -----------------
         O            0.061702054840     1.939803068501    -1.184783994473    15.994914619570
         N            1.261267054840     0.452180068501     0.083764005527    14.003074004430
         C            3.732375054840    -0.961667931499     0.431365005527    12.000000000000
         C            3.584994054840     0.158605068501    -0.598956994473    12.000000000000
         C            2.384328054840    -1.628724931499     0.707961005527    12.000000000000
         C            2.429100754840     1.108730568501    -0.149840594473    12.000000000000
         C            1.342247054840    -0.586705931499     1.104648005527    12.000000000000
         C            0.103499054840     0.918148068501    -0.485664994473    12.000000000000
         C           -1.130051945160     0.091367068501    -0.270506994473    12.000000000000
         C           -2.231621945160     0.644962068501     0.407595005527    12.000000000000
         C           -1.211505945160    -1.182353931499    -0.846461994473    12.000000000000
         C           -3.394645945160    -0.126055931499     0.512051005527    12.000000000000
         C           -2.155809945160     2.026167068501     1.005063005527    12.000000000000
         C           -2.385876945160    -1.928884931499    -0.743433994473    12.000000000000
         C           -3.479688945160    -1.398185931499    -0.058800994473    12.000000000000
         H            4.463869054840    -1.703510931499     0.091266005527     1.007825032230
         H            4.121777054840    -0.539975931499     1.368356005527     1.007825032230
         H            4.538597054840     0.681278068501    -0.741219994473     1.007825032230
         H            3.296536054840    -0.263628931499    -1.569270994473     1.007825032230
         H            2.033969054840    -2.150496931499    -0.191141994473     1.007825032230
         H            2.477519054840    -2.375880931499     1.505593005527     1.007825032230
         H            2.827648054840     1.674099068501     0.753269005527     1.007825032230
         H            2.317962054840     1.911371068501    -0.929937994473     1.007825032230
         H            0.357727054840    -1.035026931499     1.241159005527     1.007825032230
         H            1.634188054840    -0.119207931499     2.058750005527     1.007825032230
         H           -0.352402945160    -1.580729931499    -1.383932994473     1.007825032230
         H           -4.253594945160     0.282206068501     1.042189005527     1.007825032230
         H           -1.974556945160     2.770850068501     0.226283005527     1.007825032230
         H           -3.086086945160     2.271948068501     1.524324005527     1.007825032230
         H           -1.333702945160     2.102975068501     1.724813005527     1.007825032230
         H           -2.446937945160    -2.914853931499    -1.197967994473     1.007825032230
         H           -4.399151945160    -1.971948931499     0.031378005527     1.007825032230

  Basis Set: AUG-CC-PVTZ
    Blend: AUG-CC-PVTZ
  Basis Set: (AUG-CC-PVTZ AUX)
    Blend: AUG-CC-PVTZ-JKFIT
	 Reference Energy          =    -631.7199860100175783 [Eh]
	 Singles Energy            =      -0.0000000000000000 [Eh]
	 Same-Spin Energy          =      -0.6899688994781304 [Eh]
	 Opposite-Spin Energy      =      -2.2130414669277791 [Eh]
	 Correlation Energy        =      -2.9030103664059097 [Eh]
	 Total Energy              =    -634.6229963764235436 [Eh]

	 ================> DF-SCS-MP2 Energies <==================
	-----------------------------------------------------------
	 SCS Same-Spin Scale       =       0.3333333333333333 [-]
	 SCS Opposite-Spin Scale   =       1.2000000000000000 [-]
	 SCS Same-Spin Energy      =      -0.2299896331593768 [Eh]
	 SCS Opposite-Spin Energy  =      -2.6556497603133349 [Eh]
	 SCS Correlation Energy    =      -2.8856393934727116 [Eh]
	 SCS Total Energy          =    -634.6056254034903077 [Eh]
	-----------------------------------------------------------

  Dipole Moment: [D]
     X:     1.0820      Y:    -2.5946      Z:     2.2725     Total:     3.6148

*** Psi4 exiting successfully. Buy a developer a beer!
