                               Psi4 1.4a3.dev225

  ==> Input File <==

--------------------------------------------------------------------------
#psi4
#
memory 32 gb

molecule  {
0 1
  O        0.0109280     1.9504830    -1.2088660
  N        1.2104930     0.4628600     0.0596820
  C        3.6816010    -0.9509880     0.4072830
  C        3.5342200     0.1692850    -0.6230390
  C        2.3335540    -1.6180450     0.6838790
  C        2.4642000     1.1676880    -0.1911000
  C        1.2914730    -0.5760260     1.0805660
  C        0.0527250     0.9288280    -0.5097470
  C       -1.2072683     0.0614477    -0.3026210
  C       -2.2823960     0.6556420     0.3835130
  C       -1.2622800    -1.1716740    -0.8705440
  C       -3.4454200    -0.1153760     0.4879690
  C       -2.2065840     2.0368470     0.9809810
  C       -2.4366510    -1.9182050    -0.7675160
  C       -3.5304630    -1.3875060    -0.0828830
  H        4.4130950    -1.6928310     0.0671840
  H        4.0710030    -0.5292960     1.3442740
  H        4.4878230     0.6919580    -0.7653020
  H        3.2457620    -0.2529490    -1.5933530
  H        1.9831950    -2.1398170    -0.2152240
  H        2.4267450    -2.3652010     1.4815110
  H        2.7768740     1.6847790     0.7291870
  H        2.2671880     1.9220510    -0.9540200
  H        0.3069530    -1.0243470     1.2170770
  H        1.5834140    -0.1085280     2.0346680
  H       -0.4031770    -1.5700500    -1.4080150
  H       -4.3043690     0.2928860     1.0181070
  H       -2.0253310     2.7815300     0.2022010
  H       -3.1368610     2.2826280     1.5002420
  H       -1.3844770     2.1136550     1.7007310
  H       -2.4977120    -2.9041740    -1.2220500
  H       -4.4499260    -1.9612690     0.0072960
units angstrom
no_reorient  #important for SAPT in psi4, default
symmetry c1  #important for SAPT in psi4, default
}

set PROPERTIES_ORIGIN ["COM"]
properties('MP2/aug-cc-pvtz', properties = ['dipole'])
--------------------------------------------------------------------------

    Molecular point group: c1
  Charge       = 0
  Multiplicity = 1
  Basis Set: AUG-CC-PVTZ
    Blend: AUG-CC-PVTZ
  Basis Set: (AUG-CC-PVTZ AUX)
    Blend: AUG-CC-PVTZ-JKFIT

    Orbital Energies [Eh]
    ---------------------

    Doubly Occupied:

       1A    -20.511167     2A    -15.583684     3A    -11.350624
       4A    -11.267111     5A    -11.254498     6A    -11.251013
       7A    -11.244182     8A    -11.241295     9A    -11.240455
      10A    -11.238461    11A    -11.236373    12A    -11.230653
      13A    -11.228324    14A    -11.225656    15A    -11.221664
      16A     -1.365727    17A     -1.249118    18A     -1.164966
      19A     -1.083049    20A     -1.050055    21A     -1.037991
      22A     -1.024448    23A     -0.941974    24A     -0.919188
      25A     -0.866437    26A     -0.840165    27A     -0.816648
      28A     -0.792535    29A     -0.742070    30A     -0.710602
      31A     -0.664980    32A     -0.652171    33A     -0.648068
      34A     -0.627381    35A     -0.621977    36A     -0.615186
      37A     -0.596282    38A     -0.587531    39A     -0.575795
      40A     -0.572286    41A     -0.560054    42A     -0.547770
      43A     -0.542297    44A     -0.524121    45A     -0.506441
      46A     -0.502647    47A     -0.493108    48A     -0.492585
      49A     -0.479173    50A     -0.469609    51A     -0.461499
      52A     -0.412433    53A     -0.366156    54A     -0.344362
      55A     -0.328548

  @DF-RHF Final Energy:  -631.72894471472284

   => Energetics <=

    Nuclear Repulsion Energy =            999.8609354881425588
    One-Electron Energy =               -2842.9345772809724622
    Two-Electron Energy =                1211.3446970781071741
    Total Energy =                       -631.7289447147227293
  Basis Set: (AUG-CC-PVTZ AUX)
    Blend: AUG-CC-PVTZ-RI
    Molecular point group: c1

    Geometry (in Angstrom), charge = 0, multiplicity = 1:

       Center              X                  Y                   Z               Mass
    ------------   -----------------  -----------------  -----------------  -----------------
         O            0.058191158176     1.939349477500    -1.183294744783    15.994914619570
         N            1.257756158176     0.451726477500     0.085253255217    14.003074004430
         C            3.728864158176    -0.962121522500     0.432854255217    12.000000000000
         C            3.581483158176     0.158151477500    -0.597467744783    12.000000000000
         C            2.380817158176    -1.629178522500     0.709450255217    12.000000000000
         C            2.511463158176     1.156554477500    -0.165528744783    12.000000000000
         C            1.338736158176    -0.587159522500     1.106137255217    12.000000000000
         C            0.099988158176     0.917694477500    -0.484175744783    12.000000000000
         C           -1.160005141824     0.050314177500    -0.277049744783    12.000000000000
         C           -2.235132841824     0.644508477500     0.409084255217    12.000000000000
         C           -1.215016841824    -1.182807522500    -0.844972744783    12.000000000000
         C           -3.398156841824    -0.126509522500     0.513540255217    12.000000000000
         C           -2.159320841824     2.025713477500     1.006552255217    12.000000000000
         C           -2.389387841824    -1.929338522500    -0.741944744783    12.000000000000
         C           -3.483199841824    -1.398639522500    -0.057311744783    12.000000000000
         H            4.460358158176    -1.703964522500     0.092755255217     1.007825032230
         H            4.118266158176    -0.540429522500     1.369845255217     1.007825032230
         H            4.535086158176     0.680824477500    -0.739730744783     1.007825032230
         H            3.293025158176    -0.264082522500    -1.567781744783     1.007825032230
         H            2.030458158176    -2.150950522500    -0.189652744783     1.007825032230
         H            2.474008158176    -2.376334522500     1.507082255217     1.007825032230
         H            2.824137158176     1.673645477500     0.754758255217     1.007825032230
         H            2.314451158176     1.910917477500    -0.928448744783     1.007825032230
         H            0.354216158176    -1.035480522500     1.242648255217     1.007825032230
         H            1.630677158176    -0.119661522500     2.060239255217     1.007825032230
         H           -0.355913841824    -1.581183522500    -1.382443744783     1.007825032230
         H           -4.257105841824     0.281752477500     1.043678255217     1.007825032230
         H           -1.978067841824     2.770396477500     0.227772255217     1.007825032230
         H           -3.089597841824     2.271494477500     1.525813255217     1.007825032230
         H           -1.337213841824     2.102521477500     1.726302255217     1.007825032230
         H           -2.450448841824    -2.915307522500    -1.196478744783     1.007825032230
         H           -4.402662841824    -1.972402522500     0.032867255217     1.007825032230

  Basis Set: AUG-CC-PVTZ
    Blend: AUG-CC-PVTZ
  Basis Set: (AUG-CC-PVTZ AUX)
    Blend: AUG-CC-PVTZ-JKFIT
	 Reference Energy          =    -631.7289447147228429 [Eh]
	 Singles Energy            =      -0.0000000000000000 [Eh]
	 Same-Spin Energy          =      -0.6886551676795636 [Eh]
	 Opposite-Spin Energy      =      -2.2117025920209517 [Eh]
	 Correlation Energy        =      -2.9003577597005155 [Eh]
	 Total Energy              =    -634.6293024744234117 [Eh]

	 ================> DF-SCS-MP2 Energies <==================
	-----------------------------------------------------------
	 SCS Same-Spin Scale       =       0.3333333333333333 [-]
	 SCS Opposite-Spin Scale   =       1.2000000000000000 [-]
	 SCS Same-Spin Energy      =      -0.2295517225598545 [Eh]
	 SCS Opposite-Spin Energy  =      -2.6540431104251421 [Eh]
	 SCS Correlation Energy    =      -2.8835948329849965 [Eh]
	 SCS Total Energy          =    -634.6125395477077973 [Eh]
	-----------------------------------------------------------

  Dipole Moment: [D]
     X:     1.4290      Y:    -2.4830      Z:     2.3000     Total:     3.6739

*** Psi4 exiting successfully. Buy a developer a beer!
