                               Psi4 1.4a3.dev225

  ==> Input File <==

--------------------------------------------------------------------------
#psi4
#
memory 32 gb

molecule  {
0 1
  O        0.0109280     1.9504830    -1.2088660
  N        1.2104930     0.4628600     0.0596820
  C        3.6816010    -0.9509880     0.4072830
  C        3.5342200     0.1692850    -0.6230390
  C        2.3138924    -1.5704078     0.6977882
  C        2.4642000     1.1676880    -0.1911000
  C        1.2914730    -0.5760260     1.0805660
  C        0.0527250     0.9288280    -0.5097470
  C       -1.1808260     0.1020470    -0.2945890
  C       -2.2823960     0.6556420     0.3835130
  C       -1.2622800    -1.1716740    -0.8705440
  C       -3.4454200    -0.1153760     0.4879690
  C       -2.2065840     2.0368470     0.9809810
  C       -2.4366510    -1.9182050    -0.7675160
  C       -3.5304630    -1.3875060    -0.0828830
  H        4.4130950    -1.6928310     0.0671840
  H        4.0710030    -0.5292960     1.3442740
  H        4.4878230     0.6919580    -0.7653020
  H        3.2457620    -0.2529490    -1.5933530
  H        1.9831950    -2.1398170    -0.2152240
  H        2.4267450    -2.3652010     1.4815110
  H        2.7768740     1.6847790     0.7291870
  H        2.2671880     1.9220510    -0.9540200
  H        0.3069530    -1.0243470     1.2170770
  H        1.5834140    -0.1085280     2.0346680
  H       -0.4031770    -1.5700500    -1.4080150
  H       -4.3043690     0.2928860     1.0181070
  H       -2.0253310     2.7815300     0.2022010
  H       -3.1368610     2.2826280     1.5002420
  H       -1.3844770     2.1136550     1.7007310
  H       -2.4977120    -2.9041740    -1.2220500
  H       -4.4499260    -1.9612690     0.0072960
units angstrom
no_reorient  #important for SAPT in psi4, default
symmetry c1  #important for SAPT in psi4, default
}

set PROPERTIES_ORIGIN ["COM"]
properties('MP2/aug-cc-pvtz', properties = ['dipole'])
--------------------------------------------------------------------------

    Molecular point group: c1
  Charge       = 0
  Multiplicity = 1
  Basis Set: AUG-CC-PVTZ
    Blend: AUG-CC-PVTZ
  Basis Set: (AUG-CC-PVTZ AUX)
    Blend: AUG-CC-PVTZ-JKFIT

    Orbital Energies [Eh]
    ---------------------

    Doubly Occupied:

       1A    -20.510939     2A    -15.583797     3A    -11.349629
       4A    -11.265755     5A    -11.254857     6A    -11.251981
       7A    -11.246391     8A    -11.245090     9A    -11.242745
      10A    -11.239183    11A    -11.237059    12A    -11.232782
      13A    -11.228826    14A    -11.225332    15A    -11.220456
      16A     -1.367221    17A     -1.251450    18A     -1.161565
      19A     -1.085544    20A     -1.051003    21A     -1.040166
      22A     -1.025269    23A     -0.943727    24A     -0.920303
      25A     -0.865553    26A     -0.843366    27A     -0.815104
      28A     -0.790314    29A     -0.743307    30A     -0.713386
      31A     -0.667668    32A     -0.653452    33A     -0.649499
      34A     -0.627884    35A     -0.620395    36A     -0.615539
      37A     -0.595843    38A     -0.587657    39A     -0.575718
      40A     -0.571463    41A     -0.561062    42A     -0.552721
      43A     -0.542173    44A     -0.525511    45A     -0.509153
      46A     -0.498520    47A     -0.490977    48A     -0.489791
      49A     -0.480498    50A     -0.466484    51A     -0.456753
      52A     -0.417157    53A     -0.368058    54A     -0.340139
      55A     -0.330110

  @DF-RHF Final Energy:  -631.72718958926441

   => Energetics <=

    Nuclear Repulsion Energy =           1000.9174134920807546
    One-Electron Energy =               -2844.9965620207649408
    Two-Electron Energy =                1212.3519589394197737
    Total Energy =                       -631.7271895892642988
  Basis Set: (AUG-CC-PVTZ AUX)
    Blend: AUG-CC-PVTZ-RI
    Molecular point group: c1

    Geometry (in Angstrom), charge = 0, multiplicity = 1:

       Center              X                  Y                   Z               Mass
    ------------   -----------------  -----------------  -----------------  -----------------
         O            0.057790587144     1.934136890913    -1.184590924990    15.994914619570
         N            1.257355587144     0.446513890913     0.083957075010    14.003074004430
         C            3.728463587144    -0.967334109087     0.431558075010    12.000000000000
         C            3.581082587144     0.152938890913    -0.598763924990    12.000000000000
         C            2.360754987144    -1.586753909087     0.722063275010    12.000000000000
         C            2.511062587144     1.151341890913    -0.166824924990    12.000000000000
         C            1.338335587144    -0.592372109087     1.104841075010    12.000000000000
         C            0.099587587144     0.912481890913    -0.485471924990    12.000000000000
         C           -1.133963412856     0.085700890913    -0.270313924990    12.000000000000
         C           -2.235533412856     0.639295890913     0.407788075010    12.000000000000
         C           -1.215417412856    -1.188020109087    -0.846268924990    12.000000000000
         C           -3.398557412856    -0.131722109087     0.512244075010    12.000000000000
         C           -2.159721412856     2.020500890913     1.005256075010    12.000000000000
         C           -2.389788412856    -1.934551109087    -0.743240924990    12.000000000000
         C           -3.483600412856    -1.403852109087    -0.058607924990    12.000000000000
         H            4.459957587144    -1.709177109087     0.091459075010     1.007825032230
         H            4.117865587144    -0.545642109087     1.368549075010     1.007825032230
         H            4.534685587144     0.675611890913    -0.741026924990     1.007825032230
         H            3.292624587144    -0.269295109087    -1.569077924990     1.007825032230
         H            2.030057587144    -2.156163109087    -0.190948924990     1.007825032230
         H            2.473607587144    -2.381547109087     1.505786075010     1.007825032230
         H            2.823736587144     1.668432890913     0.753462075010     1.007825032230
         H            2.314050587144     1.905704890913    -0.929744924990     1.007825032230
         H            0.353815587144    -1.040693109087     1.241352075010     1.007825032230
         H            1.630276587144    -0.124874109087     2.058943075010     1.007825032230
         H           -0.356314412856    -1.586396109087    -1.383739924990     1.007825032230
         H           -4.257506412856     0.276539890913     1.042382075010     1.007825032230
         H           -1.978468412856     2.765183890913     0.226476075010     1.007825032230
         H           -3.089998412856     2.266281890913     1.524517075010     1.007825032230
         H           -1.337614412856     2.097308890913     1.725006075010     1.007825032230
         H           -2.450849412856    -2.920520109087    -1.197774924990     1.007825032230
         H           -4.403063412856    -1.977615109087     0.031571075010     1.007825032230

  Basis Set: AUG-CC-PVTZ
    Blend: AUG-CC-PVTZ
  Basis Set: (AUG-CC-PVTZ AUX)
    Blend: AUG-CC-PVTZ-JKFIT
	 Reference Energy          =    -631.7271895892644125 [Eh]
	 Singles Energy            =      -0.0000000000000000 [Eh]
	 Same-Spin Energy          =      -0.6894295174765288 [Eh]
	 Opposite-Spin Energy      =      -2.2126936651343247 [Eh]
	 Correlation Energy        =      -2.9021231826108536 [Eh]
	 Total Energy              =    -634.6293127718752203 [Eh]

	 ================> DF-SCS-MP2 Energies <==================
	-----------------------------------------------------------
	 SCS Same-Spin Scale       =       0.3333333333333333 [-]
	 SCS Opposite-Spin Scale   =       1.2000000000000000 [-]
	 SCS Same-Spin Energy      =      -0.2298098391588429 [Eh]
	 SCS Opposite-Spin Energy  =      -2.6552323981611896 [Eh]
	 SCS Correlation Energy    =      -2.8850422373200324 [Eh]
	 SCS Total Energy          =    -634.6122318265844342 [Eh]
	-----------------------------------------------------------

  Dipole Moment: [D]
     X:     1.4044      Y:    -2.5107      Z:     2.3056     Total:     3.6866

*** Psi4 exiting successfully. Buy a developer a beer!
