                               Psi4 1.4a3.dev225

  ==> Input File <==

--------------------------------------------------------------------------
#psi4
#
memory 32 gb

molecule  {
0 1
  O        0.0109280     1.9504830    -1.2088660
  N        1.2110864     0.4464788     0.0114311
  C        3.6816010    -0.9509880     0.4072830
  C        3.5342200     0.1692850    -0.6230390
  C        2.3335540    -1.6180450     0.6838790
  C        2.4642000     1.1676880    -0.1911000
  C        1.2914730    -0.5760260     1.0805660
  C        0.0527250     0.9288280    -0.5097470
  C       -1.1808260     0.1020470    -0.2945890
  C       -2.2823960     0.6556420     0.3835130
  C       -1.2622800    -1.1716740    -0.8705440
  C       -3.4454200    -0.1153760     0.4879690
  C       -2.2065840     2.0368470     0.9809810
  C       -2.4366510    -1.9182050    -0.7675160
  C       -3.5304630    -1.3875060    -0.0828830
  H        4.4130950    -1.6928310     0.0671840
  H        4.0710030    -0.5292960     1.3442740
  H        4.4878230     0.6919580    -0.7653020
  H        3.2457620    -0.2529490    -1.5933530
  H        1.9831950    -2.1398170    -0.2152240
  H        2.4267450    -2.3652010     1.4815110
  H        2.7768740     1.6847790     0.7291870
  H        2.2671880     1.9220510    -0.9540200
  H        0.3069530    -1.0243470     1.2170770
  H        1.5834140    -0.1085280     2.0346680
  H       -0.4031770    -1.5700500    -1.4080150
  H       -4.3043690     0.2928860     1.0181070
  H       -2.0253310     2.7815300     0.2022010
  H       -3.1368610     2.2826280     1.5002420
  H       -1.3844770     2.1136550     1.7007310
  H       -2.4977120    -2.9041740    -1.2220500
  H       -4.4499260    -1.9612690     0.0072960
units angstrom
no_reorient  #important for SAPT in psi4, default
symmetry c1  #important for SAPT in psi4, default
}

set PROPERTIES_ORIGIN ["COM"]
properties('MP2/aug-cc-pvtz', properties = ['dipole'])
--------------------------------------------------------------------------

    Molecular point group: c1
  Charge       = 0
  Multiplicity = 1
  Basis Set: AUG-CC-PVTZ
    Blend: AUG-CC-PVTZ
  Basis Set: (AUG-CC-PVTZ AUX)
    Blend: AUG-CC-PVTZ-JKFIT

    Orbital Energies [Eh]
    ---------------------

    Doubly Occupied:

       1A    -20.508841     2A    -15.584666     3A    -11.347132
       4A    -11.269306     5A    -11.254823     6A    -11.251590
       7A    -11.246024     8A    -11.244707     9A    -11.242448
      10A    -11.238911    11A    -11.236767    12A    -11.230940
      13A    -11.228413    14A    -11.225324    15A    -11.220301
      16A     -1.367085    17A     -1.247716    18A     -1.161183
      19A     -1.084550    20A     -1.050658    21A     -1.037361
      22A     -1.022138    23A     -0.943396    24A     -0.920404
      25A     -0.866200    26A     -0.842949    27A     -0.814455
      28A     -0.790448    29A     -0.744051    30A     -0.712738
      31A     -0.666340    32A     -0.652817    33A     -0.648435
      34A     -0.629185    35A     -0.619360    36A     -0.613605
      37A     -0.596109    38A     -0.588718    39A     -0.575243
      40A     -0.571973    41A     -0.557001    42A     -0.547091
      43A     -0.540835    44A     -0.526802    45A     -0.507506
      46A     -0.502744    47A     -0.491491    48A     -0.489245
      49A     -0.477872    50A     -0.470016    51A     -0.459249
      52A     -0.416493    53A     -0.369218    54A     -0.339697
      55A     -0.329765

  @DF-RHF Final Energy:  -631.72988407763694

   => Energetics <=

    Nuclear Repulsion Energy =           1000.0841943290477047
    One-Electron Energy =               -2843.3834825546296088
    Two-Electron Energy =                1211.5694041479450789
    Total Energy =                       -631.7298840776368252
  Basis Set: (AUG-CC-PVTZ AUX)
    Blend: AUG-CC-PVTZ-RI
    Molecular point group: c1

    Geometry (in Angstrom), charge = 0, multiplicity = 1:

       Center              X                  Y                   Z               Mass
    ------------   -----------------  -----------------  -----------------  -----------------
         O            0.056588167981     1.938080323968    -1.180443004364    15.994914619570
         N            1.256746567981     0.434076123968     0.039854095636    14.003074004430
         C            3.727261167981    -0.963390676032     0.435705995636    12.000000000000
         C            3.579880167981     0.156882323968    -0.594616004364    12.000000000000
         C            2.379214167981    -1.630447676032     0.712301995636    12.000000000000
         C            2.509860167981     1.155285323968    -0.162677004364    12.000000000000
         C            1.337133167981    -0.588428676032     1.108988995636    12.000000000000
         C            0.098385167981     0.916425323968    -0.481324004364    12.000000000000
         C           -1.135165832019     0.089644323968    -0.266166004364    12.000000000000
         C           -2.236735832019     0.643239323968     0.411935995636    12.000000000000
         C           -1.216619832019    -1.184076676032    -0.842121004364    12.000000000000
         C           -3.399759832019    -0.127778676032     0.516391995636    12.000000000000
         C           -2.160923832019     2.024444323968     1.009403995636    12.000000000000
         C           -2.390990832019    -1.930607676032    -0.739093004364    12.000000000000
         C           -3.484802832019    -1.399908676032    -0.054460004364    12.000000000000
         H            4.458755167981    -1.705233676032     0.095606995636     1.007825032230
         H            4.116663167981    -0.541698676032     1.372696995636     1.007825032230
         H            4.533483167981     0.679555323968    -0.736879004364     1.007825032230
         H            3.291422167981    -0.265351676032    -1.564930004364     1.007825032230
         H            2.028855167981    -2.152219676032    -0.186801004364     1.007825032230
         H            2.472405167981    -2.377603676032     1.509933995636     1.007825032230
         H            2.822534167981     1.672376323968     0.757609995636     1.007825032230
         H            2.312848167981     1.909648323968    -0.925597004364     1.007825032230
         H            0.352613167981    -1.036749676032     1.245499995636     1.007825032230
         H            1.629074167981    -0.120930676032     2.063090995636     1.007825032230
         H           -0.357516832019    -1.582452676032    -1.379592004364     1.007825032230
         H           -4.258708832019     0.280483323968     1.046529995636     1.007825032230
         H           -1.979670832019     2.769127323968     0.230623995636     1.007825032230
         H           -3.091200832019     2.270225323968     1.528664995636     1.007825032230
         H           -1.338816832019     2.101252323968     1.729153995636     1.007825032230
         H           -2.452051832019    -2.916576676032    -1.193627004364     1.007825032230
         H           -4.404265832019    -1.973671676032     0.035718995636     1.007825032230

  Basis Set: AUG-CC-PVTZ
    Blend: AUG-CC-PVTZ
  Basis Set: (AUG-CC-PVTZ AUX)
    Blend: AUG-CC-PVTZ-JKFIT
	 Reference Energy          =    -631.7298840776369389 [Eh]
	 Singles Energy            =      -0.0000000000000000 [Eh]
	 Same-Spin Energy          =      -0.6888722456009357 [Eh]
	 Opposite-Spin Energy      =      -2.2121947006140417 [Eh]
	 Correlation Energy        =      -2.9010669462149776 [Eh]
	 Total Energy              =    -634.6309510238519351 [Eh]

	 ================> DF-SCS-MP2 Energies <==================
	-----------------------------------------------------------
	 SCS Same-Spin Scale       =       0.3333333333333333 [-]
	 SCS Opposite-Spin Scale   =       1.2000000000000000 [-]
	 SCS Same-Spin Energy      =      -0.2296240818669786 [Eh]
	 SCS Opposite-Spin Energy  =      -2.6546336407368498 [Eh]
	 SCS Correlation Energy    =      -2.8842577226038282 [Eh]
	 SCS Total Energy          =    -634.6141418002407590 [Eh]
	-----------------------------------------------------------

  Dipole Moment: [D]
     X:     1.4245      Y:    -2.5172      Z:     2.3841     Total:     3.7483

*** Psi4 exiting successfully. Buy a developer a beer!
