                               Psi4 1.4a3.dev225

  ==> Input File <==

--------------------------------------------------------------------------
#psi4
#
memory 32 gb

molecule  {
0 1
  O        0.0109280     1.9504830    -1.2088660
  N        1.2104930     0.4628600     0.0596820
  C        3.6816010    -0.9509880     0.4072830
  C        3.5342200     0.1692850    -0.6230390
  C        2.3335540    -1.6180450     0.6838790
  C        2.4642000     1.1676880    -0.1911000
  C        1.2914730    -0.5760260     1.0805660
  C        0.0527250     0.9288280    -0.5097470
  C       -1.1808260     0.1020470    -0.2945890
  C       -2.2823960     0.6556420     0.3835130
  C       -1.2622800    -1.1716740    -0.8705440
  C       -3.4869777    -0.1429264     0.4917015
  C       -2.2065840     2.0368470     0.9809810
  C       -2.4366510    -1.9182050    -0.7675160
  C       -3.5304630    -1.3875060    -0.0828830
  H        4.4130950    -1.6928310     0.0671840
  H        4.0710030    -0.5292960     1.3442740
  H        4.4878230     0.6919580    -0.7653020
  H        3.2457620    -0.2529490    -1.5933530
  H        1.9831950    -2.1398170    -0.2152240
  H        2.4267450    -2.3652010     1.4815110
  H        2.7768740     1.6847790     0.7291870
  H        2.2671880     1.9220510    -0.9540200
  H        0.3069530    -1.0243470     1.2170770
  H        1.5834140    -0.1085280     2.0346680
  H       -0.4031770    -1.5700500    -1.4080150
  H       -4.3043690     0.2928860     1.0181070
  H       -2.0253310     2.7815300     0.2022010
  H       -3.1368610     2.2826280     1.5002420
  H       -1.3844770     2.1136550     1.7007310
  H       -2.4977120    -2.9041740    -1.2220500
  H       -4.4499260    -1.9612690     0.0072960
units angstrom
no_reorient  #important for SAPT in psi4, default
symmetry c1  #important for SAPT in psi4, default
}

set PROPERTIES_ORIGIN ["COM"]
properties('MP2/aug-cc-pvtz', properties = ['dipole'])
--------------------------------------------------------------------------

    Molecular point group: c1
  Charge       = 0
  Multiplicity = 1
  Basis Set: AUG-CC-PVTZ
    Blend: AUG-CC-PVTZ
  Basis Set: (AUG-CC-PVTZ AUX)
    Blend: AUG-CC-PVTZ-JKFIT

    Orbital Energies [Eh]
    ---------------------

    Doubly Occupied:

       1A    -20.510679     2A    -15.583814     3A    -11.349314
       4A    -11.267083     5A    -11.257407     6A    -11.254596
       7A    -11.246498     8A    -11.244299     9A    -11.240274
      10A    -11.238751    11A    -11.237540    12A    -11.230588
      13A    -11.228284    14A    -11.225640    15A    -11.221155
      16A     -1.366877    17A     -1.249526    18A     -1.158803
      19A     -1.083667    20A     -1.049528    21A     -1.037117
      22A     -1.024567    23A     -0.944359    24A     -0.917778
      25A     -0.866660    26A     -0.842034    27A     -0.817159
      28A     -0.789955    29A     -0.742892    30A     -0.713283
      31A     -0.666288    32A     -0.652981    33A     -0.647666
      34A     -0.627865    35A     -0.623377    36A     -0.614738
      37A     -0.598351    38A     -0.587970    39A     -0.574966
      40A     -0.571283    41A     -0.559925    42A     -0.547656
      43A     -0.543567    44A     -0.524950    45A     -0.504173
      46A     -0.500956    47A     -0.493530    48A     -0.489826
      49A     -0.478803    50A     -0.469587    51A     -0.461511
      52A     -0.416304    53A     -0.366182    54A     -0.343102
      55A     -0.325137

  @DF-RHF Final Energy:  -631.72766780975280

   => Energetics <=

    Nuclear Repulsion Energy =            999.1803412461200651
    One-Electron Energy =               -2841.5543775502596873
    Two-Electron Energy =                1210.6463684943869339
    Total Energy =                       -631.7276678097528020
  Basis Set: (AUG-CC-PVTZ AUX)
    Blend: AUG-CC-PVTZ-RI
    Molecular point group: c1

    Geometry (in Angstrom), charge = 0, multiplicity = 1:

       Center              X                  Y                   Z               Mass
    ------------   -----------------  -----------------  -----------------  -----------------
         O            0.059084103061     1.938578611463    -1.183989734667    15.994914619570
         N            1.258649103061     0.450955611463     0.084558265333    14.003074004430
         C            3.729757103061    -0.962892388537     0.432159265333    12.000000000000
         C            3.582376103061     0.157380611463    -0.598162734667    12.000000000000
         C            2.381710103061    -1.629949388537     0.708755265333    12.000000000000
         C            2.512356103061     1.155783611463    -0.166223734667    12.000000000000
         C            1.339629103061    -0.587930388537     1.105442265333    12.000000000000
         C            0.100881103061     0.916923611463    -0.484870734667    12.000000000000
         C           -1.132669896939     0.090142611463    -0.269712734667    12.000000000000
         C           -2.234239896939     0.643737611463     0.408389265333    12.000000000000
         C           -1.214123896939    -1.183578388537    -0.845667734667    12.000000000000
         C           -3.438821596939    -0.154830788537     0.516577765333    12.000000000000
         C           -2.158427896939     2.024942611463     1.005857265333    12.000000000000
         C           -2.388494896939    -1.930109388537    -0.742639734667    12.000000000000
         C           -3.482306896939    -1.399410388537    -0.058006734667    12.000000000000
         H            4.461251103061    -1.704735388537     0.092060265333     1.007825032230
         H            4.119159103061    -0.541200388537     1.369150265333     1.007825032230
         H            4.535979103061     0.680053611463    -0.740425734667     1.007825032230
         H            3.293918103061    -0.264853388537    -1.568476734667     1.007825032230
         H            2.031351103061    -2.151721388537    -0.190347734667     1.007825032230
         H            2.474901103061    -2.377105388537     1.506387265333     1.007825032230
         H            2.825030103061     1.672874611463     0.754063265333     1.007825032230
         H            2.315344103061     1.910146611463    -0.929143734667     1.007825032230
         H            0.355109103061    -1.036251388537     1.241953265333     1.007825032230
         H            1.631570103061    -0.120432388537     2.059544265333     1.007825032230
         H           -0.355020896939    -1.581954388537    -1.383138734667     1.007825032230
         H           -4.256212896939     0.280981611463     1.042983265333     1.007825032230
         H           -1.977174896939     2.769625611463     0.227077265333     1.007825032230
         H           -3.088704896939     2.270723611463     1.525118265333     1.007825032230
         H           -1.336320896939     2.101750611463     1.725607265333     1.007825032230
         H           -2.449555896939    -2.916078388537    -1.197173734667     1.007825032230
         H           -4.401769896939    -1.973173388537     0.032172265333     1.007825032230

  Basis Set: AUG-CC-PVTZ
    Blend: AUG-CC-PVTZ
  Basis Set: (AUG-CC-PVTZ AUX)
    Blend: AUG-CC-PVTZ-JKFIT
	 Reference Energy          =    -631.7276678097528020 [Eh]
	 Singles Energy            =      -0.0000000000000000 [Eh]
	 Same-Spin Energy          =      -0.6889277609797668 [Eh]
	 Opposite-Spin Energy      =      -2.2123352182951854 [Eh]
	 Correlation Energy        =      -2.9012629792749522 [Eh]
	 Total Energy              =    -634.6289307890277769 [Eh]

	 ================> DF-SCS-MP2 Energies <==================
	-----------------------------------------------------------
	 SCS Same-Spin Scale       =       0.3333333333333333 [-]
	 SCS Opposite-Spin Scale   =       1.2000000000000000 [-]
	 SCS Same-Spin Energy      =      -0.2296425869932556 [Eh]
	 SCS Opposite-Spin Energy  =      -2.6548022619542224 [Eh]
	 SCS Correlation Energy    =      -2.8844448489474779 [Eh]
	 SCS Total Energy          =    -634.6121126587003118 [Eh]
	-----------------------------------------------------------

  Dipole Moment: [D]
     X:     1.3984      Y:    -2.4914      Z:     2.3192     Total:     3.6799

*** Psi4 exiting successfully. Buy a developer a beer!
