                               Psi4 1.4a3.dev225

  ==> Input File <==

--------------------------------------------------------------------------
#psi4
#
memory 32 gb

molecule  {
0 1
  O        0.0109280     1.9504830    -1.2088660
  N        1.2104930     0.4628600     0.0596820
  C        3.6816010    -0.9509880     0.4072830
  C        3.5342200     0.1692850    -0.6230390
  C        2.3335540    -1.6180450     0.6838790
  C        2.4642000     1.1676880    -0.1911000
  C        1.2970242    -0.6472420     1.1505479
  C        0.0527250     0.9288280    -0.5097470
  C       -1.1808260     0.1020470    -0.2945890
  C       -2.2823960     0.6556420     0.3835130
  C       -1.2622800    -1.1716740    -0.8705440
  C       -3.4454200    -0.1153760     0.4879690
  C       -2.2065840     2.0368470     0.9809810
  C       -2.4366510    -1.9182050    -0.7675160
  C       -3.5304630    -1.3875060    -0.0828830
  H        4.4130950    -1.6928310     0.0671840
  H        4.0710030    -0.5292960     1.3442740
  H        4.4878230     0.6919580    -0.7653020
  H        3.2457620    -0.2529490    -1.5933530
  H        1.9831950    -2.1398170    -0.2152240
  H        2.4267450    -2.3652010     1.4815110
  H        2.7768740     1.6847790     0.7291870
  H        2.2671880     1.9220510    -0.9540200
  H        0.3069530    -1.0243470     1.2170770
  H        1.5834140    -0.1085280     2.0346680
  H       -0.4031770    -1.5700500    -1.4080150
  H       -4.3043690     0.2928860     1.0181070
  H       -2.0253310     2.7815300     0.2022010
  H       -3.1368610     2.2826280     1.5002420
  H       -1.3844770     2.1136550     1.7007310
  H       -2.4977120    -2.9041740    -1.2220500
  H       -4.4499260    -1.9612690     0.0072960
units angstrom
no_reorient  #important for SAPT in psi4, default
symmetry c1  #important for SAPT in psi4, default
}

set PROPERTIES_ORIGIN ["COM"]
properties('MP2/aug-cc-pvtz', properties = ['dipole'])
--------------------------------------------------------------------------

    Molecular point group: c1
  Charge       = 0
  Multiplicity = 1
  Basis Set: AUG-CC-PVTZ
    Blend: AUG-CC-PVTZ
  Basis Set: (AUG-CC-PVTZ AUX)
    Blend: AUG-CC-PVTZ-JKFIT

    Orbital Energies [Eh]
    ---------------------

    Doubly Occupied:

       1A    -20.506223     2A    -15.579102     3A    -11.344975
       4A    -11.271293     5A    -11.252014     6A    -11.250980
       7A    -11.245416     8A    -11.243778     9A    -11.242035
      10A    -11.238603    11A    -11.236404    12A    -11.232863
      13A    -11.230618    14A    -11.224934    15A    -11.219471
      16A     -1.361483    17A     -1.231488    18A     -1.160466
      19A     -1.085206    20A     -1.050216    21A     -1.039594
      22A     -1.022879    23A     -0.942090    24A     -0.919131
      25A     -0.866722    26A     -0.841515    27A     -0.813510
      28A     -0.789979    29A     -0.739197    30A     -0.707780
      31A     -0.667007    32A     -0.651573    33A     -0.647123
      34A     -0.629145    35A     -0.620939    36A     -0.611932
      37A     -0.597135    38A     -0.589327    39A     -0.574583
      40A     -0.570751    41A     -0.555366    42A     -0.548552
      43A     -0.538377    44A     -0.526984    45A     -0.511710
      46A     -0.502582    47A     -0.490820    48A     -0.489767
      49A     -0.479263    50A     -0.473509    51A     -0.454307
      52A     -0.413273    53A     -0.365205    54A     -0.339725
      55A     -0.329283

  @DF-RHF Final Energy:  -631.72259419563989

   => Energetics <=

    Nuclear Repulsion Energy =            998.1928398132272378
    One-Electron Energy =               -2839.6944572573684127
    Two-Electron Energy =                1209.7790232485012893
    Total Energy =                       -631.7225941956398856
  Basis Set: (AUG-CC-PVTZ AUX)
    Blend: AUG-CC-PVTZ-RI
    Molecular point group: c1

    Geometry (in Angstrom), charge = 0, multiplicity = 1:

       Center              X                  Y                   Z               Mass
    ------------   -----------------  -----------------  -----------------  -----------------
         O            0.056301136598     1.941158164379    -1.187903429497    15.994914619570
         N            1.255866136598     0.453535164379     0.080644570503    14.003074004430
         C            3.726974136598    -0.960312835621     0.428245570503    12.000000000000
         C            3.579593136598     0.159960164379    -0.602076429497    12.000000000000
         C            2.378927136598    -1.627369835621     0.704841570503    12.000000000000
         C            2.509573136598     1.158363164379    -0.170137429497    12.000000000000
         C            1.342397336598    -0.656566835621     1.171510470503    12.000000000000
         C            0.098098136598     0.919503164379    -0.488784429497    12.000000000000
         C           -1.135452863402     0.092722164379    -0.273626429497    12.000000000000
         C           -2.237022863402     0.646317164379     0.404475570503    12.000000000000
         C           -1.216906863402    -1.180998835621    -0.849581429497    12.000000000000
         C           -3.400046863402    -0.124700835621     0.508931570503    12.000000000000
         C           -2.161210863402     2.027522164379     1.001943570503    12.000000000000
         C           -2.391277863402    -1.927529835621    -0.746553429497    12.000000000000
         C           -3.485089863402    -1.396830835621    -0.061920429497    12.000000000000
         H            4.458468136598    -1.702155835621     0.088146570503     1.007825032230
         H            4.116376136598    -0.538620835621     1.365236570503     1.007825032230
         H            4.533196136598     0.682633164379    -0.744339429497     1.007825032230
         H            3.291135136598    -0.262273835621    -1.572390429497     1.007825032230
         H            2.028568136598    -2.149141835621    -0.194261429497     1.007825032230
         H            2.472118136598    -2.374525835621     1.502473570503     1.007825032230
         H            2.822247136598     1.675454164379     0.750149570503     1.007825032230
         H            2.312561136598     1.912726164379    -0.933057429497     1.007825032230
         H            0.352326136598    -1.033671835621     1.238039570503     1.007825032230
         H            1.628787136598    -0.117852835621     2.055630570503     1.007825032230
         H           -0.357803863402    -1.579374835621    -1.387052429497     1.007825032230
         H           -4.258995863402     0.283561164379     1.039069570503     1.007825032230
         H           -1.979957863402     2.772205164379     0.223163570503     1.007825032230
         H           -3.091487863402     2.273303164379     1.521204570503     1.007825032230
         H           -1.339103863402     2.104330164379     1.721693570503     1.007825032230
         H           -2.452338863402    -2.913498835621    -1.201087429497     1.007825032230
         H           -4.404552863402    -1.970593835621     0.028258570503     1.007825032230

  Basis Set: AUG-CC-PVTZ
    Blend: AUG-CC-PVTZ
  Basis Set: (AUG-CC-PVTZ AUX)
    Blend: AUG-CC-PVTZ-JKFIT
	 Reference Energy          =    -631.7225941956398856 [Eh]
	 Singles Energy            =      -0.0000000000000000 [Eh]
	 Same-Spin Energy          =      -0.6888904721953649 [Eh]
	 Opposite-Spin Energy      =      -2.2128148400294085 [Eh]
	 Correlation Energy        =      -2.9017053122247733 [Eh]
	 Total Energy              =    -634.6242995078646345 [Eh]

	 ================> DF-SCS-MP2 Energies <==================
	-----------------------------------------------------------
	 SCS Same-Spin Scale       =       0.3333333333333333 [-]
	 SCS Opposite-Spin Scale   =       1.2000000000000000 [-]
	 SCS Same-Spin Energy      =      -0.2296301573984550 [Eh]
	 SCS Opposite-Spin Energy  =      -2.6553778080352903 [Eh]
	 SCS Correlation Energy    =      -2.8850079654337453 [Eh]
	 SCS Total Energy          =    -634.6076021610736007 [Eh]
	-----------------------------------------------------------

  Dipole Moment: [D]
     X:     1.5364      Y:    -2.6892      Z:     2.4878     Total:     3.9727

*** Psi4 exiting successfully. Buy a developer a beer!
