                               Psi4 1.4a3.dev225

  ==> Input File <==

--------------------------------------------------------------------------
#psi4
#
memory 32 gb

molecule  {
0 1
  O        0.0109280     1.9504830    -1.2088660
  N        1.2104930     0.4628600     0.0596820
  C        3.6816010    -0.9509880     0.4072830
  C        3.5342200     0.1692850    -0.6230390
  C        2.3335540    -1.6180450     0.6838790
  C        2.4642000     1.1676880    -0.1911000
  C        1.2914730    -0.5760260     1.0805660
  C        0.0527250     0.9288280    -0.5097470
  C       -1.1808260     0.1020470    -0.2945890
  C       -2.2823960     0.6556420     0.3835130
  C       -1.2622800    -1.1716740    -0.8705440
  C       -3.5372255    -0.1267953     0.5187662
  C       -2.2065840     2.0368470     0.9809810
  C       -2.4366510    -1.9182050    -0.7675160
  C       -3.5304630    -1.3875060    -0.0828830
  H        4.4130950    -1.6928310     0.0671840
  H        4.0710030    -0.5292960     1.3442740
  H        4.4878230     0.6919580    -0.7653020
  H        3.2457620    -0.2529490    -1.5933530
  H        1.9831950    -2.1398170    -0.2152240
  H        2.4267450    -2.3652010     1.4815110
  H        2.7768740     1.6847790     0.7291870
  H        2.2671880     1.9220510    -0.9540200
  H        0.3069530    -1.0243470     1.2170770
  H        1.5834140    -0.1085280     2.0346680
  H       -0.4031770    -1.5700500    -1.4080150
  H       -4.3043690     0.2928860     1.0181070
  H       -2.0253310     2.7815300     0.2022010
  H       -3.1368610     2.2826280     1.5002420
  H       -1.3844770     2.1136550     1.7007310
  H       -2.4977120    -2.9041740    -1.2220500
  H       -4.4499260    -1.9612690     0.0072960
units angstrom
no_reorient  #important for SAPT in psi4, default
symmetry c1  #important for SAPT in psi4, default
}

set PROPERTIES_ORIGIN ["COM"]
properties('MP2/aug-cc-pvtz', properties = ['dipole'])
--------------------------------------------------------------------------

    Molecular point group: c1
  Charge       = 0
  Multiplicity = 1
  Basis Set: AUG-CC-PVTZ
    Blend: AUG-CC-PVTZ
  Basis Set: (AUG-CC-PVTZ AUX)
    Blend: AUG-CC-PVTZ-JKFIT

    Orbital Energies [Eh]
    ---------------------

    Doubly Occupied:

       1A    -20.510691     2A    -15.583916     3A    -11.349619
       4A    -11.267117     5A    -11.261571     6A    -11.254658
       7A    -11.248043     8A    -11.244214     9A    -11.243966
      10A    -11.239461    11A    -11.239007    12A    -11.230653
      13A    -11.228331    14A    -11.225691    15A    -11.220371
      16A     -1.366913    17A     -1.249594    18A     -1.154228
      19A     -1.083528    20A     -1.047865    21A     -1.036556
      22A     -1.024063    23A     -0.944004    24A     -0.917079
      25A     -0.866375    26A     -0.844120    27A     -0.818032
      28A     -0.787923    29A     -0.744786    30A     -0.715844
      31A     -0.664594    32A     -0.652926    33A     -0.645896
      34A     -0.633398    35A     -0.625903    36A     -0.614709
      37A     -0.600278    38A     -0.587997    39A     -0.575158
      40A     -0.570409    41A     -0.560430    42A     -0.549387
      43A     -0.543515    44A     -0.524990    45A     -0.505369
      46A     -0.498290    47A     -0.492139    48A     -0.486585
      49A     -0.478321    50A     -0.469593    51A     -0.461453
      52A     -0.415934    53A     -0.366203    54A     -0.341401
      55A     -0.323079

  @DF-RHF Final Energy:  -631.71779909302859

   => Energetics <=

    Nuclear Repulsion Energy =            997.9450701705354732
    One-Electron Energy =               -2839.0533874861739605
    Two-Electron Energy =                1209.3905182226098987
    Total Energy =                       -631.7177990930285887
  Basis Set: (AUG-CC-PVTZ AUX)
    Blend: AUG-CC-PVTZ-RI
    Molecular point group: c1

    Geometry (in Angstrom), charge = 0, multiplicity = 1:

       Center              X                  Y                   Z               Mass
    ------------   -----------------  -----------------  -----------------  -----------------
         O            0.062052500587     1.937625663924    -1.185588586528    15.994914619570
         N            1.261617500587     0.450002663924     0.082959413472    14.003074004430
         C            3.732725500587    -0.963845336076     0.430560413472    12.000000000000
         C            3.585344500587     0.156427663924    -0.599761586528    12.000000000000
         C            2.384678500587    -1.630902336076     0.707156413472    12.000000000000
         C            2.515324500587     1.154830663924    -0.167822586528    12.000000000000
         C            1.342597500587    -0.588883336076     1.103843413472    12.000000000000
         C            0.103849500587     0.915970663924    -0.486469586528    12.000000000000
         C           -1.129701499413     0.089189663924    -0.271311586528    12.000000000000
         C           -2.231271499413     0.642784663924     0.406790413472    12.000000000000
         C           -1.211155499413    -1.184531336076    -0.847266586528    12.000000000000
         C           -3.486100999413    -0.139652636076     0.542043613472    12.000000000000
         C           -2.155459499413     2.023989663924     1.004258413472    12.000000000000
         C           -2.385526499413    -1.931062336076    -0.744238586528    12.000000000000
         C           -3.479338499413    -1.400363336076    -0.059605586528    12.000000000000
         H            4.464219500587    -1.705688336076     0.090461413472     1.007825032230
         H            4.122127500587    -0.542153336076     1.367551413472     1.007825032230
         H            4.538947500587     0.679100663924    -0.742024586528     1.007825032230
         H            3.296886500587    -0.265806336076    -1.570075586528     1.007825032230
         H            2.034319500587    -2.152674336076    -0.191946586528     1.007825032230
         H            2.477869500587    -2.378058336076     1.504788413472     1.007825032230
         H            2.827998500587     1.671921663924     0.752464413472     1.007825032230
         H            2.318312500587     1.909193663924    -0.930742586528     1.007825032230
         H            0.358077500587    -1.037204336076     1.240354413472     1.007825032230
         H            1.634538500587    -0.121385336076     2.057945413472     1.007825032230
         H           -0.352052499413    -1.582907336076    -1.384737586528     1.007825032230
         H           -4.253244499413     0.280028663924     1.041384413472     1.007825032230
         H           -1.974206499413     2.768672663924     0.225478413472     1.007825032230
         H           -3.085736499413     2.269770663924     1.523519413472     1.007825032230
         H           -1.333352499413     2.100797663924     1.724008413472     1.007825032230
         H           -2.446587499413    -2.917031336076    -1.198772586528     1.007825032230
         H           -4.398801499413    -1.974126336076     0.030573413472     1.007825032230

  Basis Set: AUG-CC-PVTZ
    Blend: AUG-CC-PVTZ
  Basis Set: (AUG-CC-PVTZ AUX)
    Blend: AUG-CC-PVTZ-JKFIT
	 Reference Energy          =    -631.7177990930285887 [Eh]
	 Singles Energy            =      -0.0000000000000000 [Eh]
	 Same-Spin Energy          =      -0.6889517788186688 [Eh]
	 Opposite-Spin Energy      =      -2.2130277282432465 [Eh]
	 Correlation Energy        =      -2.9019795070619150 [Eh]
	 Total Energy              =    -634.6197786000905126 [Eh]

	 ================> DF-SCS-MP2 Energies <==================
	-----------------------------------------------------------
	 SCS Same-Spin Scale       =       0.3333333333333333 [-]
	 SCS Opposite-Spin Scale   =       1.2000000000000000 [-]
	 SCS Same-Spin Energy      =      -0.2296505929395563 [Eh]
	 SCS Opposite-Spin Energy  =      -2.6556332738918957 [Eh]
	 SCS Correlation Energy    =      -2.8852838668314518 [Eh]
	 SCS Total Energy          =    -634.6030829598599894 [Eh]
	-----------------------------------------------------------

  Dipole Moment: [D]
     X:     1.4016      Y:    -2.4839      Z:     2.3236     Total:     3.6788

*** Psi4 exiting successfully. Buy a developer a beer!
