                               Psi4 1.4a3.dev225

  ==> Input File <==

--------------------------------------------------------------------------
#psi4
#
memory 32 gb

molecule  {
0 1
  O        0.0109280     1.9504830    -1.2088660
  N        1.2132065     0.4309762    -0.0370666
  C        3.6816010    -0.9509880     0.4072830
  C        3.5342200     0.1692850    -0.6230390
  C        2.3335540    -1.6180450     0.6838790
  C        2.4642000     1.1676880    -0.1911000
  C        1.2914730    -0.5760260     1.0805660
  C        0.0527250     0.9288280    -0.5097470
  C       -1.1808260     0.1020470    -0.2945890
  C       -2.2823960     0.6556420     0.3835130
  C       -1.2622800    -1.1716740    -0.8705440
  C       -3.4454200    -0.1153760     0.4879690
  C       -2.2065840     2.0368470     0.9809810
  C       -2.4366510    -1.9182050    -0.7675160
  C       -3.5304630    -1.3875060    -0.0828830
  H        4.4130950    -1.6928310     0.0671840
  H        4.0710030    -0.5292960     1.3442740
  H        4.4878230     0.6919580    -0.7653020
  H        3.2457620    -0.2529490    -1.5933530
  H        1.9831950    -2.1398170    -0.2152240
  H        2.4267450    -2.3652010     1.4815110
  H        2.7768740     1.6847790     0.7291870
  H        2.2671880     1.9220510    -0.9540200
  H        0.3069530    -1.0243470     1.2170770
  H        1.5834140    -0.1085280     2.0346680
  H       -0.4031770    -1.5700500    -1.4080150
  H       -4.3043690     0.2928860     1.0181070
  H       -2.0253310     2.7815300     0.2022010
  H       -3.1368610     2.2826280     1.5002420
  H       -1.3844770     2.1136550     1.7007310
  H       -2.4977120    -2.9041740    -1.2220500
  H       -4.4499260    -1.9612690     0.0072960
units angstrom
no_reorient  #important for SAPT in psi4, default
symmetry c1  #important for SAPT in psi4, default
}

set PROPERTIES_ORIGIN ["COM"]
properties('MP2/aug-cc-pvtz', properties = ['dipole'])
--------------------------------------------------------------------------

    Molecular point group: c1
  Charge       = 0
  Multiplicity = 1
  Basis Set: AUG-CC-PVTZ
    Blend: AUG-CC-PVTZ
  Basis Set: (AUG-CC-PVTZ AUX)
    Blend: AUG-CC-PVTZ-JKFIT

    Orbital Energies [Eh]
    ---------------------

    Doubly Occupied:

       1A    -20.507618     2A    -15.585211     3A    -11.345164
       4A    -11.271337     5A    -11.254867     6A    -11.251455
       7A    -11.245838     8A    -11.244558     9A    -11.242347
      10A    -11.238768    11A    -11.236644    12A    -11.231093
      13A    -11.228374    14A    -11.224814    15A    -11.220346
      16A     -1.367461    17A     -1.245528    18A     -1.161045
      19A     -1.085213    20A     -1.050610    21A     -1.037376
      22A     -1.021051    23A     -0.943548    24A     -0.921505
      25A     -0.865005    26A     -0.841769    27A     -0.813551
      28A     -0.789631    29A     -0.745274    30A     -0.712939
      31A     -0.666056    32A     -0.652824    33A     -0.648256
      34A     -0.630476    35A     -0.618631    36A     -0.611459
      37A     -0.595943    38A     -0.589067    39A     -0.574974
      40A     -0.572235    41A     -0.554116    42A     -0.546558
      43A     -0.539719    44A     -0.528710    45A     -0.507005
      46A     -0.503263    47A     -0.491521    48A     -0.489091
      49A     -0.477260    50A     -0.470096    51A     -0.456337
      52A     -0.416335    53A     -0.372235    54A     -0.339498
      55A     -0.329637

  @DF-RHF Final Energy:  -631.72685847989294

   => Energetics <=

    Nuclear Repulsion Energy =           1000.1182651631548879
    One-Electron Energy =               -2843.4677669931679702
    Two-Electron Energy =                1211.6226433501203701
    Total Energy =                       -631.7268584798928259
  Basis Set: (AUG-CC-PVTZ AUX)
    Blend: AUG-CC-PVTZ-RI
    Molecular point group: c1

    Geometry (in Angstrom), charge = 0, multiplicity = 1:

       Center              X                  Y                   Z               Mass
    ------------   -----------------  -----------------  -----------------  -----------------
         O            0.056442016408     1.939149013828    -1.177099758701    15.994914619570
         N            1.258720516408     0.419642213828    -0.005300358701    14.003074004430
         C            3.727115016408    -0.962321986172     0.439049241299    12.000000000000
         C            3.579734016408     0.157951013828    -0.591272758701    12.000000000000
         C            2.379068016408    -1.629378986172     0.715645241299    12.000000000000
         C            2.509714016408     1.156354013828    -0.159333758701    12.000000000000
         C            1.336987016408    -0.587359986172     1.112332241299    12.000000000000
         C            0.098239016408     0.917494013828    -0.477980758701    12.000000000000
         C           -1.135311983592     0.090713013828    -0.262822758701    12.000000000000
         C           -2.236881983592     0.644308013828     0.415279241299    12.000000000000
         C           -1.216765983592    -1.183007986172    -0.838777758701    12.000000000000
         C           -3.399905983592    -0.126709986172     0.519735241299    12.000000000000
         C           -2.161069983592     2.025513013828     1.012747241299    12.000000000000
         C           -2.391136983592    -1.929538986172    -0.735749758701    12.000000000000
         C           -3.484948983592    -1.398839986172    -0.051116758701    12.000000000000
         H            4.458609016408    -1.704164986172     0.098950241299     1.007825032230
         H            4.116517016408    -0.540629986172     1.376040241299     1.007825032230
         H            4.533337016408     0.680624013828    -0.733535758701     1.007825032230
         H            3.291276016408    -0.264282986172    -1.561586758701     1.007825032230
         H            2.028709016408    -2.151150986172    -0.183457758701     1.007825032230
         H            2.472259016408    -2.376534986172     1.513277241299     1.007825032230
         H            2.822388016408     1.673445013828     0.760953241299     1.007825032230
         H            2.312702016408     1.910717013828    -0.922253758701     1.007825032230
         H            0.352467016408    -1.035680986172     1.248843241299     1.007825032230
         H            1.628928016408    -0.119861986172     2.066434241299     1.007825032230
         H           -0.357662983592    -1.581383986172    -1.376248758701     1.007825032230
         H           -4.258854983592     0.281552013828     1.049873241299     1.007825032230
         H           -1.979816983592     2.770196013828     0.233967241299     1.007825032230
         H           -3.091346983592     2.271294013828     1.532008241299     1.007825032230
         H           -1.338962983592     2.102321013828     1.732497241299     1.007825032230
         H           -2.452197983592    -2.915507986172    -1.190283758701     1.007825032230
         H           -4.404411983592    -1.972602986172     0.039062241299     1.007825032230

  Basis Set: AUG-CC-PVTZ
    Blend: AUG-CC-PVTZ
  Basis Set: (AUG-CC-PVTZ AUX)
    Blend: AUG-CC-PVTZ-JKFIT
	 Reference Energy          =    -631.7268584798929396 [Eh]
	 Singles Energy            =      -0.0000000000000000 [Eh]
	 Same-Spin Energy          =      -0.6888209860868040 [Eh]
	 Opposite-Spin Energy      =      -2.2123757358665417 [Eh]
	 Correlation Energy        =      -2.9011967219533457 [Eh]
	 Total Energy              =    -634.6280552018463368 [Eh]

	 ================> DF-SCS-MP2 Energies <==================
	-----------------------------------------------------------
	 SCS Same-Spin Scale       =       0.3333333333333333 [-]
	 SCS Opposite-Spin Scale   =       1.2000000000000000 [-]
	 SCS Same-Spin Energy      =      -0.2296069953622680 [Eh]
	 SCS Opposite-Spin Energy  =      -2.6548508830398498 [Eh]
	 SCS Correlation Energy    =      -2.8844578784021180 [Eh]
	 SCS Total Energy          =    -634.6113163582950847 [Eh]
	-----------------------------------------------------------

  Dipole Moment: [D]
     X:     1.4215      Y:    -2.5050      Z:     2.4523     Total:     3.7828

*** Psi4 exiting successfully. Buy a developer a beer!
