                               Psi4 1.4a3.dev225

  ==> Input File <==

--------------------------------------------------------------------------
#psi4
#
memory 32 gb

molecule  {
0 1
  O        0.0109280     1.9504830    -1.2088660
  N        1.2104930     0.4628600     0.0596820
  C        3.6816010    -0.9509880     0.4072830
  C        3.5342200     0.1692850    -0.6230390
  C        2.3335540    -1.6180450     0.6838790
  C        2.4642000     1.1676880    -0.1911000
  C        1.2914730    -0.5760260     1.0805660
  C        0.0527250     0.9288280    -0.5097470
  C       -1.1808260     0.1020470    -0.2945890
  C       -2.2335629     0.6619582     0.3650301
  C       -1.2622800    -1.1716740    -0.8705440
  C       -3.4454200    -0.1153760     0.4879690
  C       -2.2065840     2.0368470     0.9809810
  C       -2.4366510    -1.9182050    -0.7675160
  C       -3.5304630    -1.3875060    -0.0828830
  H        4.4130950    -1.6928310     0.0671840
  H        4.0710030    -0.5292960     1.3442740
  H        4.4878230     0.6919580    -0.7653020
  H        3.2457620    -0.2529490    -1.5933530
  H        1.9831950    -2.1398170    -0.2152240
  H        2.4267450    -2.3652010     1.4815110
  H        2.7768740     1.6847790     0.7291870
  H        2.2671880     1.9220510    -0.9540200
  H        0.3069530    -1.0243470     1.2170770
  H        1.5834140    -0.1085280     2.0346680
  H       -0.4031770    -1.5700500    -1.4080150
  H       -4.3043690     0.2928860     1.0181070
  H       -2.0253310     2.7815300     0.2022010
  H       -3.1368610     2.2826280     1.5002420
  H       -1.3844770     2.1136550     1.7007310
  H       -2.4977120    -2.9041740    -1.2220500
  H       -4.4499260    -1.9612690     0.0072960
units angstrom
no_reorient  #important for SAPT in psi4, default
symmetry c1  #important for SAPT in psi4, default
}

set PROPERTIES_ORIGIN ["COM"]
properties('MP2/aug-cc-pvtz', properties = ['dipole'])
--------------------------------------------------------------------------

    Molecular point group: c1
  Charge       = 0
  Multiplicity = 1
  Basis Set: AUG-CC-PVTZ
    Blend: AUG-CC-PVTZ
  Basis Set: (AUG-CC-PVTZ AUX)
    Blend: AUG-CC-PVTZ-JKFIT

    Orbital Energies [Eh]
    ---------------------

    Doubly Occupied:

       1A    -20.510648     2A    -15.583613     3A    -11.348549
       4A    -11.267250     5A    -11.254467     6A    -11.251724
       7A    -11.246128     8A    -11.242506     9A    -11.241236
      10A    -11.240546    11A    -11.239220    12A    -11.230627
      13A    -11.228287    14A    -11.225599    15A    -11.220596
      16A     -1.366961    17A     -1.249458    18A     -1.162329
      19A     -1.083500    20A     -1.053043    21A     -1.035511
      22A     -1.022382    23A     -0.942720    24A     -0.919024
      25A     -0.866746    26A     -0.843311    27A     -0.819706
      28A     -0.789091    29A     -0.742072    30A     -0.712311
      31A     -0.666635    32A     -0.653143    33A     -0.647945
      34A     -0.627824    35A     -0.620884    36A     -0.615399
      37A     -0.597365    38A     -0.588297    39A     -0.573446
      40A     -0.571700    41A     -0.561063    42A     -0.548066
      43A     -0.541795    44A     -0.525540    45A     -0.505794
      46A     -0.498138    47A     -0.496642    48A     -0.489457
      49A     -0.478603    50A     -0.469573    51A     -0.461457
      52A     -0.415482    53A     -0.366133    54A     -0.341314
      55A     -0.328954

  @DF-RHF Final Energy:  -631.72761446898687

   => Energetics <=

    Nuclear Repulsion Energy =           1000.5474079293443310
    One-Electron Energy =               -2844.2904192768437497
    Two-Electron Energy =                1212.0153968785125471
    Total Energy =                       -631.7276144689867579
  Basis Set: (AUG-CC-PVTZ AUX)
    Blend: AUG-CC-PVTZ-RI
    Molecular point group: c1

    Geometry (in Angstrom), charge = 0, multiplicity = 1:

       Center              X                  Y                   Z               Mass
    ------------   -----------------  -----------------  -----------------  -----------------
         O            0.053744250826     1.936577936176    -1.182677356047    15.994914619570
         N            1.253309250826     0.448954936176     0.085870643953    14.003074004430
         C            3.724417250826    -0.964893063824     0.433471643953    12.000000000000
         C            3.577036250826     0.155379936176    -0.596850356047    12.000000000000
         C            2.376370250826    -1.631950063824     0.710067643953    12.000000000000
         C            2.507016250826     1.153782936176    -0.164911356047    12.000000000000
         C            1.334289250826    -0.589931063824     1.106754643953    12.000000000000
         C            0.095541250826     0.914922936176    -0.483558356047    12.000000000000
         C           -1.138009749174     0.088141936176    -0.268400356047    12.000000000000
         C           -2.190746649174     0.648053136176     0.391218743953    12.000000000000
         C           -1.219463749174    -1.185579063824    -0.844355356047    12.000000000000
         C           -3.402603749174    -0.129281063824     0.514157643953    12.000000000000
         C           -2.163767749174     2.022941936176     1.007169643953    12.000000000000
         C           -2.393834749174    -1.932110063824    -0.741327356047    12.000000000000
         C           -3.487646749174    -1.401411063824    -0.056694356047    12.000000000000
         H            4.455911250826    -1.706736063824     0.093372643953     1.007825032230
         H            4.113819250826    -0.543201063824     1.370462643953     1.007825032230
         H            4.530639250826     0.678052936176    -0.739113356047     1.007825032230
         H            3.288578250826    -0.266854063824    -1.567164356047     1.007825032230
         H            2.026011250826    -2.153722063824    -0.189035356047     1.007825032230
         H            2.469561250826    -2.379106063824     1.507699643953     1.007825032230
         H            2.819690250826     1.670873936176     0.755375643953     1.007825032230
         H            2.310004250826     1.908145936176    -0.927831356047     1.007825032230
         H            0.349769250826    -1.038252063824     1.243265643953     1.007825032230
         H            1.626230250826    -0.122433063824     2.060856643953     1.007825032230
         H           -0.360360749174    -1.583955063824    -1.381826356047     1.007825032230
         H           -4.261552749174     0.278980936176     1.044295643953     1.007825032230
         H           -1.982514749174     2.767624936176     0.228389643953     1.007825032230
         H           -3.094044749174     2.268722936176     1.526430643953     1.007825032230
         H           -1.341660749174     2.099749936176     1.726919643953     1.007825032230
         H           -2.454895749174    -2.918079063824    -1.195861356047     1.007825032230
         H           -4.407109749174    -1.975174063824     0.033484643953     1.007825032230

  Basis Set: AUG-CC-PVTZ
    Blend: AUG-CC-PVTZ
  Basis Set: (AUG-CC-PVTZ AUX)
    Blend: AUG-CC-PVTZ-JKFIT
	 Reference Energy          =    -631.7276144689868715 [Eh]
	 Singles Energy            =      -0.0000000000000000 [Eh]
	 Same-Spin Energy          =      -0.6888965230179246 [Eh]
	 Opposite-Spin Energy      =      -2.2123052606557914 [Eh]
	 Correlation Energy        =      -2.9012017836737161 [Eh]
	 Total Energy              =    -634.6288162526606129 [Eh]

	 ================> DF-SCS-MP2 Energies <==================
	-----------------------------------------------------------
	 SCS Same-Spin Scale       =       0.3333333333333333 [-]
	 SCS Opposite-Spin Scale   =       1.2000000000000000 [-]
	 SCS Same-Spin Energy      =      -0.2296321743393082 [Eh]
	 SCS Opposite-Spin Energy  =      -2.6547663127869496 [Eh]
	 SCS Correlation Energy    =      -2.8843984871262580 [Eh]
	 SCS Total Energy          =    -634.6120129561131762 [Eh]
	-----------------------------------------------------------

  Dipole Moment: [D]
     X:     1.3819      Y:    -2.5156      Z:     2.3129     Total:     3.6861

*** Psi4 exiting successfully. Buy a developer a beer!
