                               Psi4 1.4a3.dev225

  ==> Input File <==

--------------------------------------------------------------------------
#psi4
#
memory 32 gb

molecule  {
0 1
  O        0.0109280     1.9504830    -1.2088660
  N        1.1984137     0.4441175     0.0684013
  C        3.6816010    -0.9509880     0.4072830
  C        3.5342200     0.1692850    -0.6230390
  C        2.3335540    -1.6180450     0.6838790
  C        2.4642000     1.1676880    -0.1911000
  C        1.2914730    -0.5760260     1.0805660
  C        0.0527250     0.9288280    -0.5097470
  C       -1.1808260     0.1020470    -0.2945890
  C       -2.2823960     0.6556420     0.3835130
  C       -1.2622800    -1.1716740    -0.8705440
  C       -3.4454200    -0.1153760     0.4879690
  C       -2.2065840     2.0368470     0.9809810
  C       -2.4366510    -1.9182050    -0.7675160
  C       -3.5304630    -1.3875060    -0.0828830
  H        4.4130950    -1.6928310     0.0671840
  H        4.0710030    -0.5292960     1.3442740
  H        4.4878230     0.6919580    -0.7653020
  H        3.2457620    -0.2529490    -1.5933530
  H        1.9831950    -2.1398170    -0.2152240
  H        2.4267450    -2.3652010     1.4815110
  H        2.7768740     1.6847790     0.7291870
  H        2.2671880     1.9220510    -0.9540200
  H        0.3069530    -1.0243470     1.2170770
  H        1.5834140    -0.1085280     2.0346680
  H       -0.4031770    -1.5700500    -1.4080150
  H       -4.3043690     0.2928860     1.0181070
  H       -2.0253310     2.7815300     0.2022010
  H       -3.1368610     2.2826280     1.5002420
  H       -1.3844770     2.1136550     1.7007310
  H       -2.4977120    -2.9041740    -1.2220500
  H       -4.4499260    -1.9612690     0.0072960
units angstrom
no_reorient  #important for SAPT in psi4, default
symmetry c1  #important for SAPT in psi4, default
}

set PROPERTIES_ORIGIN ["COM"]
properties('MP2/aug-cc-pvtz', properties = ['dipole'])
--------------------------------------------------------------------------

    Molecular point group: c1
  Charge       = 0
  Multiplicity = 1
  Basis Set: AUG-CC-PVTZ
    Blend: AUG-CC-PVTZ
  Basis Set: (AUG-CC-PVTZ AUX)
    Blend: AUG-CC-PVTZ-JKFIT

    Orbital Energies [Eh]
    ---------------------

    Doubly Occupied:

       1A    -20.511946     2A    -15.584436     3A    -11.350026
       4A    -11.265870     5A    -11.256498     6A    -11.251342
       7A    -11.245778     8A    -11.244186     9A    -11.242239
      10A    -11.238786    11A    -11.236621    12A    -11.230297
      13A    -11.228411    14A    -11.226210    15A    -11.220174
      16A     -1.367082    17A     -1.250883    18A     -1.160957
      19A     -1.084047    20A     -1.050350    21A     -1.036033
      22A     -1.023874    23A     -0.943155    24A     -0.919048
      25A     -0.866824    26A     -0.844594    27A     -0.815212
      28A     -0.790533    29A     -0.743131    30A     -0.711843
      31A     -0.666810    32A     -0.653253    33A     -0.648973
      34A     -0.626908    35A     -0.620606    36A     -0.615266
      37A     -0.596153    38A     -0.588169    39A     -0.575240
      40A     -0.571716    41A     -0.560045    42A     -0.547711
      43A     -0.541902    44A     -0.524346    45A     -0.508100
      46A     -0.502244    47A     -0.491087    48A     -0.489143
      49A     -0.478656    50A     -0.469301    51A     -0.462264
      52A     -0.416488    53A     -0.367162    54A     -0.339638
      55A     -0.329617

  @DF-RHF Final Energy:  -631.72974867818573

   => Energetics <=

    Nuclear Repulsion Energy =           1000.0749860878789832
    One-Electron Energy =               -2843.3471067697814760
    Two-Electron Energy =                1211.5423720037165367
    Total Energy =                       -631.7297486781858424
  Basis Set: (AUG-CC-PVTZ AUX)
    Blend: AUG-CC-PVTZ-RI
    Molecular point group: c1

    Geometry (in Angstrom), charge = 0, multiplicity = 1:

       Center              X                  Y                   Z               Mass
    ------------   -----------------  -----------------  -----------------  -----------------
         O            0.057461775375     1.938243102945    -1.184370311722    15.994914619570
         N            1.244947475375     0.431877602945     0.092896988278    14.003074004430
         C            3.728134775375    -0.963227897055     0.431778688278    12.000000000000
         C            3.580753775375     0.157045102945    -0.598543311722    12.000000000000
         C            2.380087775375    -1.630284897055     0.708374688278    12.000000000000
         C            2.510733775375     1.155448102945    -0.166604311722    12.000000000000
         C            1.338006775375    -0.588265897055     1.105061688278    12.000000000000
         C            0.099258775375     0.916588102945    -0.485251311722    12.000000000000
         C           -1.134292224625     0.089807102945    -0.270093311722    12.000000000000
         C           -2.235862224625     0.643402102945     0.408008688278    12.000000000000
         C           -1.215746224625    -1.183913897055    -0.846048311722    12.000000000000
         C           -3.398886224625    -0.127615897055     0.512464688278    12.000000000000
         C           -2.160050224625     2.024607102945     1.005476688278    12.000000000000
         C           -2.390117224625    -1.930444897055    -0.743020311722    12.000000000000
         C           -3.483929224625    -1.399745897055    -0.058387311722    12.000000000000
         H            4.459628775375    -1.705070897055     0.091679688278     1.007825032230
         H            4.117536775375    -0.541535897055     1.368769688278     1.007825032230
         H            4.534356775375     0.679718102945    -0.740806311722     1.007825032230
         H            3.292295775375    -0.265188897055    -1.568857311722     1.007825032230
         H            2.029728775375    -2.152056897055    -0.190728311722     1.007825032230
         H            2.473278775375    -2.377440897055     1.506006688278     1.007825032230
         H            2.823407775375     1.672539102945     0.753682688278     1.007825032230
         H            2.313721775375     1.909811102945    -0.929524311722     1.007825032230
         H            0.353486775375    -1.036586897055     1.241572688278     1.007825032230
         H            1.629947775375    -0.120767897055     2.059163688278     1.007825032230
         H           -0.356643224625    -1.582289897055    -1.383519311722     1.007825032230
         H           -4.257835224625     0.280646102945     1.042602688278     1.007825032230
         H           -1.978797224625     2.769290102945     0.226696688278     1.007825032230
         H           -3.090327224625     2.270388102945     1.524737688278     1.007825032230
         H           -1.337943224625     2.101415102945     1.725226688278     1.007825032230
         H           -2.451178224625    -2.916413897055    -1.197554311722     1.007825032230
         H           -4.403392224625    -1.973508897055     0.031791688278     1.007825032230

  Basis Set: AUG-CC-PVTZ
    Blend: AUG-CC-PVTZ
  Basis Set: (AUG-CC-PVTZ AUX)
    Blend: AUG-CC-PVTZ-JKFIT
	 Reference Energy          =    -631.7297486781857287 [Eh]
	 Singles Energy            =      -0.0000000000000000 [Eh]
	 Same-Spin Energy          =      -0.6891285151463676 [Eh]
	 Opposite-Spin Energy      =      -2.2124776756329849 [Eh]
	 Correlation Energy        =      -2.9016061907793524 [Eh]
	 Total Energy              =    -634.6313548689651043 [Eh]

	 ================> DF-SCS-MP2 Energies <==================
	-----------------------------------------------------------
	 SCS Same-Spin Scale       =       0.3333333333333333 [-]
	 SCS Opposite-Spin Scale   =       1.2000000000000000 [-]
	 SCS Same-Spin Energy      =      -0.2297095050487892 [Eh]
	 SCS Opposite-Spin Energy  =      -2.6549732107595818 [Eh]
	 SCS Correlation Energy    =      -2.8846827158083710 [Eh]
	 SCS Total Energy          =    -634.6144313939940957 [Eh]
	-----------------------------------------------------------

  Dipole Moment: [D]
     X:     1.4489      Y:    -2.4736      Z:     2.2816     Total:     3.6638

*** Psi4 exiting successfully. Buy a developer a beer!
