                               Psi4 1.4a3.dev225

  ==> Input File <==

--------------------------------------------------------------------------
#psi4
#
memory 32 gb

molecule  {
0 1
  O        0.0109280     1.9504830    -1.2088660
  N        1.2104930     0.4628600     0.0596820
  C        3.6816010    -0.9509880     0.4072830
  C        3.5342200     0.1692850    -0.6230390
  C        2.3335540    -1.6180450     0.6838790
  C        2.4642000     1.1676880    -0.1911000
  C        1.2914730    -0.5760260     1.0805660
  C        0.0527250     0.9288280    -0.5097470
  C       -1.1808260     0.1020470    -0.2945890
  C       -2.2823960     0.6556420     0.3835130
  C       -1.2622800    -1.1716740    -0.8705440
  C       -3.4454200    -0.1153760     0.4879690
  C       -2.2065840     2.0368470     0.9809810
  C       -2.4366510    -1.9182050    -0.7675160
  C       -3.5304630    -1.3875060    -0.0828830
  H        4.4130950    -1.6928310     0.0671840
  H        4.0710030    -0.5292960     1.3442740
  H        4.3139214     0.5966419    -0.7393585
  H        3.2457620    -0.2529490    -1.5933530
  H        1.9831950    -2.1398170    -0.2152240
  H        2.4267450    -2.3652010     1.4815110
  H        2.7768740     1.6847790     0.7291870
  H        2.2671880     1.9220510    -0.9540200
  H        0.3069530    -1.0243470     1.2170770
  H        1.5834140    -0.1085280     2.0346680
  H       -0.4031770    -1.5700500    -1.4080150
  H       -4.3043690     0.2928860     1.0181070
  H       -2.0253310     2.7815300     0.2022010
  H       -3.1368610     2.2826280     1.5002420
  H       -1.3844770     2.1136550     1.7007310
  H       -2.4977120    -2.9041740    -1.2220500
  H       -4.4499260    -1.9612690     0.0072960
units angstrom
no_reorient  #important for SAPT in psi4, default
symmetry c1  #important for SAPT in psi4, default
}

set PROPERTIES_ORIGIN ["COM"]
properties('MP2/aug-cc-pvtz', properties = ['dipole'])
--------------------------------------------------------------------------

    Molecular point group: c1
  Charge       = 0
  Multiplicity = 1
  Basis Set: AUG-CC-PVTZ
    Blend: AUG-CC-PVTZ
  Basis Set: (AUG-CC-PVTZ AUX)
    Blend: AUG-CC-PVTZ-JKFIT

    Orbital Energies [Eh]
    ---------------------

    Doubly Occupied:

       1A    -20.510005     2A    -15.582859     3A    -11.348641
       4A    -11.266260     5A    -11.253451     6A    -11.251390
       7A    -11.245836     8A    -11.244504     9A    -11.242221
      10A    -11.238712    11A    -11.236569    12A    -11.229490
      13A    -11.227000    14A    -11.219963    15A    -11.200584
      16A     -1.366229    17A     -1.248679    18A     -1.160990
      19A     -1.088303    20A     -1.050349    21A     -1.039186
      22A     -1.026695    23A     -0.942867    24A     -0.918091
      25A     -0.880384    26A     -0.843866    27A     -0.816472
      28A     -0.796331    29A     -0.741919    30A     -0.713601
      31A     -0.666225    32A     -0.653916    33A     -0.649380
      34A     -0.639452    35A     -0.621171    36A     -0.615253
      37A     -0.595573    38A     -0.594345    39A     -0.575330
      40A     -0.571328    41A     -0.560730    42A     -0.551496
      43A     -0.541275    44A     -0.524217    45A     -0.507902
      46A     -0.501864    47A     -0.492458    48A     -0.488955
      49A     -0.477690    50A     -0.474099    51A     -0.462413
      52A     -0.416544    53A     -0.365341    54A     -0.339530
      55A     -0.329553

  @DF-RHF Final Energy:  -631.69778220509852

   => Energetics <=

    Nuclear Repulsion Energy =           1001.2195878194257830
    One-Electron Energy =               -2845.5397558719500921
    Two-Electron Energy =                1212.6223858474259032
    Total Energy =                       -631.6977822050985196
  Basis Set: (AUG-CC-PVTZ AUX)
    Blend: AUG-CC-PVTZ-RI
    Molecular point group: c1

    Geometry (in Angstrom), charge = 0, multiplicity = 1:

       Center              X                  Y                   Z               Mass
    ------------   -----------------  -----------------  -----------------  -----------------
         O            0.057491879364     1.937423973165    -1.183897954043    15.994914619570
         N            1.257056879364     0.449800973165     0.084650045957    14.003074004430
         C            3.728164879364    -0.964047026835     0.432251045957    12.000000000000
         C            3.580783879364     0.156225973165    -0.598070954043    12.000000000000
         C            2.380117879364    -1.631104026835     0.708847045957    12.000000000000
         C            2.510763879364     1.154628973165    -0.166131954043    12.000000000000
         C            1.338036879364    -0.589085026835     1.105534045957    12.000000000000
         C            0.099288879364     0.915768973165    -0.484778954043    12.000000000000
         C           -1.134262120636     0.088987973165    -0.269620954043    12.000000000000
         C           -2.235832120636     0.642582973165     0.408481045957    12.000000000000
         C           -1.215716120636    -1.184733026835    -0.845575954043    12.000000000000
         C           -3.398856120636    -0.128435026835     0.512937045957    12.000000000000
         C           -2.160020120636     2.023787973165     1.005949045957    12.000000000000
         C           -2.390087120636    -1.931264026835    -0.742547954043    12.000000000000
         C           -3.483899120636    -1.400565026835    -0.057914954043    12.000000000000
         H            4.459658879364    -1.705890026835     0.092152045957     1.007825032230
         H            4.117566879364    -0.542355026835     1.369242045957     1.007825032230
         H            4.360485279364     0.583582873165    -0.714390454043     1.007825032230
         H            3.292325879364    -0.266008026835    -1.568384954043     1.007825032230
         H            2.029758879364    -2.152876026835    -0.190255954043     1.007825032230
         H            2.473308879364    -2.378260026835     1.506479045957     1.007825032230
         H            2.823437879364     1.671719973165     0.754155045957     1.007825032230
         H            2.313751879364     1.908991973165    -0.929051954043     1.007825032230
         H            0.353516879364    -1.037406026835     1.242045045957     1.007825032230
         H            1.629977879364    -0.121587026835     2.059636045957     1.007825032230
         H           -0.356613120636    -1.583109026835    -1.383046954043     1.007825032230
         H           -4.257805120636     0.279826973165     1.043075045957     1.007825032230
         H           -1.978767120636     2.768470973165     0.227169045957     1.007825032230
         H           -3.090297120636     2.269568973165     1.525210045957     1.007825032230
         H           -1.337913120636     2.100595973165     1.725699045957     1.007825032230
         H           -2.451148120636    -2.917233026835    -1.197081954043     1.007825032230
         H           -4.403362120636    -1.974328026835     0.032264045957     1.007825032230

  Basis Set: AUG-CC-PVTZ
    Blend: AUG-CC-PVTZ
  Basis Set: (AUG-CC-PVTZ AUX)
    Blend: AUG-CC-PVTZ-JKFIT
	 Reference Energy          =    -631.6977822050985196 [Eh]
	 Singles Energy            =      -0.0000000000000000 [Eh]
	 Same-Spin Energy          =      -0.6890601252354743 [Eh]
	 Opposite-Spin Energy      =      -2.2115201767464154 [Eh]
	 Correlation Energy        =      -2.9005803019818899 [Eh]
	 Total Energy              =    -634.5983625070804237 [Eh]

	 ================> DF-SCS-MP2 Energies <==================
	-----------------------------------------------------------
	 SCS Same-Spin Scale       =       0.3333333333333333 [-]
	 SCS Opposite-Spin Scale   =       1.2000000000000000 [-]
	 SCS Same-Spin Energy      =      -0.2296867084118248 [Eh]
	 SCS Opposite-Spin Energy  =      -2.6538242120956985 [Eh]
	 SCS Correlation Energy    =      -2.8835109205075233 [Eh]
	 SCS Total Energy          =    -634.5812931256060665 [Eh]
	-----------------------------------------------------------

  Dipole Moment: [D]
     X:     1.5195      Y:    -2.4742      Z:     2.2685     Total:     3.6847

*** Psi4 exiting successfully. Buy a developer a beer!
