                               Psi4 1.4a3.dev225

  ==> Input File <==

--------------------------------------------------------------------------
#psi4
#
memory 32 gb

molecule  {
0 1
  O        0.0109280     1.9504830    -1.2088660
  N        1.2104930     0.4628600     0.0596820
  C        3.6816010    -0.9509880     0.4072830
  C        3.5342200     0.1692850    -0.6230390
  C        2.3335540    -1.6180450     0.6838790
  C        2.4642000     1.1676880    -0.1911000
  C        1.2914730    -0.5760260     1.0805660
  C        0.0527250     0.9288280    -0.5097470
  C       -1.1808260     0.1020470    -0.2945890
  C       -2.1258156     0.5769524     0.2871256
  C       -1.2622800    -1.1716740    -0.8705440
  C       -3.4454200    -0.1153760     0.4879690
  C       -2.2065840     2.0368470     0.9809810
  C       -2.4366510    -1.9182050    -0.7675160
  C       -3.5304630    -1.3875060    -0.0828830
  H        4.4130950    -1.6928310     0.0671840
  H        4.0710030    -0.5292960     1.3442740
  H        4.4878230     0.6919580    -0.7653020
  H        3.2457620    -0.2529490    -1.5933530
  H        1.9831950    -2.1398170    -0.2152240
  H        2.4267450    -2.3652010     1.4815110
  H        2.7768740     1.6847790     0.7291870
  H        2.2671880     1.9220510    -0.9540200
  H        0.3069530    -1.0243470     1.2170770
  H        1.5834140    -0.1085280     2.0346680
  H       -0.4031770    -1.5700500    -1.4080150
  H       -4.3043690     0.2928860     1.0181070
  H       -2.0253310     2.7815300     0.2022010
  H       -3.1368610     2.2826280     1.5002420
  H       -1.3844770     2.1136550     1.7007310
  H       -2.4977120    -2.9041740    -1.2220500
  H       -4.4499260    -1.9612690     0.0072960
units angstrom
no_reorient  #important for SAPT in psi4, default
symmetry c1  #important for SAPT in psi4, default
}

set PROPERTIES_ORIGIN ["COM"]
properties('MP2/aug-cc-pvtz', properties = ['dipole'])
--------------------------------------------------------------------------

    Molecular point group: c1
  Charge       = 0
  Multiplicity = 1
  Basis Set: AUG-CC-PVTZ
    Blend: AUG-CC-PVTZ
  Basis Set: (AUG-CC-PVTZ AUX)
    Blend: AUG-CC-PVTZ-JKFIT

    Orbital Energies [Eh]
    ---------------------

    Doubly Occupied:

       1A    -20.511569     2A    -15.584279     3A    -11.349294
       4A    -11.268681     5A    -11.254911     6A    -11.247110
       7A    -11.246351     8A    -11.241112     9A    -11.239937
      10A    -11.239567    11A    -11.231222    12A    -11.228743
      13A    -11.225979    14A    -11.222568    15A    -11.220244
      16A     -1.368073    17A     -1.250289    18A     -1.179108
      19A     -1.084282    20A     -1.060543    21A     -1.032217
      22A     -1.015535    23A     -0.934176    24A     -0.921107
      25A     -0.867051    26A     -0.850917    27A     -0.827517
      28A     -0.785300    29A     -0.742754    30A     -0.715810
      31A     -0.668158    32A     -0.654309    33A     -0.645233
      34A     -0.627713    35A     -0.622103    36A     -0.616738
      37A     -0.602193    38A     -0.589539    39A     -0.567369
      40A     -0.564391    41A     -0.560976    42A     -0.547658
      43A     -0.541066    44A     -0.526886    45A     -0.514505
      46A     -0.501483    47A     -0.498137    48A     -0.480162
      49A     -0.470962    50A     -0.463503    51A     -0.460331
      52A     -0.408909    53A     -0.366766    54A     -0.363958
      55A     -0.324175

  @DF-RHF Final Energy:  -631.67470518149628

   => Energetics <=

    Nuclear Repulsion Energy =           1003.0523843518311651
    One-Electron Energy =               -2849.1872456010087262
    Two-Electron Energy =                1214.4601560676812824
    Total Energy =                       -631.6747051814961651
  Basis Set: (AUG-CC-PVTZ AUX)
    Blend: AUG-CC-PVTZ-RI
    Molecular point group: c1

    Geometry (in Angstrom), charge = 0, multiplicity = 1:

       Center              X                  Y                   Z               Mass
    ------------   -----------------  -----------------  -----------------  -----------------
         O            0.047379060334     1.941599668599    -1.178075134157    15.994914619570
         N            1.246944060334     0.453976668599     0.090472865843    14.003074004430
         C            3.718052060334    -0.959871331401     0.438073865843    12.000000000000
         C            3.570671060334     0.160401668599    -0.592248134157    12.000000000000
         C            2.370005060334    -1.626928331401     0.714669865843    12.000000000000
         C            2.500651060334     1.158804668599    -0.160309134157    12.000000000000
         C            1.327924060334    -0.584909331401     1.111356865843    12.000000000000
         C            0.089176060334     0.919944668599    -0.478956134157    12.000000000000
         C           -1.144374939666     0.093163668599    -0.263798134157    12.000000000000
         C           -2.089364539666     0.568069068599     0.317916465843    12.000000000000
         C           -1.225828939666    -1.180557331401    -0.839753134157    12.000000000000
         C           -3.408968939666    -0.124259331401     0.518759865843    12.000000000000
         C           -2.170132939666     2.027963668599     1.011771865843    12.000000000000
         C           -2.400199939666    -1.927088331401    -0.736725134157    12.000000000000
         C           -3.494011939666    -1.396389331401    -0.052092134157    12.000000000000
         H            4.449546060334    -1.701714331401     0.097974865843     1.007825032230
         H            4.107454060334    -0.538179331401     1.375064865843     1.007825032230
         H            4.524274060334     0.683074668599    -0.734511134157     1.007825032230
         H            3.282213060334    -0.261832331401    -1.562562134157     1.007825032230
         H            2.019646060334    -2.148700331401    -0.184433134157     1.007825032230
         H            2.463196060334    -2.374084331401     1.512301865843     1.007825032230
         H            2.813325060334     1.675895668599     0.759977865843     1.007825032230
         H            2.303639060334     1.913167668599    -0.923229134157     1.007825032230
         H            0.343404060334    -1.033230331401     1.247867865843     1.007825032230
         H            1.619865060334    -0.117411331401     2.065458865843     1.007825032230
         H           -0.366725939666    -1.578933331401    -1.377224134157     1.007825032230
         H           -4.267917939666     0.284002668599     1.048897865843     1.007825032230
         H           -1.988879939666     2.772646668599     0.232991865843     1.007825032230
         H           -3.100409939666     2.273744668599     1.531032865843     1.007825032230
         H           -1.348025939666     2.104771668599     1.731521865843     1.007825032230
         H           -2.461260939666    -2.913057331401    -1.191259134157     1.007825032230
         H           -4.413474939666    -1.970152331401     0.038086865843     1.007825032230

  Basis Set: AUG-CC-PVTZ
    Blend: AUG-CC-PVTZ
  Basis Set: (AUG-CC-PVTZ AUX)
    Blend: AUG-CC-PVTZ-JKFIT
	 Reference Energy          =    -631.6747051814962788 [Eh]
	 Singles Energy            =      -0.0000000000000000 [Eh]
	 Same-Spin Energy          =      -0.6873820480390000 [Eh]
	 Opposite-Spin Energy      =      -2.2126983421718336 [Eh]
	 Correlation Energy        =      -2.9000803902108334 [Eh]
	 Total Energy              =    -634.5747855717071388 [Eh]

	 ================> DF-SCS-MP2 Energies <==================
	-----------------------------------------------------------
	 SCS Same-Spin Scale       =       0.3333333333333333 [-]
	 SCS Opposite-Spin Scale   =       1.2000000000000000 [-]
	 SCS Same-Spin Energy      =      -0.2291273493463333 [Eh]
	 SCS Opposite-Spin Energy  =      -2.6552380106062001 [Eh]
	 SCS Correlation Energy    =      -2.8843653599525334 [Eh]
	 SCS Total Energy          =    -634.5590705414488184 [Eh]
	-----------------------------------------------------------

  Dipole Moment: [D]
     X:     1.3722      Y:    -2.6518      Z:     2.2652     Total:     3.7478

*** Psi4 exiting successfully. Buy a developer a beer!
