                               Psi4 1.4a3.dev225

  ==> Input File <==

--------------------------------------------------------------------------
#psi4
#
memory 32 gb

molecule  {
0 1
  O        0.0109280     1.9504830    -1.2088660
  N        1.2104930     0.4628600     0.0596820
  C        3.6816010    -0.9509880     0.4072830
  C        3.5342200     0.1692850    -0.6230390
  C        2.3335540    -1.6180450     0.6838790
  C        2.4642000     1.1676880    -0.1911000
  C        1.2914730    -0.5760260     1.0805660
  C        0.0527250     0.9288280    -0.5097470
  C       -1.1808260     0.1020470    -0.2945890
  C       -2.2823960     0.6556420     0.3835130
  C       -1.2622800    -1.1716740    -0.8705440
  C       -3.4683500    -0.1176514     0.4959351
  C       -2.2065840     2.0368470     0.9809810
  C       -2.4366510    -1.9182050    -0.7675160
  C       -3.5304630    -1.3875060    -0.0828830
  H        4.4130950    -1.6928310     0.0671840
  H        4.0710030    -0.5292960     1.3442740
  H        4.4878230     0.6919580    -0.7653020
  H        3.2457620    -0.2529490    -1.5933530
  H        1.9831950    -2.1398170    -0.2152240
  H        2.4267450    -2.3652010     1.4815110
  H        2.7768740     1.6847790     0.7291870
  H        2.2671880     1.9220510    -0.9540200
  H        0.3069530    -1.0243470     1.2170770
  H        1.5834140    -0.1085280     2.0346680
  H       -0.4031770    -1.5700500    -1.4080150
  H       -4.3043690     0.2928860     1.0181070
  H       -2.0253310     2.7815300     0.2022010
  H       -3.1368610     2.2826280     1.5002420
  H       -1.3844770     2.1136550     1.7007310
  H       -2.4977120    -2.9041740    -1.2220500
  H       -4.4499260    -1.9612690     0.0072960
units angstrom
no_reorient  #important for SAPT in psi4, default
symmetry c1  #important for SAPT in psi4, default
}

set PROPERTIES_ORIGIN ["COM"]
properties('MP2/aug-cc-pvtz', properties = ['dipole'])
--------------------------------------------------------------------------

    Molecular point group: c1
  Charge       = 0
  Multiplicity = 1
  Basis Set: AUG-CC-PVTZ
    Blend: AUG-CC-PVTZ
  Basis Set: (AUG-CC-PVTZ AUX)
    Blend: AUG-CC-PVTZ-JKFIT

    Orbital Energies [Eh]
    ---------------------

    Doubly Occupied:

       1A    -20.510750     2A    -15.583896     3A    -11.349491
       4A    -11.267069     5A    -11.254630     6A    -11.254364
       7A    -11.246655     8A    -11.244859     9A    -11.242844
      10A    -11.239067    11A    -11.237535    12A    -11.230628
      13A    -11.228314    14A    -11.225673    15A    -11.220319
      16A     -1.366965    17A     -1.249580    18A     -1.159407
      19A     -1.083577    20A     -1.049869    21A     -1.037151
      22A     -1.023387    23A     -0.943289    24A     -0.918287
      25A     -0.867090    26A     -0.843677    27A     -0.816208
      28A     -0.790246    29A     -0.743043    30A     -0.713122
      31A     -0.666105    32A     -0.652643    33A     -0.647805
      34A     -0.628192    35A     -0.622455    36A     -0.615281
      37A     -0.597630    38A     -0.588056    39A     -0.575480
      40A     -0.571392    41A     -0.560206    42A     -0.547679
      43A     -0.542491    44A     -0.524836    45A     -0.505901
      46A     -0.501017    47A     -0.493303    48A     -0.489284
      49A     -0.478585    50A     -0.469612    51A     -0.461522
      52A     -0.416742    53A     -0.366209    54A     -0.339994
      55A     -0.328416

  @DF-RHF Final Energy:  -631.72979291515946

   => Energetics <=

    Nuclear Repulsion Energy =            999.4533557533952717
    One-Electron Energy =               -2842.1026478585686164
    Two-Electron Energy =                1210.9194991900139939
    Total Energy =                       -631.7297929151593507
  Basis Set: (AUG-CC-PVTZ AUX)
    Blend: AUG-CC-PVTZ-RI
    Molecular point group: c1

    Geometry (in Angstrom), charge = 0, multiplicity = 1:

       Center              X                  Y                   Z               Mass
    ------------   -----------------  -----------------  -----------------  -----------------
         O            0.057983668443     1.937085486441    -1.184239835323    15.994914619570
         N            1.257548668443     0.449462486441     0.084308164677    14.003074004430
         C            3.728656668443    -0.964385513559     0.431909164677    12.000000000000
         C            3.581275668443     0.155887486441    -0.598412835323    12.000000000000
         C            2.380609668443    -1.631442513559     0.708505164677    12.000000000000
         C            2.511255668443     1.154290486441    -0.166473835323    12.000000000000
         C            1.338528668443    -0.589423513559     1.105192164677    12.000000000000
         C            0.099780668443     0.915430486441    -0.485120835323    12.000000000000
         C           -1.133770331557     0.088649486441    -0.269962835323    12.000000000000
         C           -2.235340331557     0.642244486441     0.408139164677    12.000000000000
         C           -1.215224331557    -1.185071513559    -0.845917835323    12.000000000000
         C           -3.421294331557    -0.131048913559     0.520561264677    12.000000000000
         C           -2.159528331557     2.023449486441     1.005607164677    12.000000000000
         C           -2.389595331557    -1.931602513559    -0.742889835323    12.000000000000
         C           -3.483407331557    -1.400903513559    -0.058256835323    12.000000000000
         H            4.460150668443    -1.706228513559     0.091810164677     1.007825032230
         H            4.118058668443    -0.542693513559     1.368900164677     1.007825032230
         H            4.534878668443     0.678560486441    -0.740675835323     1.007825032230
         H            3.292817668443    -0.266346513559    -1.568726835323     1.007825032230
         H            2.030250668443    -2.153214513559    -0.190597835323     1.007825032230
         H            2.473800668443    -2.378598513559     1.506137164677     1.007825032230
         H            2.823929668443     1.671381486441     0.753813164677     1.007825032230
         H            2.314243668443     1.908653486441    -0.929393835323     1.007825032230
         H            0.354008668443    -1.037744513559     1.241703164677     1.007825032230
         H            1.630469668443    -0.121925513559     2.059294164677     1.007825032230
         H           -0.356121331557    -1.583447513559    -1.383388835323     1.007825032230
         H           -4.257313331557     0.279488486441     1.042733164677     1.007825032230
         H           -1.978275331557     2.768132486441     0.226827164677     1.007825032230
         H           -3.089805331557     2.269230486441     1.524868164677     1.007825032230
         H           -1.337421331557     2.100257486441     1.725357164677     1.007825032230
         H           -2.450656331557    -2.917571513559    -1.197423835323     1.007825032230
         H           -4.402870331557    -1.974666513559     0.031922164677     1.007825032230

  Basis Set: AUG-CC-PVTZ
    Blend: AUG-CC-PVTZ
  Basis Set: (AUG-CC-PVTZ AUX)
    Blend: AUG-CC-PVTZ-JKFIT
	 Reference Energy          =    -631.7297929151594644 [Eh]
	 Singles Energy            =      -0.0000000000000000 [Eh]
	 Same-Spin Energy          =      -0.6889782782223662 [Eh]
	 Opposite-Spin Energy      =      -2.2123304341702479 [Eh]
	 Correlation Energy        =      -2.9013087123926140 [Eh]
	 Total Energy              =    -634.6311016275520842 [Eh]

	 ================> DF-SCS-MP2 Energies <==================
	-----------------------------------------------------------
	 SCS Same-Spin Scale       =       0.3333333333333333 [-]
	 SCS Opposite-Spin Scale   =       1.2000000000000000 [-]
	 SCS Same-Spin Energy      =      -0.2296594260741221 [Eh]
	 SCS Opposite-Spin Energy  =      -2.6547965210042972 [Eh]
	 SCS Correlation Energy    =      -2.8844559470784192 [Eh]
	 SCS Total Energy          =    -634.6142488622379005 [Eh]
	-----------------------------------------------------------

  Dipole Moment: [D]
     X:     1.4004      Y:    -2.5091      Z:     2.3110     Total:     3.6874

*** Psi4 exiting successfully. Buy a developer a beer!
