                               Psi4 1.4a3.dev225

  ==> Input File <==

--------------------------------------------------------------------------
#psi4
#
memory 32 gb

molecule  {
0 1
  O        0.0109280     1.9504830    -1.2088660
  N        1.2104930     0.4628600     0.0596820
  C        3.6816010    -0.9509880     0.4072830
  C        3.5342200     0.1692850    -0.6230390
  C        2.3335540    -1.6180450     0.6838790
  C        2.4642000     1.1676880    -0.1911000
  C        1.2914730    -0.5760260     1.0805660
  C        0.0527250     0.9288280    -0.5097470
  C       -1.1808260     0.1020470    -0.2945890
  C       -2.2823960     0.6556420     0.3835130
  C       -1.2622800    -1.1716740    -0.8705440
  C       -3.4454200    -0.1153760     0.4879690
  C       -2.2065840     2.0368470     0.9809810
  C       -2.4366510    -1.9182050    -0.7675160
  C       -3.5304630    -1.3875060    -0.0828830
  H        4.4130950    -1.6928310     0.0671840
  H        4.0710030    -0.5292960     1.3442740
  H        4.4878230     0.6919580    -0.7653020
  H        3.2457620    -0.2529490    -1.5933530
  H        1.9831950    -2.1398170    -0.2152240
  H        2.4267450    -2.3652010     1.4815110
  H        2.7910743     1.7082630     0.7709824
  H        2.2671880     1.9220510    -0.9540200
  H        0.3069530    -1.0243470     1.2170770
  H        1.5834140    -0.1085280     2.0346680
  H       -0.4031770    -1.5700500    -1.4080150
  H       -4.3043690     0.2928860     1.0181070
  H       -2.0253310     2.7815300     0.2022010
  H       -3.1368610     2.2826280     1.5002420
  H       -1.3844770     2.1136550     1.7007310
  H       -2.4977120    -2.9041740    -1.2220500
  H       -4.4499260    -1.9612690     0.0072960
units angstrom
no_reorient  #important for SAPT in psi4, default
symmetry c1  #important for SAPT in psi4, default
}

set PROPERTIES_ORIGIN ["COM"]
properties('MP2/aug-cc-pvtz', properties = ['dipole'])
--------------------------------------------------------------------------

    Molecular point group: c1
  Charge       = 0
  Multiplicity = 1
  Basis Set: AUG-CC-PVTZ
    Blend: AUG-CC-PVTZ
  Basis Set: (AUG-CC-PVTZ AUX)
    Blend: AUG-CC-PVTZ-JKFIT

    Orbital Energies [Eh]
    ---------------------

    Doubly Occupied:

       1A    -20.511258     2A    -15.584688     3A    -11.349906
       4A    -11.267136     5A    -11.260739     6A    -11.252025
       7A    -11.246545     8A    -11.245231     9A    -11.242805
      10A    -11.239291    11A    -11.237120    12A    -11.230734
      13A    -11.228376    14A    -11.226294    15A    -11.220431
      16A     -1.367425    17A     -1.249799    18A     -1.161593
      19A     -1.083704    20A     -1.050936    21A     -1.036776
      22A     -1.023006    23A     -0.943092    24A     -0.918045
      25A     -0.867361    26A     -0.843452    27A     -0.815493
      28A     -0.790463    29A     -0.740817    30A     -0.712658
      31A     -0.666976    32A     -0.652862    33A     -0.647114
      34A     -0.627286    35A     -0.620541    36A     -0.614220
      37A     -0.595948    38A     -0.587884    39A     -0.575818
      40A     -0.571761    41A     -0.560637    42A     -0.547802
      43A     -0.541672    44A     -0.524497    45A     -0.507918
      46A     -0.499667    47A     -0.491225    48A     -0.489340
      49A     -0.478452    50A     -0.469509    51A     -0.461546
      52A     -0.417333    53A     -0.366191    54A     -0.340167
      55A     -0.330164

  @DF-RHF Final Energy:  -631.72856710133772

   => Energetics <=

    Nuclear Repulsion Energy =            999.7034718998835388
    One-Electron Energy =               -2842.5966229945461237
    Two-Electron Energy =                1211.1645839933248681
    Total Energy =                       -631.7285671013378305
  Basis Set: (AUG-CC-PVTZ AUX)
    Blend: AUG-CC-PVTZ-RI
    Molecular point group: c1

    Geometry (in Angstrom), charge = 0, multiplicity = 1:

       Center              X                  Y                   Z               Mass
    ------------   -----------------  -----------------  -----------------  -----------------
         O            0.056558620579     1.936834552022    -1.183976602504    15.994914619570
         N            1.256123620579     0.449211552022     0.084571397496    14.003074004430
         C            3.727231620579    -0.964636447978     0.432172397496    12.000000000000
         C            3.579850620579     0.155636552022    -0.598149602504    12.000000000000
         C            2.379184620579    -1.631693447978     0.708768397496    12.000000000000
         C            2.509830620579     1.154039552022    -0.166210602504    12.000000000000
         C            1.337103620579    -0.589674447978     1.105455397496    12.000000000000
         C            0.098355620579     0.915179552022    -0.484857602504    12.000000000000
         C           -1.135195379421     0.088398552022    -0.269699602504    12.000000000000
         C           -2.236765379421     0.641993552022     0.408402397496    12.000000000000
         C           -1.216649379421    -1.185322447978    -0.845654602504    12.000000000000
         C           -3.399789379421    -0.129024447978     0.512858397496    12.000000000000
         C           -2.160953379421     2.023198552022     1.005870397496    12.000000000000
         C           -2.391020379421    -1.931853447978    -0.742626602504    12.000000000000
         C           -3.484832379421    -1.401154447978    -0.057993602504    12.000000000000
         H            4.458725620579    -1.706479447978     0.092073397496     1.007825032230
         H            4.116633620579    -0.542944447978     1.369163397496     1.007825032230
         H            4.533453620579     0.678309552022    -0.740412602504     1.007825032230
         H            3.291392620579    -0.266597447978    -1.568463602504     1.007825032230
         H            2.028825620579    -2.153465447978    -0.190334602504     1.007825032230
         H            2.472375620579    -2.378849447978     1.506400397496     1.007825032230
         H            2.836704920579     1.694614552022     0.795871797496     1.007825032230
         H            2.312818620579     1.908402552022    -0.929130602504     1.007825032230
         H            0.352583620579    -1.037995447978     1.241966397496     1.007825032230
         H            1.629044620579    -0.122176447978     2.059557397496     1.007825032230
         H           -0.357546379421    -1.583698447978    -1.383125602504     1.007825032230
         H           -4.258738379421     0.279237552022     1.042996397496     1.007825032230
         H           -1.979700379421     2.767881552022     0.227090397496     1.007825032230
         H           -3.091230379421     2.268979552022     1.525131397496     1.007825032230
         H           -1.338846379421     2.100006552022     1.725620397496     1.007825032230
         H           -2.452081379421    -2.917822447978    -1.197160602504     1.007825032230
         H           -4.404295379421    -1.974917447978     0.032185397496     1.007825032230

  Basis Set: AUG-CC-PVTZ
    Blend: AUG-CC-PVTZ
  Basis Set: (AUG-CC-PVTZ AUX)
    Blend: AUG-CC-PVTZ-JKFIT
	 Reference Energy          =    -631.7285671013377168 [Eh]
	 Singles Energy            =      -0.0000000000000000 [Eh]
	 Same-Spin Energy          =      -0.6890760605261654 [Eh]
	 Opposite-Spin Energy      =      -2.2126306394775233 [Eh]
	 Correlation Energy        =      -2.9017067000036887 [Eh]
	 Total Energy              =    -634.6302738013414455 [Eh]

	 ================> DF-SCS-MP2 Energies <==================
	-----------------------------------------------------------
	 SCS Same-Spin Scale       =       0.3333333333333333 [-]
	 SCS Opposite-Spin Scale   =       1.2000000000000000 [-]
	 SCS Same-Spin Energy      =      -0.2296920201753885 [Eh]
	 SCS Opposite-Spin Energy  =      -2.6551567673730276 [Eh]
	 SCS Correlation Energy    =      -2.8848487875484161 [Eh]
	 SCS Total Energy          =    -634.6134158888861521 [Eh]
	-----------------------------------------------------------

  Dipole Moment: [D]
     X:     1.3735      Y:    -2.5449      Z:     2.2741     Total:     3.6789

*** Psi4 exiting successfully. Buy a developer a beer!
