                               Psi4 1.4a3.dev225

  ==> Input File <==

--------------------------------------------------------------------------
#psi4
#
memory 32 gb

molecule  {
0 1
  O        0.0109280     1.9504830    -1.2088660
  N        1.2104930     0.4628600     0.0596820
  C        3.6816010    -0.9509880     0.4072830
  C        3.5342200     0.1692850    -0.6230390
  C        2.3335540    -1.6180450     0.6838790
  C        2.4212634     1.1435492    -0.1825113
  C        1.2914730    -0.5760260     1.0805660
  C        0.0527250     0.9288280    -0.5097470
  C       -1.1808260     0.1020470    -0.2945890
  C       -2.2823960     0.6556420     0.3835130
  C       -1.2622800    -1.1716740    -0.8705440
  C       -3.4454200    -0.1153760     0.4879690
  C       -2.2065840     2.0368470     0.9809810
  C       -2.4366510    -1.9182050    -0.7675160
  C       -3.5304630    -1.3875060    -0.0828830
  H        4.4130950    -1.6928310     0.0671840
  H        4.0710030    -0.5292960     1.3442740
  H        4.4878230     0.6919580    -0.7653020
  H        3.2457620    -0.2529490    -1.5933530
  H        1.9831950    -2.1398170    -0.2152240
  H        2.4267450    -2.3652010     1.4815110
  H        2.7768740     1.6847790     0.7291870
  H        2.2671880     1.9220510    -0.9540200
  H        0.3069530    -1.0243470     1.2170770
  H        1.5834140    -0.1085280     2.0346680
  H       -0.4031770    -1.5700500    -1.4080150
  H       -4.3043690     0.2928860     1.0181070
  H       -2.0253310     2.7815300     0.2022010
  H       -3.1368610     2.2826280     1.5002420
  H       -1.3844770     2.1136550     1.7007310
  H       -2.4977120    -2.9041740    -1.2220500
  H       -4.4499260    -1.9612690     0.0072960
units angstrom
no_reorient  #important for SAPT in psi4, default
symmetry c1  #important for SAPT in psi4, default
}

set PROPERTIES_ORIGIN ["COM"]
properties('MP2/aug-cc-pvtz', properties = ['dipole'])
--------------------------------------------------------------------------

    Molecular point group: c1
  Charge       = 0
  Multiplicity = 1
  Basis Set: AUG-CC-PVTZ
    Blend: AUG-CC-PVTZ
  Basis Set: (AUG-CC-PVTZ AUX)
    Blend: AUG-CC-PVTZ-JKFIT

    Orbital Energies [Eh]
    ---------------------

    Doubly Occupied:

       1A    -20.512819     2A    -15.585357     3A    -11.351227
       4A    -11.268198     5A    -11.253447     6A    -11.252669
       7A    -11.247224     8A    -11.245937     9A    -11.243381
      10A    -11.239845    11A    -11.237668    12A    -11.230960
      13A    -11.227199    14A    -11.224827    15A    -11.220993
      16A     -1.370215    17A     -1.259372    18A     -1.162390
      19A     -1.083124    20A     -1.051742    21A     -1.038539
      22A     -1.022050    23A     -0.944258    24A     -0.918881
      25A     -0.870427    26A     -0.843449    27A     -0.816240
      28A     -0.792061    29A     -0.743273    30A     -0.714902
      31A     -0.667431    32A     -0.654468    33A     -0.649974
      34A     -0.626690    35A     -0.622513    36A     -0.616390
      37A     -0.595863    38A     -0.590636    39A     -0.576651
      40A     -0.572516    41A     -0.562634    42A     -0.545904
      43A     -0.542092    44A     -0.524541    45A     -0.508308
      46A     -0.499362    47A     -0.492145    48A     -0.489472
      49A     -0.476587    50A     -0.470142    51A     -0.458578
      52A     -0.419201    53A     -0.365245    54A     -0.340774
      55A     -0.330762

  @DF-RHF Final Energy:  -631.72817029873545

   => Energetics <=

    Nuclear Repulsion Energy =           1001.0094046627789339
    One-Electron Energy =               -2845.1320542523467338
    Two-Electron Energy =                1212.3944792908323507
    Total Energy =                       -631.7281702987354493
  Basis Set: (AUG-CC-PVTZ AUX)
    Blend: AUG-CC-PVTZ-RI
    Molecular point group: c1

    Geometry (in Angstrom), charge = 0, multiplicity = 1:

       Center              X                  Y                   Z               Mass
    ------------   -----------------  -----------------  -----------------  -----------------
         O            0.059165561818     1.938377070599    -1.184276615527    15.994914619570
         N            1.258730561818     0.450754070599     0.084271384473    14.003074004430
         C            3.729838561818    -0.963093929401     0.431872384473    12.000000000000
         C            3.582457561818     0.157179070599    -0.598449615527    12.000000000000
         C            2.381791561818    -1.630150929401     0.708468384473    12.000000000000
         C            2.469500961818     1.131443270599    -0.157921915527    12.000000000000
         C            1.339710561818    -0.588131929401     1.105155384473    12.000000000000
         C            0.100962561818     0.916722070599    -0.485157615527    12.000000000000
         C           -1.132588438182     0.089941070599    -0.269999615527    12.000000000000
         C           -2.234158438182     0.643536070599     0.408102384473    12.000000000000
         C           -1.214042438182    -1.183779929401    -0.845954615527    12.000000000000
         C           -3.397182438182    -0.127481929401     0.512558384473    12.000000000000
         C           -2.158346438182     2.024741070599     1.005570384473    12.000000000000
         C           -2.388413438182    -1.930310929401    -0.742926615527    12.000000000000
         C           -3.482225438182    -1.399611929401    -0.058293615527    12.000000000000
         H            4.461332561818    -1.704936929401     0.091773384473     1.007825032230
         H            4.119240561818    -0.541401929401     1.368863384473     1.007825032230
         H            4.536060561818     0.679852070599    -0.740712615527     1.007825032230
         H            3.293999561818    -0.265054929401    -1.568763615527     1.007825032230
         H            2.031432561818    -2.151922929401    -0.190634615527     1.007825032230
         H            2.474982561818    -2.377306929401     1.506100384473     1.007825032230
         H            2.825111561818     1.672673070599     0.753776384473     1.007825032230
         H            2.315425561818     1.909945070599    -0.929430615527     1.007825032230
         H            0.355190561818    -1.036452929401     1.241666384473     1.007825032230
         H            1.631651561818    -0.120633929401     2.059257384473     1.007825032230
         H           -0.354939438182    -1.582155929401    -1.383425615527     1.007825032230
         H           -4.256131438182     0.280780070599     1.042696384473     1.007825032230
         H           -1.977093438182     2.769424070599     0.226790384473     1.007825032230
         H           -3.088623438182     2.270522070599     1.524831384473     1.007825032230
         H           -1.336239438182     2.101549070599     1.725320384473     1.007825032230
         H           -2.449474438182    -2.916279929401    -1.197460615527     1.007825032230
         H           -4.401688438182    -1.973374929401     0.031885384473     1.007825032230

  Basis Set: AUG-CC-PVTZ
    Blend: AUG-CC-PVTZ
  Basis Set: (AUG-CC-PVTZ AUX)
    Blend: AUG-CC-PVTZ-JKFIT
	 Reference Energy          =    -631.7281702987354493 [Eh]
	 Singles Energy            =      -0.0000000000000000 [Eh]
	 Same-Spin Energy          =      -0.6893681014698047 [Eh]
	 Opposite-Spin Energy      =      -2.2124533148616901 [Eh]
	 Correlation Energy        =      -2.9018214163314946 [Eh]
	 Total Energy              =    -634.6299917150669216 [Eh]

	 ================> DF-SCS-MP2 Energies <==================
	-----------------------------------------------------------
	 SCS Same-Spin Scale       =       0.3333333333333333 [-]
	 SCS Opposite-Spin Scale   =       1.2000000000000000 [-]
	 SCS Same-Spin Energy      =      -0.2297893671566015 [Eh]
	 SCS Opposite-Spin Energy  =      -2.6549439778340278 [Eh]
	 SCS Correlation Energy    =      -2.8847333449906292 [Eh]
	 SCS Total Energy          =    -634.6129036437260993 [Eh]
	-----------------------------------------------------------

  Dipole Moment: [D]
     X:     1.2470      Y:    -2.5546      Z:     2.2905     Total:     3.6507

*** Psi4 exiting successfully. Buy a developer a beer!
