                               Psi4 1.4a3.dev225

  ==> Input File <==

--------------------------------------------------------------------------
#psi4
#
memory 32 gb

molecule  {
0 1
  O        0.0109280     1.9504830    -1.2088660
  N        1.2104930     0.4628600     0.0596820
  C        3.6816010    -0.9509880     0.4072830
  C        3.5342200     0.1692850    -0.6230390
  C        2.3335540    -1.6180450     0.6838790
  C        2.4642000     1.1676880    -0.1911000
  C        1.2914730    -0.5760260     1.0805660
  C        0.0527250     0.9288280    -0.5097470
  C       -1.1808260     0.1020470    -0.2945890
  C       -2.4389764     0.7343316     0.4799004
  C       -1.2622800    -1.1716740    -0.8705440
  C       -3.4454200    -0.1153760     0.4879690
  C       -2.2065840     2.0368470     0.9809810
  C       -2.4366510    -1.9182050    -0.7675160
  C       -3.5304630    -1.3875060    -0.0828830
  H        4.4130950    -1.6928310     0.0671840
  H        4.0710030    -0.5292960     1.3442740
  H        4.4878230     0.6919580    -0.7653020
  H        3.2457620    -0.2529490    -1.5933530
  H        1.9831950    -2.1398170    -0.2152240
  H        2.4267450    -2.3652010     1.4815110
  H        2.7768740     1.6847790     0.7291870
  H        2.2671880     1.9220510    -0.9540200
  H        0.3069530    -1.0243470     1.2170770
  H        1.5834140    -0.1085280     2.0346680
  H       -0.4031770    -1.5700500    -1.4080150
  H       -4.3043690     0.2928860     1.0181070
  H       -2.0253310     2.7815300     0.2022010
  H       -3.1368610     2.2826280     1.5002420
  H       -1.3844770     2.1136550     1.7007310
  H       -2.4977120    -2.9041740    -1.2220500
  H       -4.4499260    -1.9612690     0.0072960
units angstrom
no_reorient  #important for SAPT in psi4, default
symmetry c1  #important for SAPT in psi4, default
}

set PROPERTIES_ORIGIN ["COM"]
properties('MP2/aug-cc-pvtz', properties = ['dipole'])
--------------------------------------------------------------------------

    Molecular point group: c1
  Charge       = 0
  Multiplicity = 1
  Basis Set: AUG-CC-PVTZ
    Blend: AUG-CC-PVTZ
  Basis Set: (AUG-CC-PVTZ AUX)
    Blend: AUG-CC-PVTZ-JKFIT

    Orbital Energies [Eh]
    ---------------------

    Doubly Occupied:

       1A    -20.510067     2A    -15.583361     3A    -11.349249
       4A    -11.265894     5A    -11.258291     6A    -11.257770
       7A    -11.254319     8A    -11.244186     9A    -11.243363
      10A    -11.240685    11A    -11.230114    12A    -11.228713
      13A    -11.227946    14A    -11.225368    15A    -11.220226
      16A     -1.366063    17A     -1.248892    18A     -1.156025
      19A     -1.083314    20A     -1.066446    21A     -1.036171
      22A     -1.020095    23A     -0.954249    24A     -0.918932
      25A     -0.869038    26A     -0.846948    27A     -0.796204
      28A     -0.792542    29A     -0.740908    30A     -0.710370
      31A     -0.670492    32A     -0.650570    33A     -0.648096
      34A     -0.627641    35A     -0.620183    36A     -0.613283
      37A     -0.596695    38A     -0.592154    39A     -0.586256
      40A     -0.581114    41A     -0.558967    42A     -0.548387
      43A     -0.542000    44A     -0.529335    45A     -0.522066
      46A     -0.502126    47A     -0.487295    48A     -0.479074
      49A     -0.469158    50A     -0.461160    51A     -0.451976
      52A     -0.413761    53A     -0.365741    54A     -0.354070
      55A     -0.312771

  @DF-RHF Final Energy:  -631.68784877480334

   => Energetics <=

    Nuclear Repulsion Energy =            997.4497250718270607
    One-Electron Energy =               -2838.0149048130092524
    Two-Electron Energy =                1208.8773309663788496
    Total Energy =                       -631.6878487748033422
  Basis Set: (AUG-CC-PVTZ AUX)
    Blend: AUG-CC-PVTZ-RI
    Molecular point group: c1

    Geometry (in Angstrom), charge = 0, multiplicity = 1:

       Center              X                  Y                   Z               Mass
    ------------   -----------------  -----------------  -----------------  -----------------
         O            0.065879089073     1.932302464981    -1.189463339003    15.994914619570
         N            1.265444089073     0.444679464981     0.079084660997    14.003074004430
         C            3.736552089073    -0.969168535019     0.426685660997    12.000000000000
         C            3.589171089073     0.151104464981    -0.603636339003    12.000000000000
         C            2.388505089073    -1.636225535019     0.703281660997    12.000000000000
         C            2.519151089073     1.149507464981    -0.171697339003    12.000000000000
         C            1.346424089073    -0.594206535019     1.099968660997    12.000000000000
         C            0.107676089073     0.910647464981    -0.490344339003    12.000000000000
         C           -1.125874910927     0.083866464981    -0.275186339003    12.000000000000
         C           -2.384025310927     0.716151064981     0.499303060997    12.000000000000
         C           -1.207328910927    -1.189854535019    -0.851141339003    12.000000000000
         C           -3.390468910927    -0.133556535019     0.507371660997    12.000000000000
         C           -2.151632910927     2.018666464981     1.000383660997    12.000000000000
         C           -2.381699910927    -1.936385535019    -0.748113339003    12.000000000000
         C           -3.475511910927    -1.405686535019    -0.063480339003    12.000000000000
         H            4.468046089073    -1.711011535019     0.086586660997     1.007825032230
         H            4.125954089073    -0.547476535019     1.363676660997     1.007825032230
         H            4.542774089073     0.673777464981    -0.745899339003     1.007825032230
         H            3.300713089073    -0.271129535019    -1.573950339003     1.007825032230
         H            2.038146089073    -2.157997535019    -0.195821339003     1.007825032230
         H            2.481696089073    -2.383381535019     1.500913660997     1.007825032230
         H            2.831825089073     1.666598464981     0.748589660997     1.007825032230
         H            2.322139089073     1.903870464981    -0.934617339003     1.007825032230
         H            0.361904089073    -1.042527535019     1.236479660997     1.007825032230
         H            1.638365089073    -0.126708535019     2.054070660997     1.007825032230
         H           -0.348225910927    -1.588230535019    -1.388612339003     1.007825032230
         H           -4.249417910927     0.274705464981     1.037509660997     1.007825032230
         H           -1.970379910927     2.763349464981     0.221603660997     1.007825032230
         H           -3.081909910927     2.264447464981     1.519644660997     1.007825032230
         H           -1.329525910927     2.095474464981     1.720133660997     1.007825032230
         H           -2.442760910927    -2.922354535019    -1.202647339003     1.007825032230
         H           -4.394974910927    -1.979449535019     0.026698660997     1.007825032230

  Basis Set: AUG-CC-PVTZ
    Blend: AUG-CC-PVTZ
  Basis Set: (AUG-CC-PVTZ AUX)
    Blend: AUG-CC-PVTZ-JKFIT
	 Reference Energy          =    -631.6878487748033422 [Eh]
	 Singles Energy            =      -0.0000000000000000 [Eh]
	 Same-Spin Energy          =      -0.6899730810580197 [Eh]
	 Opposite-Spin Energy      =      -2.2159110519422183 [Eh]
	 Correlation Energy        =      -2.9058841330002378 [Eh]
	 Total Energy              =    -634.5937329078035418 [Eh]

	 ================> DF-SCS-MP2 Energies <==================
	-----------------------------------------------------------
	 SCS Same-Spin Scale       =       0.3333333333333333 [-]
	 SCS Opposite-Spin Scale   =       1.2000000000000000 [-]
	 SCS Same-Spin Energy      =      -0.2299910270193399 [Eh]
	 SCS Opposite-Spin Energy  =      -2.6590932623306620 [Eh]
	 SCS Correlation Energy    =      -2.8890842893500017 [Eh]
	 SCS Total Energy          =    -634.5769330641533088 [Eh]
	-----------------------------------------------------------

  Dipole Moment: [D]
     X:     1.4210      Y:    -2.3877      Z:     2.3482     Total:     3.6379

*** Psi4 exiting successfully. Buy a developer a beer!
