                               Psi4 1.4a3.dev225

  ==> Input File <==

--------------------------------------------------------------------------
#psi4
#
memory 32 gb

molecule  {
0 1
  O        0.0109280     1.9504830    -1.2088660
  N        1.2104930     0.4628600     0.0596820
  C        3.6816010    -0.9509880     0.4072830
  C        3.5342200     0.1692850    -0.6230390
  C        2.3335540    -1.6180450     0.6838790
  C        2.4642000     1.1676880    -0.1911000
  C        1.2914730    -0.5760260     1.0805660
  C        0.0527250     0.9288280    -0.5097470
  C       -1.1808260     0.1020470    -0.2945890
  C       -2.2823960     0.6556420     0.3835130
  C       -1.2622800    -1.1716740    -0.8705440
  C       -3.4454200    -0.1153760     0.4879690
  C       -2.2065840     2.0368470     0.9809810
  C       -2.4366510    -1.9182050    -0.7675160
  C       -3.5292454    -1.3692928    -0.0747101
  H        4.4130950    -1.6928310     0.0671840
  H        4.0710030    -0.5292960     1.3442740
  H        4.4878230     0.6919580    -0.7653020
  H        3.2457620    -0.2529490    -1.5933530
  H        1.9831950    -2.1398170    -0.2152240
  H        2.4267450    -2.3652010     1.4815110
  H        2.7768740     1.6847790     0.7291870
  H        2.2671880     1.9220510    -0.9540200
  H        0.3069530    -1.0243470     1.2170770
  H        1.5834140    -0.1085280     2.0346680
  H       -0.4031770    -1.5700500    -1.4080150
  H       -4.3043690     0.2928860     1.0181070
  H       -2.0253310     2.7815300     0.2022010
  H       -3.1368610     2.2826280     1.5002420
  H       -1.3844770     2.1136550     1.7007310
  H       -2.4977120    -2.9041740    -1.2220500
  H       -4.4499260    -1.9612690     0.0072960
units angstrom
no_reorient  #important for SAPT in psi4, default
symmetry c1  #important for SAPT in psi4, default
}

set PROPERTIES_ORIGIN ["COM"]
properties('MP2/aug-cc-pvtz', properties = ['dipole'])
--------------------------------------------------------------------------

    Molecular point group: c1
  Charge       = 0
  Multiplicity = 1
  Basis Set: AUG-CC-PVTZ
    Blend: AUG-CC-PVTZ
  Basis Set: (AUG-CC-PVTZ AUX)
    Blend: AUG-CC-PVTZ-JKFIT

    Orbital Energies [Eh]
    ---------------------

    Doubly Occupied:

       1A    -20.510684     2A    -15.583816     3A    -11.349334
       4A    -11.267067     5A    -11.254586     6A    -11.252094
       7A    -11.246133     8A    -11.244614     9A    -11.242401
      10A    -11.239907    11A    -11.234944    12A    -11.230606
      13A    -11.228294    14A    -11.225643    15A    -11.220425
      16A     -1.366895    17A     -1.249524    18A     -1.162346
      19A     -1.083629    20A     -1.049756    21A     -1.038209
      22A     -1.024192    23A     -0.944065    24A     -0.918346
      25A     -0.867101    26A     -0.842938    27A     -0.815891
      28A     -0.791223    29A     -0.742680    30A     -0.712535
      31A     -0.665781    32A     -0.652590    33A     -0.648462
      34A     -0.627725    35A     -0.620750    36A     -0.615466
      37A     -0.596611    38A     -0.588052    39A     -0.576693
      40A     -0.572007    41A     -0.559580    42A     -0.546716
      43A     -0.541303    44A     -0.524748    45A     -0.507029
      46A     -0.502456    47A     -0.491483    48A     -0.489784
      49A     -0.478651    50A     -0.469604    51A     -0.461540
      52A     -0.416840    53A     -0.366179    54A     -0.342496
      55A     -0.328325

  @DF-RHF Final Energy:  -631.73028135357868

   => Energetics <=

    Nuclear Repulsion Energy =           1000.2045095840645672
    One-Electron Energy =               -2843.6080907046734865
    Two-Electron Energy =                1211.6732997670303575
    Total Energy =                       -631.7302813535786754
  Basis Set: (AUG-CC-PVTZ AUX)
    Blend: AUG-CC-PVTZ-RI
    Molecular point group: c1

    Geometry (in Angstrom), charge = 0, multiplicity = 1:

       Center              X                  Y                   Z               Mass
    ------------   -----------------  -----------------  -----------------  -----------------
         O            0.056557144772     1.935875118831    -1.184252052069    15.994914619570
         N            1.256122144772     0.448252118831     0.084295947931    14.003074004430
         C            3.727230144772    -0.965595881169     0.431896947931    12.000000000000
         C            3.579849144772     0.154677118831    -0.598425052069    12.000000000000
         C            2.379183144772    -1.632652881169     0.708492947931    12.000000000000
         C            2.509829144772     1.153080118831    -0.166486052069    12.000000000000
         C            1.337102144772    -0.590633881169     1.105179947931    12.000000000000
         C            0.098354144772     0.914220118831    -0.485133052069    12.000000000000
         C           -1.135196855228     0.087439118831    -0.269975052069    12.000000000000
         C           -2.236766855228     0.641034118831     0.408126947931    12.000000000000
         C           -1.216650855228    -1.186281881169    -0.845930052069    12.000000000000
         C           -3.399790855228    -0.129983881169     0.512582947931    12.000000000000
         C           -2.160954855228     2.022239118831     1.005594947931    12.000000000000
         C           -2.391021855228    -1.932812881169    -0.742902052069    12.000000000000
         C           -3.483616255228    -1.383900681169    -0.050096152069    12.000000000000
         H            4.458724144772    -1.707438881169     0.091797947931     1.007825032230
         H            4.116632144772    -0.543903881169     1.368887947931     1.007825032230
         H            4.533452144772     0.677350118831    -0.740688052069     1.007825032230
         H            3.291391144772    -0.267556881169    -1.568739052069     1.007825032230
         H            2.028824144772    -2.154424881169    -0.190610052069     1.007825032230
         H            2.472374144772    -2.379808881169     1.506124947931     1.007825032230
         H            2.822503144772     1.670171118831     0.753800947931     1.007825032230
         H            2.312817144772     1.907443118831    -0.929406052069     1.007825032230
         H            0.352582144772    -1.038954881169     1.241690947931     1.007825032230
         H            1.629043144772    -0.123135881169     2.059281947931     1.007825032230
         H           -0.357547855228    -1.584657881169    -1.383401052069     1.007825032230
         H           -4.258739855228     0.278278118831     1.042720947931     1.007825032230
         H           -1.979701855228     2.766922118831     0.226814947931     1.007825032230
         H           -3.091231855228     2.268020118831     1.524855947931     1.007825032230
         H           -1.338847855228     2.099047118831     1.725344947931     1.007825032230
         H           -2.452082855228    -2.918781881169    -1.197436052069     1.007825032230
         H           -4.404296855228    -1.975876881169     0.031909947931     1.007825032230

  Basis Set: AUG-CC-PVTZ
    Blend: AUG-CC-PVTZ
  Basis Set: (AUG-CC-PVTZ AUX)
    Blend: AUG-CC-PVTZ-JKFIT
	 Reference Energy          =    -631.7302813535786754 [Eh]
	 Singles Energy            =      -0.0000000000000000 [Eh]
	 Same-Spin Energy          =      -0.6890230588237610 [Eh]
	 Opposite-Spin Energy      =      -2.2122259622619507 [Eh]
	 Correlation Energy        =      -2.9012490210857118 [Eh]
	 Total Energy              =    -634.6315303746644076 [Eh]

	 ================> DF-SCS-MP2 Energies <==================
	-----------------------------------------------------------
	 SCS Same-Spin Scale       =       0.3333333333333333 [-]
	 SCS Opposite-Spin Scale   =       1.2000000000000000 [-]
	 SCS Same-Spin Energy      =      -0.2296743529412537 [Eh]
	 SCS Opposite-Spin Energy  =      -2.6546711547143409 [Eh]
	 SCS Correlation Energy    =      -2.8843455076555946 [Eh]
	 SCS Total Energy          =    -634.6146268612342283 [Eh]
	-----------------------------------------------------------

  Dipole Moment: [D]
     X:     1.4069      Y:    -2.5207      Z:     2.3022     Total:     3.6923

*** Psi4 exiting successfully. Buy a developer a beer!
