                               Psi4 1.4a3.dev225

  ==> Input File <==

--------------------------------------------------------------------------
#psi4
#
memory 32 gb

molecule  {
0 1
  O        0.0109280     1.9504830    -1.2088660
  N        1.2104930     0.4628600     0.0596820
  C        3.6816010    -0.9509880     0.4072830
  C        3.5342200     0.1692850    -0.6230390
  C        2.3335540    -1.6180450     0.6838790
  C        2.4642000     1.1676880    -0.1911000
  C        1.2573319    -0.5418869     1.0935624
  C        0.0527250     0.9288280    -0.5097470
  C       -1.1808260     0.1020470    -0.2945890
  C       -2.2823960     0.6556420     0.3835130
  C       -1.2622800    -1.1716740    -0.8705440
  C       -3.4454200    -0.1153760     0.4879690
  C       -2.2065840     2.0368470     0.9809810
  C       -2.4366510    -1.9182050    -0.7675160
  C       -3.5304630    -1.3875060    -0.0828830
  H        4.4130950    -1.6928310     0.0671840
  H        4.0710030    -0.5292960     1.3442740
  H        4.4878230     0.6919580    -0.7653020
  H        3.2457620    -0.2529490    -1.5933530
  H        1.9831950    -2.1398170    -0.2152240
  H        2.4267450    -2.3652010     1.4815110
  H        2.7768740     1.6847790     0.7291870
  H        2.2671880     1.9220510    -0.9540200
  H        0.3069530    -1.0243470     1.2170770
  H        1.5834140    -0.1085280     2.0346680
  H       -0.4031770    -1.5700500    -1.4080150
  H       -4.3043690     0.2928860     1.0181070
  H       -2.0253310     2.7815300     0.2022010
  H       -3.1368610     2.2826280     1.5002420
  H       -1.3844770     2.1136550     1.7007310
  H       -2.4977120    -2.9041740    -1.2220500
  H       -4.4499260    -1.9612690     0.0072960
units angstrom
no_reorient  #important for SAPT in psi4, default
symmetry c1  #important for SAPT in psi4, default
}

set PROPERTIES_ORIGIN ["COM"]
properties('MP2/aug-cc-pvtz', properties = ['dipole'])
--------------------------------------------------------------------------

    Molecular point group: c1
  Charge       = 0
  Multiplicity = 1
  Basis Set: AUG-CC-PVTZ
    Blend: AUG-CC-PVTZ
  Basis Set: (AUG-CC-PVTZ AUX)
    Blend: AUG-CC-PVTZ-JKFIT

    Orbital Energies [Eh]
    ---------------------

    Doubly Occupied:

       1A    -20.511468     2A    -15.584428     3A    -11.349520
       4A    -11.265073     5A    -11.255596     6A    -11.252076
       7A    -11.246528     8A    -11.245258     9A    -11.242834
      10A    -11.239343    11A    -11.237196    12A    -11.231199
      13A    -11.227690    14A    -11.225450    15A    -11.220626
      16A     -1.367904    17A     -1.252330    18A     -1.161664
      19A     -1.080986    20A     -1.050915    21A     -1.035218
      22A     -1.021727    23A     -0.943339    24A     -0.918801
      25A     -0.869430    26A     -0.843770    27A     -0.815099
      28A     -0.790229    29A     -0.744123    30A     -0.713406
      31A     -0.667082    32A     -0.654051    33A     -0.649134
      34A     -0.628768    35A     -0.621000    36A     -0.614823
      37A     -0.596120    38A     -0.588119    39A     -0.575947
      40A     -0.572004    41A     -0.562122    42A     -0.544762
      43A     -0.541933    44A     -0.524062    45A     -0.506705
      46A     -0.502397    47A     -0.491972    48A     -0.489099
      49A     -0.476890    50A     -0.469879    51A     -0.462935
      52A     -0.417484    53A     -0.364233    54A     -0.340250
      55A     -0.330238

  @DF-RHF Final Energy:  -631.72899700649259

   => Energetics <=

    Nuclear Repulsion Energy =            999.9888470336259161
    One-Electron Energy =               -2843.1652194924658943
    Two-Electron Energy =                1211.4473754523473872
    Total Energy =                       -631.7289970064925910
  Basis Set: (AUG-CC-PVTZ AUX)
    Blend: AUG-CC-PVTZ-RI
    Molecular point group: c1

    Geometry (in Angstrom), charge = 0, multiplicity = 1:

       Center              X                  Y                   Z               Mass
    ------------   -----------------  -----------------  -----------------  -----------------
         O            0.058645966126     1.934934293518    -1.184537001171    15.994914619570
         N            1.258210966126     0.447311293518     0.084010998829    14.003074004430
         C            3.729318966126    -0.966536706482     0.431611998829    12.000000000000
         C            3.581937966126     0.153736293518    -0.598710001171    12.000000000000
         C            2.381271966126    -1.633593706482     0.708207998829    12.000000000000
         C            2.511917966126     1.152139293518    -0.166771001171    12.000000000000
         C            1.305049866126    -0.557435606482     1.117891398829    12.000000000000
         C            0.100442966126     0.913279293518    -0.485418001171    12.000000000000
         C           -1.133108033874     0.086498293518    -0.270260001171    12.000000000000
         C           -2.234678033874     0.640093293518     0.407841998829    12.000000000000
         C           -1.214562033874    -1.187222706482    -0.846215001171    12.000000000000
         C           -3.397702033874    -0.130924706482     0.512297998829    12.000000000000
         C           -2.158866033874     2.021298293518     1.005309998829    12.000000000000
         C           -2.388933033874    -1.933753706482    -0.743187001171    12.000000000000
         C           -3.482745033874    -1.403054706482    -0.058554001171    12.000000000000
         H            4.460812966126    -1.708379706482     0.091512998829     1.007825032230
         H            4.118720966126    -0.544844706482     1.368602998829     1.007825032230
         H            4.535540966126     0.676409293518    -0.740973001171     1.007825032230
         H            3.293479966126    -0.268497706482    -1.569024001171     1.007825032230
         H            2.030912966126    -2.155365706482    -0.190895001171     1.007825032230
         H            2.474462966126    -2.380749706482     1.505839998829     1.007825032230
         H            2.824591966126     1.669230293518     0.753515998829     1.007825032230
         H            2.314905966126     1.906502293518    -0.929691001171     1.007825032230
         H            0.354670966126    -1.039895706482     1.241405998829     1.007825032230
         H            1.631131966126    -0.124076706482     2.058996998829     1.007825032230
         H           -0.355459033874    -1.585598706482    -1.383686001171     1.007825032230
         H           -4.256651033874     0.277337293518     1.042435998829     1.007825032230
         H           -1.977613033874     2.765981293518     0.226529998829     1.007825032230
         H           -3.089143033874     2.267079293518     1.524570998829     1.007825032230
         H           -1.336759033874     2.098106293518     1.725059998829     1.007825032230
         H           -2.449994033874    -2.919722706482    -1.197721001171     1.007825032230
         H           -4.402208033874    -1.976817706482     0.031624998829     1.007825032230

  Basis Set: AUG-CC-PVTZ
    Blend: AUG-CC-PVTZ
  Basis Set: (AUG-CC-PVTZ AUX)
    Blend: AUG-CC-PVTZ-JKFIT
	 Reference Energy          =    -631.7289970064925910 [Eh]
	 Singles Energy            =      -0.0000000000000000 [Eh]
	 Same-Spin Energy          =      -0.6888333247372529 [Eh]
	 Opposite-Spin Energy      =      -2.2121429748618331 [Eh]
	 Correlation Energy        =      -2.9009762995990860 [Eh]
	 Total Energy              =    -634.6299733060916424 [Eh]

	 ================> DF-SCS-MP2 Energies <==================
	-----------------------------------------------------------
	 SCS Same-Spin Scale       =       0.3333333333333333 [-]
	 SCS Opposite-Spin Scale   =       1.2000000000000000 [-]
	 SCS Same-Spin Energy      =      -0.2296111082457510 [Eh]
	 SCS Opposite-Spin Energy  =      -2.6545715698341996 [Eh]
	 SCS Correlation Energy    =      -2.8841826780799504 [Eh]
	 SCS Total Energy          =    -634.6131796845725148 [Eh]
	-----------------------------------------------------------

  Dipole Moment: [D]
     X:     1.3587      Y:    -2.4503      Z:     2.2938     Total:     3.6210

*** Psi4 exiting successfully. Buy a developer a beer!
