                               Psi4 1.4a3.dev225

  ==> Input File <==

--------------------------------------------------------------------------
#psi4
#
memory 32 gb

molecule  {
0 1
  O        0.0109280     1.9504830    -1.2088660
  N        1.2104930     0.4628600     0.0596820
  C        3.6816010    -0.9509880     0.4072830
  C        3.5342200     0.1692850    -0.6230390
  C        2.3335540    -1.6180450     0.6838790
  C        2.4642000     1.1676880    -0.1911000
  C        1.2914730    -0.5760260     1.0805660
  C        0.0527250     0.9288280    -0.5097470
  C       -1.1808260     0.1020470    -0.2945890
  C       -2.2823960     0.6556420     0.3835130
  C       -1.2622800    -1.1716740    -0.8705440
  C       -3.4454200    -0.1153760     0.4879690
  C       -2.2065840     2.0368470     0.9809810
  C       -2.4366510    -1.9182050    -0.7675160
  C       -3.5304630    -1.3875060    -0.0828830
  H        4.4130950    -1.6928310     0.0671840
  H        4.0710030    -0.5292960     1.3442740
  H        4.4878230     0.6919580    -0.7653020
  H        3.2457620    -0.2529490    -1.5933530
  H        1.9831950    -2.1398170    -0.2152240
  H        2.4267450    -2.3652010     1.4815110
  H        2.7768740     1.6847790     0.7291870
  H        2.2671880     1.9220510    -0.9540200
  H        0.3069530    -1.0243470     1.2170770
  H        1.5834140    -0.1085280     2.0346680
  H       -0.4031770    -1.5700500    -1.4080150
  H       -4.4621459     0.3678780     1.1154859
  H       -2.0253310     2.7815300     0.2022010
  H       -3.1368610     2.2826280     1.5002420
  H       -1.3844770     2.1136550     1.7007310
  H       -2.4977120    -2.9041740    -1.2220500
  H       -4.4499260    -1.9612690     0.0072960
units angstrom
no_reorient  #important for SAPT in psi4, default
symmetry c1  #important for SAPT in psi4, default
}

set PROPERTIES_ORIGIN ["COM"]
properties('MP2/aug-cc-pvtz', properties = ['dipole'])
--------------------------------------------------------------------------

    Molecular point group: c1
  Charge       = 0
  Multiplicity = 1
  Basis Set: AUG-CC-PVTZ
    Blend: AUG-CC-PVTZ
  Basis Set: (AUG-CC-PVTZ AUX)
    Blend: AUG-CC-PVTZ-JKFIT

    Orbital Energies [Eh]
    ---------------------

    Doubly Occupied:

       1A    -20.511508     2A    -15.584583     3A    -11.350445
       4A    -11.267577     5A    -11.258905     6A    -11.255104
       7A    -11.254267     8A    -11.247816     9A    -11.246630
      10A    -11.244985    11A    -11.240929    12A    -11.231056
      13A    -11.228684    14A    -11.226066    15A    -11.220137
      16A     -1.367725    17A     -1.250217    18A     -1.162300
      19A     -1.084027    20A     -1.051902    21A     -1.036495
      22A     -1.021964    23A     -0.942339    24A     -0.919321
      25A     -0.867881    26A     -0.842723    27A     -0.810476
      28A     -0.791863    29A     -0.740705    30A     -0.707165
      31A     -0.667865    32A     -0.653880    33A     -0.648904
      34A     -0.627723    35A     -0.617581    36A     -0.611419
      37A     -0.590762    38A     -0.587769    39A     -0.572551
      40A     -0.570949    41A     -0.559691    42A     -0.546796
      43A     -0.534719    44A     -0.525317    45A     -0.508369
      46A     -0.502582    47A     -0.491845    48A     -0.482481
      49A     -0.476823    50A     -0.470045    51A     -0.462004
      52A     -0.417597    53A     -0.366788    54A     -0.341488
      55A     -0.331555

  @DF-RHF Final Energy:  -631.70851802412005

   => Energetics <=

    Nuclear Repulsion Energy =            998.9696473002364883
    One-Electron Energy =               -2841.0897330876896376
    Two-Electron Energy =                1210.4115677633333235
    Total Energy =                       -631.7085180241199396
  Basis Set: (AUG-CC-PVTZ AUX)
    Blend: AUG-CC-PVTZ-RI
    Molecular point group: c1

    Geometry (in Angstrom), charge = 0, multiplicity = 1:

       Center              X                  Y                   Z               Mass
    ------------   -----------------  -----------------  -----------------  -----------------
         O            0.057411877419     1.936578997487    -1.184252377441    15.994914619570
         N            1.256976877419     0.448955997487     0.084295622559    14.003074004430
         C            3.728084877419    -0.964892002513     0.431896622559    12.000000000000
         C            3.580703877419     0.155380997487    -0.598425377441    12.000000000000
         C            2.380037877419    -1.631949002513     0.708492622559    12.000000000000
         C            2.510683877419     1.153783997487    -0.166486377441    12.000000000000
         C            1.337956877419    -0.589930002513     1.105179622559    12.000000000000
         C            0.099208877419     0.914923997487    -0.485133377441    12.000000000000
         C           -1.134342122581     0.088142997487    -0.269975377441    12.000000000000
         C           -2.235912122581     0.641737997487     0.408126622559    12.000000000000
         C           -1.215796122581    -1.185578002513    -0.845930377441    12.000000000000
         C           -3.398936122581    -0.129280002513     0.512582622559    12.000000000000
         C           -2.160100122581     2.022942997487     1.005594622559    12.000000000000
         C           -2.390167122581    -1.932109002513    -0.742902377441    12.000000000000
         C           -3.483979122581    -1.401410002513    -0.058269377441    12.000000000000
         H            4.459578877419    -1.706735002513     0.091797622559     1.007825032230
         H            4.117486877419    -0.543200002513     1.368887622559     1.007825032230
         H            4.534306877419     0.678053997487    -0.740688377441     1.007825032230
         H            3.292245877419    -0.266853002513    -1.568739377441     1.007825032230
         H            2.029678877419    -2.153721002513    -0.190610377441     1.007825032230
         H            2.473228877419    -2.379105002513     1.506124622559     1.007825032230
         H            2.823357877419     1.670874997487     0.753800622559     1.007825032230
         H            2.313671877419     1.908146997487    -0.929406377441     1.007825032230
         H            0.353436877419    -1.038251002513     1.241690622559     1.007825032230
         H            1.629897877419    -0.122432002513     2.059281622559     1.007825032230
         H           -0.356693122581    -1.583954002513    -1.383401377441     1.007825032230
         H           -4.415662022581     0.353973997487     1.140099522559     1.007825032230
         H           -1.978847122581     2.767625997487     0.226814622559     1.007825032230
         H           -3.090377122581     2.268723997487     1.524855622559     1.007825032230
         H           -1.337993122581     2.099750997487     1.725344622559     1.007825032230
         H           -2.451228122581    -2.918078002513    -1.197436377441     1.007825032230
         H           -4.403442122581    -1.975173002513     0.031909622559     1.007825032230

  Basis Set: AUG-CC-PVTZ
    Blend: AUG-CC-PVTZ
  Basis Set: (AUG-CC-PVTZ AUX)
    Blend: AUG-CC-PVTZ-JKFIT
	 Reference Energy          =    -631.7085180241200533 [Eh]
	 Singles Energy            =      -0.0000000000000000 [Eh]
	 Same-Spin Energy          =      -0.6896066610497947 [Eh]
	 Opposite-Spin Energy      =      -2.2145102096031968 [Eh]
	 Correlation Energy        =      -2.9041168706529916 [Eh]
	 Total Energy              =    -634.6126348947730094 [Eh]

	 ================> DF-SCS-MP2 Energies <==================
	-----------------------------------------------------------
	 SCS Same-Spin Scale       =       0.3333333333333333 [-]
	 SCS Opposite-Spin Scale   =       1.2000000000000000 [-]
	 SCS Same-Spin Energy      =      -0.2298688870165982 [Eh]
	 SCS Opposite-Spin Energy  =      -2.6574122515238359 [Eh]
	 SCS Correlation Energy    =      -2.8872811385404340 [Eh]
	 SCS Total Energy          =    -634.5957991626604553 [Eh]
	-----------------------------------------------------------

  Dipole Moment: [D]
     X:     1.5161      Y:    -2.5602      Z:     2.2483     Total:     3.7294

*** Psi4 exiting successfully. Buy a developer a beer!
