                               Psi4 1.4a3.dev225

  ==> Input File <==

--------------------------------------------------------------------------
#psi4
#
memory 32 gb

molecule  {
0 1
  O        0.0109280     1.9504830    -1.2088660
  N        1.1859854     0.4255227     0.0769444
  C        3.6816010    -0.9509880     0.4072830
  C        3.5342200     0.1692850    -0.6230390
  C        2.3335540    -1.6180450     0.6838790
  C        2.4642000     1.1676880    -0.1911000
  C        1.2914730    -0.5760260     1.0805660
  C        0.0527250     0.9288280    -0.5097470
  C       -1.1808260     0.1020470    -0.2945890
  C       -2.2823960     0.6556420     0.3835130
  C       -1.2622800    -1.1716740    -0.8705440
  C       -3.4454200    -0.1153760     0.4879690
  C       -2.2065840     2.0368470     0.9809810
  C       -2.4366510    -1.9182050    -0.7675160
  C       -3.5304630    -1.3875060    -0.0828830
  H        4.4130950    -1.6928310     0.0671840
  H        4.0710030    -0.5292960     1.3442740
  H        4.4878230     0.6919580    -0.7653020
  H        3.2457620    -0.2529490    -1.5933530
  H        1.9831950    -2.1398170    -0.2152240
  H        2.4267450    -2.3652010     1.4815110
  H        2.7768740     1.6847790     0.7291870
  H        2.2671880     1.9220510    -0.9540200
  H        0.3069530    -1.0243470     1.2170770
  H        1.5834140    -0.1085280     2.0346680
  H       -0.4031770    -1.5700500    -1.4080150
  H       -4.3043690     0.2928860     1.0181070
  H       -2.0253310     2.7815300     0.2022010
  H       -3.1368610     2.2826280     1.5002420
  H       -1.3844770     2.1136550     1.7007310
  H       -2.4977120    -2.9041740    -1.2220500
  H       -4.4499260    -1.9612690     0.0072960
units angstrom
no_reorient  #important for SAPT in psi4, default
symmetry c1  #important for SAPT in psi4, default
}

set PROPERTIES_ORIGIN ["COM"]
properties('MP2/aug-cc-pvtz', properties = ['dipole'])
--------------------------------------------------------------------------

    Molecular point group: c1
  Charge       = 0
  Multiplicity = 1
  Basis Set: AUG-CC-PVTZ
    Blend: AUG-CC-PVTZ
  Basis Set: (AUG-CC-PVTZ AUX)
    Blend: AUG-CC-PVTZ-JKFIT

    Orbital Energies [Eh]
    ---------------------

    Doubly Occupied:

       1A    -20.513129     2A    -15.584938     3A    -11.350690
       4A    -11.264665     5A    -11.258335     6A    -11.250845
       7A    -11.245261     8A    -11.243334     9A    -11.241839
      10A    -11.238439    11A    -11.236273    12A    -11.229965
      13A    -11.228492    14A    -11.226735    15A    -11.220018
      16A     -1.367244    17A     -1.252524    18A     -1.160500
      19A     -1.084513    20A     -1.049929    21A     -1.034731
      22A     -1.024589    23A     -0.943206    24A     -0.919354
      25A     -0.866333    26A     -0.845063    27A     -0.815074
      28A     -0.790083    29A     -0.743538    30A     -0.711344
      31A     -0.667004    32A     -0.653818    33A     -0.649387
      34A     -0.626187    35A     -0.620805    36A     -0.615326
      37A     -0.595955    38A     -0.588623    39A     -0.574815
      40A     -0.571813    41A     -0.559075    42A     -0.548047
      43A     -0.542162    44A     -0.523799    45A     -0.508168
      46A     -0.502492    47A     -0.490702    48A     -0.488898
      49A     -0.478787    50A     -0.469289    51A     -0.462300
      52A     -0.415900    53A     -0.367963    54A     -0.339287
      55A     -0.329241

  @DF-RHF Final Energy:  -631.72748483571388

   => Energetics <=

    Nuclear Repulsion Energy =           1000.1835597716332131
    One-Electron Energy =               -2843.5604303233840255
    Two-Electron Energy =                1211.6493857160371590
    Total Energy =                       -631.7274848357137671
  Basis Set: (AUG-CC-PVTZ AUX)
    Blend: AUG-CC-PVTZ-RI
    Molecular point group: c1

    Geometry (in Angstrom), charge = 0, multiplicity = 1:

       Center              X                  Y                   Z               Mass
    ------------   -----------------  -----------------  -----------------  -----------------
         O            0.058318534769     1.939524957228    -1.184959240311    15.994914619570
         N            1.233375934769     0.414564657228     0.100851159689    14.003074004430
         C            3.728991534769    -0.961946042772     0.431189759689    12.000000000000
         C            3.581610534769     0.158326957228    -0.599132240311    12.000000000000
         C            2.380944534769    -1.629003042772     0.707785759689    12.000000000000
         C            2.511590534769     1.156729957228    -0.167193240311    12.000000000000
         C            1.338863534769    -0.586984042772     1.104472759689    12.000000000000
         C            0.100115534769     0.917869957228    -0.485840240311    12.000000000000
         C           -1.133435465231     0.091088957228    -0.270682240311    12.000000000000
         C           -2.235005465231     0.644683957228     0.407419759689    12.000000000000
         C           -1.214889465231    -1.182632042772    -0.846637240311    12.000000000000
         C           -3.398029465231    -0.126334042772     0.511875759689    12.000000000000
         C           -2.159193465231     2.025888957228     1.004887759689    12.000000000000
         C           -2.389260465231    -1.929163042772    -0.743609240311    12.000000000000
         C           -3.483072465231    -1.398464042772    -0.058976240311    12.000000000000
         H            4.460485534769    -1.703789042772     0.091090759689     1.007825032230
         H            4.118393534769    -0.540254042772     1.368180759689     1.007825032230
         H            4.535213534769     0.680999957228    -0.741395240311     1.007825032230
         H            3.293152534769    -0.263907042772    -1.569446240311     1.007825032230
         H            2.030585534769    -2.150775042772    -0.191317240311     1.007825032230
         H            2.474135534769    -2.376159042772     1.505417759689     1.007825032230
         H            2.824264534769     1.673820957228     0.753093759689     1.007825032230
         H            2.314578534769     1.911092957228    -0.930113240311     1.007825032230
         H            0.354343534769    -1.035305042772     1.240983759689     1.007825032230
         H            1.630804534769    -0.119486042772     2.058574759689     1.007825032230
         H           -0.355786465231    -1.581008042772    -1.384108240311     1.007825032230
         H           -4.256978465231     0.281927957228     1.042013759689     1.007825032230
         H           -1.977940465231     2.770571957228     0.226107759689     1.007825032230
         H           -3.089470465231     2.271669957228     1.524148759689     1.007825032230
         H           -1.337086465231     2.102696957228     1.724637759689     1.007825032230
         H           -2.450321465231    -2.915132042772    -1.198143240311     1.007825032230
         H           -4.402535465231    -1.972227042772     0.031202759689     1.007825032230

  Basis Set: AUG-CC-PVTZ
    Blend: AUG-CC-PVTZ
  Basis Set: (AUG-CC-PVTZ AUX)
    Blend: AUG-CC-PVTZ-JKFIT
	 Reference Energy          =    -631.7274848357138808 [Eh]
	 Singles Energy            =      -0.0000000000000000 [Eh]
	 Same-Spin Energy          =      -0.6893024159389173 [Eh]
	 Opposite-Spin Energy      =      -2.2128126010292428 [Eh]
	 Correlation Energy        =      -2.9021150169681600 [Eh]
	 Total Energy              =    -634.6295998526820767 [Eh]

	 ================> DF-SCS-MP2 Energies <==================
	-----------------------------------------------------------
	 SCS Same-Spin Scale       =       0.3333333333333333 [-]
	 SCS Opposite-Spin Scale   =       1.2000000000000000 [-]
	 SCS Same-Spin Energy      =      -0.2297674719796391 [Eh]
	 SCS Opposite-Spin Energy  =      -2.6553751212350911 [Eh]
	 SCS Correlation Energy    =      -2.8851425932147303 [Eh]
	 SCS Total Energy          =    -634.6126274289285902 [Eh]
	-----------------------------------------------------------

  Dipole Moment: [D]
     X:     1.4917      Y:    -2.4275      Z:     2.2583     Total:     3.6357

*** Psi4 exiting successfully. Buy a developer a beer!
