                               Psi4 1.4a3.dev225

  ==> Input File <==

--------------------------------------------------------------------------
#psi4
#
memory 32 gb

molecule  {
0 1
  O        0.0109280     1.9504830    -1.2088660
  N        1.2168507     0.4163712    -0.0857520
  C        3.6816010    -0.9509880     0.4072830
  C        3.5342200     0.1692850    -0.6230390
  C        2.3335540    -1.6180450     0.6838790
  C        2.4642000     1.1676880    -0.1911000
  C        1.2914730    -0.5760260     1.0805660
  C        0.0527250     0.9288280    -0.5097470
  C       -1.1808260     0.1020470    -0.2945890
  C       -2.2823960     0.6556420     0.3835130
  C       -1.2622800    -1.1716740    -0.8705440
  C       -3.4454200    -0.1153760     0.4879690
  C       -2.2065840     2.0368470     0.9809810
  C       -2.4366510    -1.9182050    -0.7675160
  C       -3.5304630    -1.3875060    -0.0828830
  H        4.4130950    -1.6928310     0.0671840
  H        4.0710030    -0.5292960     1.3442740
  H        4.4878230     0.6919580    -0.7653020
  H        3.2457620    -0.2529490    -1.5933530
  H        1.9831950    -2.1398170    -0.2152240
  H        2.4267450    -2.3652010     1.4815110
  H        2.7768740     1.6847790     0.7291870
  H        2.2671880     1.9220510    -0.9540200
  H        0.3069530    -1.0243470     1.2170770
  H        1.5834140    -0.1085280     2.0346680
  H       -0.4031770    -1.5700500    -1.4080150
  H       -4.3043690     0.2928860     1.0181070
  H       -2.0253310     2.7815300     0.2022010
  H       -3.1368610     2.2826280     1.5002420
  H       -1.3844770     2.1136550     1.7007310
  H       -2.4977120    -2.9041740    -1.2220500
  H       -4.4499260    -1.9612690     0.0072960
units angstrom
no_reorient  #important for SAPT in psi4, default
symmetry c1  #important for SAPT in psi4, default
}

set PROPERTIES_ORIGIN ["COM"]
properties('MP2/aug-cc-pvtz', properties = ['dipole'])
--------------------------------------------------------------------------

    Molecular point group: c1
  Charge       = 0
  Multiplicity = 1
  Basis Set: AUG-CC-PVTZ
    Blend: AUG-CC-PVTZ
  Basis Set: (AUG-CC-PVTZ AUX)
    Blend: AUG-CC-PVTZ-JKFIT

    Orbital Energies [Eh]
    ---------------------

    Doubly Occupied:

       1A    -20.507124     2A    -15.585573     3A    -11.343627
       4A    -11.273145     5A    -11.254773     6A    -11.251443
       7A    -11.245791     8A    -11.244565     9A    -11.242342
      10A    -11.238710    11A    -11.236608    12A    -11.231094
      13A    -11.228206    14A    -11.224152    15A    -11.220475
      16A     -1.368088    17A     -1.243054    18A     -1.161016
      19A     -1.085561    20A     -1.050654    21A     -1.037363
      22A     -1.019940    23A     -0.943588    24A     -0.922169
      25A     -0.863906    26A     -0.840602    27A     -0.812629
      28A     -0.788558    29A     -0.746316    30A     -0.712974
      31A     -0.665919    32A     -0.652848    33A     -0.647888
      34A     -0.631677    35A     -0.618206    36A     -0.609035
      37A     -0.595788    38A     -0.589125    39A     -0.574826
      40A     -0.572567    41A     -0.551788    42A     -0.546040
      43A     -0.538181    44A     -0.530328    45A     -0.506526
      46A     -0.503591    47A     -0.491625    48A     -0.488916
      49A     -0.476669    50A     -0.469880    51A     -0.452758
      52A     -0.416502    53A     -0.375256    54A     -0.339398
      55A     -0.329615

  @DF-RHF Final Energy:  -631.72170201236599

   => Energetics <=

    Nuclear Repulsion Energy =           1000.0734110898808922
    One-Electron Energy =               -2843.3922392916183526
    Two-Electron Energy =                1211.5971261893714654
    Total Energy =                       -631.7217020123659950
  Basis Set: (AUG-CC-PVTZ AUX)
    Blend: AUG-CC-PVTZ-RI
    Molecular point group: c1

    Geometry (in Angstrom), charge = 0, multiplicity = 1:

       Center              X                  Y                   Z               Mass
    ------------   -----------------  -----------------  -----------------  -----------------
         O            0.056190799220     1.940155826582    -1.173743573719    15.994914619570
         N            1.262113499220     0.406044026582    -0.050629573719    14.003074004430
         C            3.726863799220    -0.961315173418     0.442405426281    12.000000000000
         C            3.579482799220     0.158957826582    -0.587916573719    12.000000000000
         C            2.378816799220    -1.628372173418     0.719001426281    12.000000000000
         C            2.509462799220     1.157360826582    -0.155977573719    12.000000000000
         C            1.336735799220    -0.586353173418     1.115688426281    12.000000000000
         C            0.097987799220     0.918500826582    -0.474624573719    12.000000000000
         C           -1.135563200780     0.091719826582    -0.259466573719    12.000000000000
         C           -2.237133200780     0.645314826582     0.418635426281    12.000000000000
         C           -1.217017200780    -1.182001173418    -0.835421573719    12.000000000000
         C           -3.400157200780    -0.125703173418     0.523091426281    12.000000000000
         C           -2.161321200780     2.026519826582     1.016103426281    12.000000000000
         C           -2.391388200780    -1.928532173418    -0.732393573719    12.000000000000
         C           -3.485200200780    -1.397833173418    -0.047760573719    12.000000000000
         H            4.458357799220    -1.703158173418     0.102306426281     1.007825032230
         H            4.116265799220    -0.539623173418     1.379396426281     1.007825032230
         H            4.533085799220     0.681630826582    -0.730179573719     1.007825032230
         H            3.291024799220    -0.263276173418    -1.558230573719     1.007825032230
         H            2.028457799220    -2.150144173418    -0.180101573719     1.007825032230
         H            2.472007799220    -2.375528173418     1.516633426281     1.007825032230
         H            2.822136799220     1.674451826582     0.764309426281     1.007825032230
         H            2.312450799220     1.911723826582    -0.918897573719     1.007825032230
         H            0.352215799220    -1.034674173418     1.252199426281     1.007825032230
         H            1.628676799220    -0.118855173418     2.069790426281     1.007825032230
         H           -0.357914200780    -1.580377173418    -1.372892573719     1.007825032230
         H           -4.259106200780     0.282558826582     1.053229426281     1.007825032230
         H           -1.980068200780     2.771202826582     0.237323426281     1.007825032230
         H           -3.091598200780     2.272300826582     1.535364426281     1.007825032230
         H           -1.339214200780     2.103327826582     1.735853426281     1.007825032230
         H           -2.452449200780    -2.914501173418    -1.186927573719     1.007825032230
         H           -4.404663200780    -1.971596173418     0.042418426281     1.007825032230

  Basis Set: AUG-CC-PVTZ
    Blend: AUG-CC-PVTZ
  Basis Set: (AUG-CC-PVTZ AUX)
    Blend: AUG-CC-PVTZ-JKFIT
	 Reference Energy          =    -631.7217020123659950 [Eh]
	 Singles Energy            =      -0.0000000000000000 [Eh]
	 Same-Spin Energy          =      -0.6888723107046253 [Eh]
	 Opposite-Spin Energy      =      -2.2128172821289134 [Eh]
	 Correlation Energy        =      -2.9016895928335389 [Eh]
	 Total Energy              =    -634.6233916051995720 [Eh]

	 ================> DF-SCS-MP2 Energies <==================
	-----------------------------------------------------------
	 SCS Same-Spin Scale       =       0.3333333333333333 [-]
	 SCS Opposite-Spin Scale   =       1.2000000000000000 [-]
	 SCS Same-Spin Energy      =      -0.2296241035682084 [Eh]
	 SCS Opposite-Spin Energy  =      -2.6553807385546961 [Eh]
	 SCS Correlation Energy    =      -2.8850048421229046 [Eh]
	 SCS Total Energy          =    -634.6067068544889480 [Eh]
	-----------------------------------------------------------

  Dipole Moment: [D]
     X:     1.3956      Y:    -2.4828      Z:     2.5084     Total:     3.7953

*** Psi4 exiting successfully. Buy a developer a beer!
