                               Psi4 1.4a3.dev225

  ==> Input File <==

--------------------------------------------------------------------------
#psi4
#
memory 32 gb

molecule  {
0 1
  O        0.0109280     1.9504830    -1.2088660
  N        1.2104930     0.4628600     0.0596820
  C        3.6816010    -0.9509880     0.4072830
  C        3.5342200     0.1692850    -0.6230390
  C        2.3335540    -1.6180450     0.6838790
  C        2.4642000     1.1676880    -0.1911000
  C        1.2914730    -0.5760260     1.0805660
  C        0.0527250     0.9288280    -0.5097470
  C       -1.2350206     0.0215723    -0.3098170
  C       -2.2823960     0.6556420     0.3835130
  C       -1.2622800    -1.1716740    -0.8705440
  C       -3.4454200    -0.1153760     0.4879690
  C       -2.2065840     2.0368470     0.9809810
  C       -2.4366510    -1.9182050    -0.7675160
  C       -3.5304630    -1.3875060    -0.0828830
  H        4.4130950    -1.6928310     0.0671840
  H        4.0710030    -0.5292960     1.3442740
  H        4.4878230     0.6919580    -0.7653020
  H        3.2457620    -0.2529490    -1.5933530
  H        1.9831950    -2.1398170    -0.2152240
  H        2.4267450    -2.3652010     1.4815110
  H        2.7768740     1.6847790     0.7291870
  H        2.2671880     1.9220510    -0.9540200
  H        0.3069530    -1.0243470     1.2170770
  H        1.5834140    -0.1085280     2.0346680
  H       -0.4031770    -1.5700500    -1.4080150
  H       -4.3043690     0.2928860     1.0181070
  H       -2.0253310     2.7815300     0.2022010
  H       -3.1368610     2.2826280     1.5002420
  H       -1.3844770     2.1136550     1.7007310
  H       -2.4977120    -2.9041740    -1.2220500
  H       -4.4499260    -1.9612690     0.0072960
units angstrom
no_reorient  #important for SAPT in psi4, default
symmetry c1  #important for SAPT in psi4, default
}

set PROPERTIES_ORIGIN ["COM"]
properties('MP2/aug-cc-pvtz', properties = ['dipole'])
--------------------------------------------------------------------------

    Molecular point group: c1
  Charge       = 0
  Multiplicity = 1
  Basis Set: AUG-CC-PVTZ
    Blend: AUG-CC-PVTZ
  Basis Set: (AUG-CC-PVTZ AUX)
    Blend: AUG-CC-PVTZ-JKFIT

    Orbital Energies [Eh]
    ---------------------

    Doubly Occupied:

       1A    -20.511358     2A    -15.583288     3A    -11.351121
       4A    -11.267078     5A    -11.254256     6A    -11.250490
       7A    -11.242846     8A    -11.240079     9A    -11.238343
      10A    -11.235917    11A    -11.234761    12A    -11.230619
      13A    -11.228270    14A    -11.225554    15A    -11.223025
      16A     -1.364405    17A     -1.248501    18A     -1.169256
      19A     -1.082497    20A     -1.050761    21A     -1.038287
      22A     -1.025436    23A     -0.941170    24A     -0.919203
      25A     -0.865593    26A     -0.836121    27A     -0.818503
      28A     -0.793762    29A     -0.741474    30A     -0.709276
      31A     -0.663403    32A     -0.652212    33A     -0.647164
      34A     -0.626805    35A     -0.623308    36A     -0.614968
      37A     -0.595778    38A     -0.586958    39A     -0.576175
      40A     -0.572770    41A     -0.559879    42A     -0.548278
      43A     -0.542614    44A     -0.523558    45A     -0.505663
      46A     -0.504196    47A     -0.495845    48A     -0.492796
      49A     -0.479374    50A     -0.469494    51A     -0.461366
      52A     -0.406505    53A     -0.365973    54A     -0.348939
      55A     -0.327186

  @DF-RHF Final Energy:  -631.72099127971990

   => Energetics <=

    Nuclear Repulsion Energy =            999.7823457065732100
    One-Electron Energy =               -2842.7817617941223034
    Two-Electron Energy =                1211.2784248078289693
    Total Energy =                       -631.7209912797200104
  Basis Set: (AUG-CC-PVTZ AUX)
    Blend: AUG-CC-PVTZ-RI
    Molecular point group: c1

    Geometry (in Angstrom), charge = 0, multiplicity = 1:

       Center              X                  Y                   Z               Mass
    ------------   -----------------  -----------------  -----------------  -----------------
         O            0.059830630127     1.941705123692    -1.182869639831    15.994914619570
         N            1.259395630127     0.454082123692     0.085678360169    14.003074004430
         C            3.730503630127    -0.959765876308     0.433279360169    12.000000000000
         C            3.583122630127     0.160507123692    -0.597042639831    12.000000000000
         C            2.382456630127    -1.626822876308     0.709875360169    12.000000000000
         C            2.513102630127     1.158910123692    -0.165103639831    12.000000000000
         C            1.340375630127    -0.584803876308     1.106562360169    12.000000000000
         C            0.101627630127     0.920050123692    -0.483750639831    12.000000000000
         C           -1.186117969873     0.012794423692    -0.283820639831    12.000000000000
         C           -2.233493369873     0.646864123692     0.409509360169    12.000000000000
         C           -1.213377369873    -1.180451876308    -0.844547639831    12.000000000000
         C           -3.396517369873    -0.124153876308     0.513965360169    12.000000000000
         C           -2.157681369873     2.028069123692     1.006977360169    12.000000000000
         C           -2.387748369873    -1.926982876308    -0.741519639831    12.000000000000
         C           -3.481560369873    -1.396283876308    -0.056886639831    12.000000000000
         H            4.461997630127    -1.701608876308     0.093180360169     1.007825032230
         H            4.119905630127    -0.538073876308     1.370270360169     1.007825032230
         H            4.536725630127     0.683180123692    -0.739305639831     1.007825032230
         H            3.294664630127    -0.261726876308    -1.567356639831     1.007825032230
         H            2.032097630127    -2.148594876308    -0.189227639831     1.007825032230
         H            2.475647630127    -2.373978876308     1.507507360169     1.007825032230
         H            2.825776630127     1.676001123692     0.755183360169     1.007825032230
         H            2.316090630127     1.913273123692    -0.928023639831     1.007825032230
         H            0.355855630127    -1.033124876308     1.243073360169     1.007825032230
         H            1.632316630127    -0.117305876308     2.060664360169     1.007825032230
         H           -0.354274369873    -1.578827876308    -1.382018639831     1.007825032230
         H           -4.255466369873     0.284108123692     1.044103360169     1.007825032230
         H           -1.976428369873     2.772752123692     0.228197360169     1.007825032230
         H           -3.087958369873     2.273850123692     1.526238360169     1.007825032230
         H           -1.335574369873     2.104877123692     1.726727360169     1.007825032230
         H           -2.448809369873    -2.912951876308    -1.196053639831     1.007825032230
         H           -4.401023369873    -1.970046876308     0.033292360169     1.007825032230

  Basis Set: AUG-CC-PVTZ
    Blend: AUG-CC-PVTZ
  Basis Set: (AUG-CC-PVTZ AUX)
    Blend: AUG-CC-PVTZ-JKFIT
	 Reference Energy          =    -631.7209912797198967 [Eh]
	 Singles Energy            =      -0.0000000000000000 [Eh]
	 Same-Spin Energy          =      -0.6884788520344803 [Eh]
	 Opposite-Spin Energy      =      -2.2115626673688968 [Eh]
	 Correlation Energy        =      -2.9000415194033771 [Eh]
	 Total Energy              =    -634.6210327991233271 [Eh]

	 ================> DF-SCS-MP2 Energies <==================
	-----------------------------------------------------------
	 SCS Same-Spin Scale       =       0.3333333333333333 [-]
	 SCS Opposite-Spin Scale   =       1.2000000000000000 [-]
	 SCS Same-Spin Energy      =      -0.2294929506781601 [Eh]
	 SCS Opposite-Spin Energy  =      -2.6538752008426760 [Eh]
	 SCS Correlation Energy    =      -2.8833681515208363 [Eh]
	 SCS Total Energy          =    -634.6043594312407095 [Eh]
	-----------------------------------------------------------

  Dipole Moment: [D]
     X:     1.4468      Y:    -2.4477      Z:     2.2958     Total:     3.6545

*** Psi4 exiting successfully. Buy a developer a beer!
