                               Psi4 1.4a3.dev225

  ==> Input File <==

--------------------------------------------------------------------------
#psi4
#
memory 32 gb

molecule  {
0 1
  O        0.0109280     1.9504830    -1.2088660
  N        1.2104930     0.4628600     0.0596820
  C        3.6816010    -0.9509880     0.4072830
  C        3.5134045     0.0984736    -0.4813984
  C        2.3335540    -1.6180450     0.6838790
  C        2.4642000     1.1676880    -0.1911000
  C        1.2914730    -0.5760260     1.0805660
  C        0.0527250     0.9288280    -0.5097470
  C       -1.1808260     0.1020470    -0.2945890
  C       -2.2823960     0.6556420     0.3835130
  C       -1.2622800    -1.1716740    -0.8705440
  C       -3.4454200    -0.1153760     0.4879690
  C       -2.2065840     2.0368470     0.9809810
  C       -2.4366510    -1.9182050    -0.7675160
  C       -3.5304630    -1.3875060    -0.0828830
  H        4.4130950    -1.6928310     0.0671840
  H        4.0710030    -0.5292960     1.3442740
  H        4.4878230     0.6919580    -0.7653020
  H        3.2457620    -0.2529490    -1.5933530
  H        1.9831950    -2.1398170    -0.2152240
  H        2.4267450    -2.3652010     1.4815110
  H        2.7768740     1.6847790     0.7291870
  H        2.2671880     1.9220510    -0.9540200
  H        0.3069530    -1.0243470     1.2170770
  H        1.5834140    -0.1085280     2.0346680
  H       -0.4031770    -1.5700500    -1.4080150
  H       -4.3043690     0.2928860     1.0181070
  H       -2.0253310     2.7815300     0.2022010
  H       -3.1368610     2.2826280     1.5002420
  H       -1.3844770     2.1136550     1.7007310
  H       -2.4977120    -2.9041740    -1.2220500
  H       -4.4499260    -1.9612690     0.0072960
units angstrom
no_reorient  #important for SAPT in psi4, default
symmetry c1  #important for SAPT in psi4, default
}

set PROPERTIES_ORIGIN ["COM"]
properties('MP2/aug-cc-pvtz', properties = ['dipole'])
--------------------------------------------------------------------------

    Molecular point group: c1
  Charge       = 0
  Multiplicity = 1
  Basis Set: AUG-CC-PVTZ
    Blend: AUG-CC-PVTZ
  Basis Set: (AUG-CC-PVTZ AUX)
    Blend: AUG-CC-PVTZ-JKFIT

    Orbital Energies [Eh]
    ---------------------

    Doubly Occupied:

       1A    -20.511285     2A    -15.583585     3A    -11.349463
       4A    -11.268569     5A    -11.258042     6A    -11.251968
       7A    -11.246350     8A    -11.245020     9A    -11.242738
      10A    -11.239203    11A    -11.237082    12A    -11.235357
      13A    -11.231955    14A    -11.223754    15A    -11.220498
      16A     -1.367565    17A     -1.252278    18A     -1.161700
      19A     -1.105954    20A     -1.051095    21A     -1.037250
      22A     -1.024939    23A     -0.946308    24A     -0.924249
      25A     -0.866447    26A     -0.847931    27A     -0.814216
      28A     -0.783243    29A     -0.743679    30A     -0.713919
      31A     -0.669247    32A     -0.652189    33A     -0.650520
      34A     -0.631440    35A     -0.619762    36A     -0.615262
      37A     -0.606292    38A     -0.591289    39A     -0.576338
      40A     -0.574083    41A     -0.564930    42A     -0.548022
      43A     -0.542884    44A     -0.525073    45A     -0.508645
      46A     -0.500254    47A     -0.497298    48A     -0.491117
      49A     -0.484970    50A     -0.461226    51A     -0.439190
      52A     -0.416815    53A     -0.364523    54A     -0.340160
      55A     -0.330143

  @DF-RHF Final Energy:  -631.70028297546594

   => Energetics <=

    Nuclear Repulsion Energy =           1002.0860479359340616
    One-Electron Energy =               -2847.1980355768823756
    Two-Electron Energy =                1213.4117046654823753
    Total Energy =                       -631.7002829754660524
  Basis Set: (AUG-CC-PVTZ AUX)
    Blend: AUG-CC-PVTZ-RI
    Molecular point group: c1

    Geometry (in Angstrom), charge = 0, multiplicity = 1:

       Center              X                  Y                   Z               Mass
    ------------   -----------------  -----------------  -----------------  -----------------
         O            0.057858753988     1.941134262564    -1.192136679666    15.994914619570
         N            1.257423753988     0.453511262564     0.076411320334    14.003074004430
         C            3.728531753988    -0.960336737436     0.424012320334    12.000000000000
         C            3.560335253988     0.089124862564    -0.464669079666    12.000000000000
         C            2.380484753988    -1.627393737436     0.700608320334    12.000000000000
         C            2.511130753988     1.158339262564    -0.174370679666    12.000000000000
         C            1.338403753988    -0.585374737436     1.097295320334    12.000000000000
         C            0.099655753988     0.919479262564    -0.493017679666    12.000000000000
         C           -1.133895246012     0.092698262564    -0.277859679666    12.000000000000
         C           -2.235465246012     0.646293262564     0.400242320334    12.000000000000
         C           -1.215349246012    -1.181022737436    -0.853814679666    12.000000000000
         C           -3.398489246012    -0.124724737436     0.504698320334    12.000000000000
         C           -2.159653246012     2.027498262564     0.997710320334    12.000000000000
         C           -2.389720246012    -1.927553737436    -0.750786679666    12.000000000000
         C           -3.483532246012    -1.396854737436    -0.066153679666    12.000000000000
         H            4.460025753988    -1.702179737436     0.083913320334     1.007825032230
         H            4.117933753988    -0.538644737436     1.361003320334     1.007825032230
         H            4.534753753988     0.682609262564    -0.748572679666     1.007825032230
         H            3.292692753988    -0.262297737436    -1.576623679666     1.007825032230
         H            2.030125753988    -2.149165737436    -0.198494679666     1.007825032230
         H            2.473675753988    -2.374549737436     1.498240320334     1.007825032230
         H            2.823804753988     1.675430262564     0.745916320334     1.007825032230
         H            2.314118753988     1.912702262564    -0.937290679666     1.007825032230
         H            0.353883753988    -1.033695737436     1.233806320334     1.007825032230
         H            1.630344753988    -0.117876737436     2.051397320334     1.007825032230
         H           -0.356246246012    -1.579398737436    -1.391285679666     1.007825032230
         H           -4.257438246012     0.283537262564     1.034836320334     1.007825032230
         H           -1.978400246012     2.772181262564     0.218930320334     1.007825032230
         H           -3.089930246012     2.273279262564     1.516971320334     1.007825032230
         H           -1.337546246012     2.104306262564     1.717460320334     1.007825032230
         H           -2.450781246012    -2.913522737436    -1.205320679666     1.007825032230
         H           -4.402995246012    -1.970617737436     0.024025320334     1.007825032230

  Basis Set: AUG-CC-PVTZ
    Blend: AUG-CC-PVTZ
  Basis Set: (AUG-CC-PVTZ AUX)
    Blend: AUG-CC-PVTZ-JKFIT
	 Reference Energy          =    -631.7002829754659388 [Eh]
	 Singles Energy            =      -0.0000000000000000 [Eh]
	 Same-Spin Energy          =      -0.6910273130658733 [Eh]
	 Opposite-Spin Energy      =      -2.2149867641691432 [Eh]
	 Correlation Energy        =      -2.9060140772350165 [Eh]
	 Total Energy              =    -634.6062970527009384 [Eh]

	 ================> DF-SCS-MP2 Energies <==================
	-----------------------------------------------------------
	 SCS Same-Spin Scale       =       0.3333333333333333 [-]
	 SCS Opposite-Spin Scale   =       1.2000000000000000 [-]
	 SCS Same-Spin Energy      =      -0.2303424376886244 [Eh]
	 SCS Opposite-Spin Energy  =      -2.6579841170029717 [Eh]
	 SCS Correlation Energy    =      -2.8883265546915959 [Eh]
	 SCS Total Energy          =    -634.5886095301575551 [Eh]
	-----------------------------------------------------------

  Dipole Moment: [D]
     X:     1.3855      Y:    -2.5707      Z:     2.4044     Total:     3.7827

*** Psi4 exiting successfully. Buy a developer a beer!
