                               Psi4 1.4a3.dev225

  ==> Input File <==

--------------------------------------------------------------------------
#psi4
#
memory 32 gb

molecule  {
0 1
  O        0.0109280     1.9504830    -1.2088660
  N        1.2104930     0.4628600     0.0596820
  C        3.6816010    -0.9509880     0.4072830
  C        3.5342200     0.1692850    -0.6230390
  C        2.3335540    -1.6180450     0.6838790
  C        2.4642000     1.1676880    -0.1911000
  C        1.2914730    -0.5760260     1.0805660
  C        0.0044946     1.0071770    -0.4597032
  C       -1.1808260     0.1020470    -0.2945890
  C       -2.2823960     0.6556420     0.3835130
  C       -1.2622800    -1.1716740    -0.8705440
  C       -3.4454200    -0.1153760     0.4879690
  C       -2.2065840     2.0368470     0.9809810
  C       -2.4366510    -1.9182050    -0.7675160
  C       -3.5304630    -1.3875060    -0.0828830
  H        4.4130950    -1.6928310     0.0671840
  H        4.0710030    -0.5292960     1.3442740
  H        4.4878230     0.6919580    -0.7653020
  H        3.2457620    -0.2529490    -1.5933530
  H        1.9831950    -2.1398170    -0.2152240
  H        2.4267450    -2.3652010     1.4815110
  H        2.7768740     1.6847790     0.7291870
  H        2.2671880     1.9220510    -0.9540200
  H        0.3069530    -1.0243470     1.2170770
  H        1.5834140    -0.1085280     2.0346680
  H       -0.4031770    -1.5700500    -1.4080150
  H       -4.3043690     0.2928860     1.0181070
  H       -2.0253310     2.7815300     0.2022010
  H       -3.1368610     2.2826280     1.5002420
  H       -1.3844770     2.1136550     1.7007310
  H       -2.4977120    -2.9041740    -1.2220500
  H       -4.4499260    -1.9612690     0.0072960
units angstrom
no_reorient  #important for SAPT in psi4, default
symmetry c1  #important for SAPT in psi4, default
}

set PROPERTIES_ORIGIN ["COM"]
properties('MP2/aug-cc-pvtz', properties = ['dipole'])
--------------------------------------------------------------------------

    Molecular point group: c1
  Charge       = 0
  Multiplicity = 1
  Basis Set: AUG-CC-PVTZ
    Blend: AUG-CC-PVTZ
  Basis Set: (AUG-CC-PVTZ AUX)
    Blend: AUG-CC-PVTZ-JKFIT

    Orbital Energies [Eh]
    ---------------------

    Doubly Occupied:

       1A    -20.522836     2A    -15.575195     3A    -11.352196
       4A    -11.261697     5A    -11.251386     6A    -11.250334
       7A    -11.248204     8A    -11.245993     9A    -11.243376
      10A    -11.240317    11A    -11.237236    12A    -11.227286
      13A    -11.225297    14A    -11.223445    15A    -11.222544
      16A     -1.390684    17A     -1.239926    18A     -1.162575
      19A     -1.077242    20A     -1.053251    21A     -1.034217
      22A     -1.020944    23A     -0.943220    24A     -0.910733
      25A     -0.863575    26A     -0.845064    27A     -0.813056
      28A     -0.786097    29A     -0.741259    30A     -0.710604
      31A     -0.670355    32A     -0.652470    33A     -0.648564
      34A     -0.624341    35A     -0.621860    36A     -0.612492
      37A     -0.598348    38A     -0.587415    39A     -0.576647
      40A     -0.573590    41A     -0.558957    42A     -0.548075
      43A     -0.545328    44A     -0.528722    45A     -0.510445
      46A     -0.499721    47A     -0.491291    48A     -0.489420
      49A     -0.479274    50A     -0.466768    51A     -0.457718
      52A     -0.419697    53A     -0.362269    54A     -0.340767
      55A     -0.331444

  @DF-RHF Final Energy:  -631.72429268723226

   => Energetics <=

    Nuclear Repulsion Energy =            999.6700237851738393
    One-Electron Energy =               -2842.5570996769174599
    Two-Electron Energy =                1211.1627832045114701
    Total Energy =                       -631.7242926872322641
  Basis Set: (AUG-CC-PVTZ AUX)
    Blend: AUG-CC-PVTZ-RI
    Molecular point group: c1

    Geometry (in Angstrom), charge = 0, multiplicity = 1:

       Center              X                  Y                   Z               Mass
    ------------   -----------------  -----------------  -----------------  -----------------
         O            0.059478293974     1.932322585985    -1.186725582771    15.994914619570
         N            1.259043293974     0.444699585985     0.081822417229    14.003074004430
         C            3.730151293974    -0.969148414015     0.429423417229    12.000000000000
         C            3.582770293974     0.151124585985    -0.600898582771    12.000000000000
         C            2.382104293974    -1.636205414015     0.706019417229    12.000000000000
         C            2.512750293974     1.149527585985    -0.168959582771    12.000000000000
         C            1.340023293974    -0.594186414015     1.102706417229    12.000000000000
         C            0.053044893974     0.989016585985    -0.437562782771    12.000000000000
         C           -1.132275706026     0.083886585985    -0.272448582771    12.000000000000
         C           -2.233845706026     0.637481585985     0.405653417229    12.000000000000
         C           -1.213729706026    -1.189834414015    -0.848403582771    12.000000000000
         C           -3.396869706026    -0.133536414015     0.510109417229    12.000000000000
         C           -2.158033706026     2.018686585985     1.003121417229    12.000000000000
         C           -2.388100706026    -1.936365414015    -0.745375582771    12.000000000000
         C           -3.481912706026    -1.405666414015    -0.060742582771    12.000000000000
         H            4.461645293974    -1.710991414015     0.089324417229     1.007825032230
         H            4.119553293974    -0.547456414015     1.366414417229     1.007825032230
         H            4.536373293974     0.673797585985    -0.743161582771     1.007825032230
         H            3.294312293974    -0.271109414015    -1.571212582771     1.007825032230
         H            2.031745293974    -2.157977414015    -0.193083582771     1.007825032230
         H            2.475295293974    -2.383361414015     1.503651417229     1.007825032230
         H            2.825424293974     1.666618585985     0.751327417229     1.007825032230
         H            2.315738293974     1.903890585985    -0.931879582771     1.007825032230
         H            0.355503293974    -1.042507414015     1.239217417229     1.007825032230
         H            1.631964293974    -0.126688414015     2.056808417229     1.007825032230
         H           -0.354626706026    -1.588210414015    -1.385874582771     1.007825032230
         H           -4.255818706026     0.274725585985     1.040247417229     1.007825032230
         H           -1.976780706026     2.763369585985     0.224341417229     1.007825032230
         H           -3.088310706026     2.264467585985     1.522382417229     1.007825032230
         H           -1.335926706026     2.095494585985     1.722871417229     1.007825032230
         H           -2.449161706026    -2.922334414015    -1.199909582771     1.007825032230
         H           -4.401375706026    -1.979429414015     0.029436417229     1.007825032230

  Basis Set: AUG-CC-PVTZ
    Blend: AUG-CC-PVTZ
  Basis Set: (AUG-CC-PVTZ AUX)
    Blend: AUG-CC-PVTZ-JKFIT
	 Reference Energy          =    -631.7242926872322641 [Eh]
	 Singles Energy            =      -0.0000000000000000 [Eh]
	 Same-Spin Energy          =      -0.6889563772467995 [Eh]
	 Opposite-Spin Energy      =      -2.2123737233327820 [Eh]
	 Correlation Energy        =      -2.9013301005795817 [Eh]
	 Total Energy              =    -634.6256227878118352 [Eh]

	 ================> DF-SCS-MP2 Energies <==================
	-----------------------------------------------------------
	 SCS Same-Spin Scale       =       0.3333333333333333 [-]
	 SCS Opposite-Spin Scale   =       1.2000000000000000 [-]
	 SCS Same-Spin Energy      =      -0.2296521257489332 [Eh]
	 SCS Opposite-Spin Energy  =      -2.6548484679993383 [Eh]
	 SCS Correlation Energy    =      -2.8845005937482715 [Eh]
	 SCS Total Energy          =    -634.6087932809805352 [Eh]
	-----------------------------------------------------------

  Dipole Moment: [D]
     X:     1.0100      Y:    -2.2412      Z:     2.1081     Total:     3.2384

*** Psi4 exiting successfully. Buy a developer a beer!
