                               Psi4 1.4a3.dev225

  ==> Input File <==

--------------------------------------------------------------------------
#psi4
#
memory 32 gb

molecule  {
0 1
  O        0.0109280     1.9504830    -1.2088660
  N        1.2222196     0.4817444     0.0507893
  C        3.6816010    -0.9509880     0.4072830
  C        3.5342200     0.1692850    -0.6230390
  C        2.3335540    -1.6180450     0.6838790
  C        2.4642000     1.1676880    -0.1911000
  C        1.2914730    -0.5760260     1.0805660
  C        0.0527250     0.9288280    -0.5097470
  C       -1.1808260     0.1020470    -0.2945890
  C       -2.2823960     0.6556420     0.3835130
  C       -1.2622800    -1.1716740    -0.8705440
  C       -3.4454200    -0.1153760     0.4879690
  C       -2.2065840     2.0368470     0.9809810
  C       -2.4366510    -1.9182050    -0.7675160
  C       -3.5304630    -1.3875060    -0.0828830
  H        4.4130950    -1.6928310     0.0671840
  H        4.0710030    -0.5292960     1.3442740
  H        4.4878230     0.6919580    -0.7653020
  H        3.2457620    -0.2529490    -1.5933530
  H        1.9831950    -2.1398170    -0.2152240
  H        2.4267450    -2.3652010     1.4815110
  H        2.7768740     1.6847790     0.7291870
  H        2.2671880     1.9220510    -0.9540200
  H        0.3069530    -1.0243470     1.2170770
  H        1.5834140    -0.1085280     2.0346680
  H       -0.4031770    -1.5700500    -1.4080150
  H       -4.3043690     0.2928860     1.0181070
  H       -2.0253310     2.7815300     0.2022010
  H       -3.1368610     2.2826280     1.5002420
  H       -1.3844770     2.1136550     1.7007310
  H       -2.4977120    -2.9041740    -1.2220500
  H       -4.4499260    -1.9612690     0.0072960
units angstrom
no_reorient  #important for SAPT in psi4, default
symmetry c1  #important for SAPT in psi4, default
}

set PROPERTIES_ORIGIN ["COM"]
properties('MP2/aug-cc-pvtz', properties = ['dipole'])
--------------------------------------------------------------------------

    Molecular point group: c1
  Charge       = 0
  Multiplicity = 1
  Basis Set: AUG-CC-PVTZ
    Blend: AUG-CC-PVTZ
  Basis Set: (AUG-CC-PVTZ AUX)
    Blend: AUG-CC-PVTZ-JKFIT

    Orbital Energies [Eh]
    ---------------------

    Doubly Occupied:

       1A    -20.509663     2A    -15.583353     3A    -11.349004
       4A    -11.268262     5A    -11.252764     6A    -11.252361
       7A    -11.246981     8A    -11.245793     9A    -11.243059
      10A    -11.239498    11A    -11.237338    12A    -11.230977
      13A    -11.228229    14A    -11.225148    15A    -11.220508
      16A     -1.367008    17A     -1.248676    18A     -1.161916
      19A     -1.083211    20A     -1.051278    21A     -1.038507
      22A     -1.022519    23A     -0.943238    24A     -0.918661
      25A     -0.868150    26A     -0.843669    27A     -0.815334
      28A     -0.791485    29A     -0.742218    30A     -0.712924
      31A     -0.666864    32A     -0.652760    33A     -0.647532
      34A     -0.629004    35A     -0.620295    36A     -0.615405
      37A     -0.596604    38A     -0.588316    39A     -0.576042
      40A     -0.572087    41A     -0.559711    42A     -0.547294
      43A     -0.541308    44A     -0.525179    45A     -0.508043
      46A     -0.501846    47A     -0.491961    48A     -0.489548
      49A     -0.478414    50A     -0.470131    51A     -0.460305
      52A     -0.417260    53A     -0.365170    54A     -0.340359
      55A     -0.330387

  @DF-RHF Final Energy:  -631.73027894125562

   => Energetics <=

    Nuclear Repulsion Energy =            999.8730824003673661
    One-Electron Energy =               -2842.9396050242253295
    Two-Electron Energy =                1211.3362436826023441
    Total Energy =                       -631.7302789412556194
  Basis Set: (AUG-CC-PVTZ AUX)
    Blend: AUG-CC-PVTZ-RI
    Molecular point group: c1

    Geometry (in Angstrom), charge = 0, multiplicity = 1:

       Center              X                  Y                   Z               Mass
    ------------   -----------------  -----------------  -----------------  -----------------
         O            0.055820687820     1.935649248592    -1.183156207906    15.994914619570
         N            1.267112287820     0.466910648592     0.076499092094    14.003074004430
         C            3.726493687820    -0.965821751408     0.432992792094    12.000000000000
         C            3.579112687820     0.154451248592    -0.597329207906    12.000000000000
         C            2.378446687820    -1.632878751408     0.709588792094    12.000000000000
         C            2.509092687820     1.152854248592    -0.165390207906    12.000000000000
         C            1.336365687820    -0.590859751408     1.106275792094    12.000000000000
         C            0.097617687820     0.913994248592    -0.484037207906    12.000000000000
         C           -1.135933312180     0.087213248592    -0.268879207906    12.000000000000
         C           -2.237503312180     0.640808248592     0.409222792094    12.000000000000
         C           -1.217387312180    -1.186507751408    -0.844834207906    12.000000000000
         C           -3.400527312180    -0.130209751408     0.513678792094    12.000000000000
         C           -2.161691312180     2.022013248592     1.006690792094    12.000000000000
         C           -2.391758312180    -1.933038751408    -0.741806207906    12.000000000000
         C           -3.485570312180    -1.402339751408    -0.057173207906    12.000000000000
         H            4.457987687820    -1.707664751408     0.092893792094     1.007825032230
         H            4.115895687820    -0.544129751408     1.369983792094     1.007825032230
         H            4.532715687820     0.677124248592    -0.739592207906     1.007825032230
         H            3.290654687820    -0.267782751408    -1.567643207906     1.007825032230
         H            2.028087687820    -2.154650751408    -0.189514207906     1.007825032230
         H            2.471637687820    -2.380034751408     1.507220792094     1.007825032230
         H            2.821766687820     1.669945248592     0.754896792094     1.007825032230
         H            2.312080687820     1.907217248592    -0.928310207906     1.007825032230
         H            0.351845687820    -1.039180751408     1.242786792094     1.007825032230
         H            1.628306687820    -0.123361751408     2.060377792094     1.007825032230
         H           -0.358284312180    -1.584883751408    -1.382305207906     1.007825032230
         H           -4.259476312180     0.278052248592     1.043816792094     1.007825032230
         H           -1.980438312180     2.766696248592     0.227910792094     1.007825032230
         H           -3.091968312180     2.267794248592     1.525951792094     1.007825032230
         H           -1.339584312180     2.098821248592     1.726440792094     1.007825032230
         H           -2.452819312180    -2.919007751408    -1.196340207906     1.007825032230
         H           -4.405033312180    -1.976102751408     0.033005792094     1.007825032230

  Basis Set: AUG-CC-PVTZ
    Blend: AUG-CC-PVTZ
  Basis Set: (AUG-CC-PVTZ AUX)
    Blend: AUG-CC-PVTZ-JKFIT
	 Reference Energy          =    -631.7302789412556194 [Eh]
	 Singles Energy            =      -0.0000000000000000 [Eh]
	 Same-Spin Energy          =      -0.6889702654137595 [Eh]
	 Opposite-Spin Energy      =      -2.2121751253963353 [Eh]
	 Correlation Energy        =      -2.9011453908100950 [Eh]
	 Total Energy              =    -634.6314243320657624 [Eh]

	 ================> DF-SCS-MP2 Energies <==================
	-----------------------------------------------------------
	 SCS Same-Spin Scale       =       0.3333333333333333 [-]
	 SCS Opposite-Spin Scale   =       1.2000000000000000 [-]
	 SCS Same-Spin Energy      =      -0.2296567551379198 [Eh]
	 SCS Opposite-Spin Energy  =      -2.6546101504756021 [Eh]
	 SCS Correlation Energy    =      -2.8842669056135217 [Eh]
	 SCS Total Energy          =    -634.6145458468691913 [Eh]
	-----------------------------------------------------------

  Dipole Moment: [D]
     X:     1.3593      Y:    -2.5660      Z:     2.3255     Total:     3.7202

*** Psi4 exiting successfully. Buy a developer a beer!
