                               Psi4 1.4a3.dev225

  ==> Input File <==

--------------------------------------------------------------------------
#psi4
#
memory 32 gb

molecule  {
0 1
  O        0.0109280     1.9504830    -1.2088660
  N        1.2465102     0.4384384     0.0332426
  C        3.6816010    -0.9509880     0.4072830
  C        3.5342200     0.1692850    -0.6230390
  C        2.3335540    -1.6180450     0.6838790
  C        2.4642000     1.1676880    -0.1911000
  C        1.2914730    -0.5760260     1.0805660
  C        0.0527250     0.9288280    -0.5097470
  C       -1.1808260     0.1020470    -0.2945890
  C       -2.2823960     0.6556420     0.3835130
  C       -1.2622800    -1.1716740    -0.8705440
  C       -3.4454200    -0.1153760     0.4879690
  C       -2.2065840     2.0368470     0.9809810
  C       -2.4366510    -1.9182050    -0.7675160
  C       -3.5304630    -1.3875060    -0.0828830
  H        4.4130950    -1.6928310     0.0671840
  H        4.0710030    -0.5292960     1.3442740
  H        4.4878230     0.6919580    -0.7653020
  H        3.2457620    -0.2529490    -1.5933530
  H        1.9831950    -2.1398170    -0.2152240
  H        2.4267450    -2.3652010     1.4815110
  H        2.7768740     1.6847790     0.7291870
  H        2.2671880     1.9220510    -0.9540200
  H        0.3069530    -1.0243470     1.2170770
  H        1.5834140    -0.1085280     2.0346680
  H       -0.4031770    -1.5700500    -1.4080150
  H       -4.3043690     0.2928860     1.0181070
  H       -2.0253310     2.7815300     0.2022010
  H       -3.1368610     2.2826280     1.5002420
  H       -1.3844770     2.1136550     1.7007310
  H       -2.4977120    -2.9041740    -1.2220500
  H       -4.4499260    -1.9612690     0.0072960
units angstrom
no_reorient  #important for SAPT in psi4, default
symmetry c1  #important for SAPT in psi4, default
}

set PROPERTIES_ORIGIN ["COM"]
properties('MP2/aug-cc-pvtz', properties = ['dipole'])
--------------------------------------------------------------------------

    Molecular point group: c1
  Charge       = 0
  Multiplicity = 1
  Basis Set: AUG-CC-PVTZ
    Blend: AUG-CC-PVTZ
  Basis Set: (AUG-CC-PVTZ AUX)
    Blend: AUG-CC-PVTZ-JKFIT

    Orbital Energies [Eh]
    ---------------------

    Doubly Occupied:

       1A    -20.516507     2A    -15.581854     3A    -11.353675
       4A    -11.265465     5A    -11.253215     6A    -11.251418
       7A    -11.247741     8A    -11.246548     9A    -11.243727
      10A    -11.239999    11A    -11.237942    12A    -11.228326
      13A    -11.226608    14A    -11.222808    15A    -11.221556
      16A     -1.368478    17A     -1.250065    18A     -1.162673
      19A     -1.079487    20A     -1.051954    21A     -1.038466
      22A     -1.023278    23A     -0.943117    24A     -0.914153
      25A     -0.866469    26A     -0.844236    27A     -0.815396
      28A     -0.788804    29A     -0.745001    30A     -0.713056
      31A     -0.668133    32A     -0.653117    33A     -0.648290
      34A     -0.627165    35A     -0.620449    36A     -0.614162
      37A     -0.596351    38A     -0.586362    39A     -0.576620
      40A     -0.572498    41A     -0.563063    42A     -0.546371
      43A     -0.541782    44A     -0.524973    45A     -0.508651
      46A     -0.501679    47A     -0.492484    48A     -0.489339
      49A     -0.477794    50A     -0.468003    51A     -0.459548
      52A     -0.419728    53A     -0.364407    54A     -0.341019
      55A     -0.331161

  @DF-RHF Final Energy:  -631.72797358110029

   => Energetics <=

    Nuclear Repulsion Energy =            999.8719854707704826
    One-Electron Energy =               -2842.9295848350902816
    Two-Electron Energy =                1211.3296257832193987
    Total Energy =                       -631.7279735811002865
  Basis Set: (AUG-CC-PVTZ AUX)
    Blend: AUG-CC-PVTZ-RI
    Molecular point group: c1

    Geometry (in Angstrom), charge = 0, multiplicity = 1:

       Center              X                  Y                   Z               Mass
    ------------   -----------------  -----------------  -----------------  -----------------
         O            0.054146186903     1.938634598345    -1.181946605623    15.994914619570
         N            1.289728386903     0.426589998345     0.060161994377    14.003074004430
         C            3.724819186903    -0.962836401655     0.434202394377    12.000000000000
         C            3.577438186903     0.157436598345    -0.596119605623    12.000000000000
         C            2.376772186903    -1.629893401655     0.710798394377    12.000000000000
         C            2.507418186903     1.155839598345    -0.164180605623    12.000000000000
         C            1.334691186903    -0.587874401655     1.107485394377    12.000000000000
         C            0.095943186903     0.916979598345    -0.482827605623    12.000000000000
         C           -1.137607813097     0.090198598345    -0.267669605623    12.000000000000
         C           -2.239177813097     0.643793598345     0.410432394377    12.000000000000
         C           -1.219061813097    -1.183522401655    -0.843624605623    12.000000000000
         C           -3.402201813097    -0.127224401655     0.514888394377    12.000000000000
         C           -2.163365813097     2.024998598345     1.007900394377    12.000000000000
         C           -2.393432813097    -1.930053401655    -0.740596605623    12.000000000000
         C           -3.487244813097    -1.399354401655    -0.055963605623    12.000000000000
         H            4.456313186903    -1.704679401655     0.094103394377     1.007825032230
         H            4.114221186903    -0.541144401655     1.371193394377     1.007825032230
         H            4.531041186903     0.680109598345    -0.738382605623     1.007825032230
         H            3.288980186903    -0.264797401655    -1.566433605623     1.007825032230
         H            2.026413186903    -2.151665401655    -0.188304605623     1.007825032230
         H            2.469963186903    -2.377049401655     1.508430394377     1.007825032230
         H            2.820092186903     1.672930598345     0.756106394377     1.007825032230
         H            2.310406186903     1.910202598345    -0.927100605623     1.007825032230
         H            0.350171186903    -1.036195401655     1.243996394377     1.007825032230
         H            1.626632186903    -0.120376401655     2.061587394377     1.007825032230
         H           -0.359958813097    -1.581898401655    -1.381095605623     1.007825032230
         H           -4.261150813097     0.281037598345     1.045026394377     1.007825032230
         H           -1.982112813097     2.769681598345     0.229120394377     1.007825032230
         H           -3.093642813097     2.270779598345     1.527161394377     1.007825032230
         H           -1.341258813097     2.101806598345     1.727650394377     1.007825032230
         H           -2.454493813097    -2.916022401655    -1.195130605623     1.007825032230
         H           -4.406707813097    -1.973117401655     0.034215394377     1.007825032230

  Basis Set: AUG-CC-PVTZ
    Blend: AUG-CC-PVTZ
  Basis Set: (AUG-CC-PVTZ AUX)
    Blend: AUG-CC-PVTZ-JKFIT
	 Reference Energy          =    -631.7279735811002865 [Eh]
	 Singles Energy            =      -0.0000000000000000 [Eh]
	 Same-Spin Energy          =      -0.6893652663232650 [Eh]
	 Opposite-Spin Energy      =      -2.2129654780277281 [Eh]
	 Correlation Energy        =      -2.9023307443509934 [Eh]
	 Total Energy              =    -634.6303043254513341 [Eh]

	 ================> DF-SCS-MP2 Energies <==================
	-----------------------------------------------------------
	 SCS Same-Spin Scale       =       0.3333333333333333 [-]
	 SCS Opposite-Spin Scale   =       1.2000000000000000 [-]
	 SCS Same-Spin Energy      =      -0.2297884221077550 [Eh]
	 SCS Opposite-Spin Energy  =      -2.6555585736332739 [Eh]
	 SCS Correlation Energy    =      -2.8853469957410289 [Eh]
	 SCS Total Energy          =    -634.6133205768412608 [Eh]
	-----------------------------------------------------------

  Dipole Moment: [D]
     X:     1.1568      Y:    -2.4172      Z:     2.2620     Total:     3.5068

*** Psi4 exiting successfully. Buy a developer a beer!
