                               Psi4 1.4a3.dev225

  ==> Input File <==

--------------------------------------------------------------------------
#psi4
#
memory 32 gb

molecule  {
0 1
  O        0.0109280     1.9504830    -1.2088660
  N        1.2104930     0.4628600     0.0596820
  C        3.6816010    -0.9509880     0.4072830
  C        3.5342200     0.1692850    -0.6230390
  C        2.3335540    -1.6180450     0.6838790
  C        2.4642000     1.1676880    -0.1911000
  C        1.2914730    -0.5760260     1.0805660
  C        0.0527250     0.9288280    -0.5097470
  C       -1.1808260     0.1020470    -0.2945890
  C       -2.2823960     0.6556420     0.3835130
  C       -1.2622800    -1.1716740    -0.8705440
  C       -3.4454200    -0.1153760     0.4879690
  C       -2.2065840     2.0368470     0.9809810
  C       -2.4366510    -1.9182050    -0.7675160
  C       -3.5304630    -1.3875060    -0.0828830
  H        4.4130950    -1.6928310     0.0671840
  H        4.0710030    -0.5292960     1.3442740
  H        4.4878230     0.6919580    -0.7653020
  H        3.2457620    -0.2529490    -1.5933530
  H        1.9831950    -2.1398170    -0.2152240
  H        2.4267450    -2.3652010     1.4815110
  H        2.7768740     1.6847790     0.7291870
  H        2.2671880     1.9220510    -0.9540200
  H        0.3069530    -1.0243470     1.2170770
  H        1.5834140    -0.1085280     2.0346680
  H       -0.4031770    -1.5700500    -1.4080150
  H       -4.3043690     0.2928860     1.0181070
  H       -2.0253310     2.7815300     0.2022010
  H       -3.1368610     2.2826280     1.5002420
  H       -1.4220040     2.1101489     1.6678763
  H       -2.4977120    -2.9041740    -1.2220500
  H       -4.4499260    -1.9612690     0.0072960
units angstrom
no_reorient  #important for SAPT in psi4, default
symmetry c1  #important for SAPT in psi4, default
}

set PROPERTIES_ORIGIN ["COM"]
properties('MP2/aug-cc-pvtz', properties = ['dipole'])
--------------------------------------------------------------------------

    Molecular point group: c1
  Charge       = 0
  Multiplicity = 1
  Basis Set: AUG-CC-PVTZ
    Blend: AUG-CC-PVTZ
  Basis Set: (AUG-CC-PVTZ AUX)
    Blend: AUG-CC-PVTZ-JKFIT

    Orbital Energies [Eh]
    ---------------------

    Doubly Occupied:

       1A    -20.510839     2A    -15.583963     3A    -11.349468
       4A    -11.267116     5A    -11.254689     6A    -11.251475
       7A    -11.246217     8A    -11.244870     9A    -11.242480
      10A    -11.238966    11A    -11.236682    12A    -11.230664
      13A    -11.228353    14A    -11.225717    15A    -11.214140
      16A     -1.367053    17A     -1.249649    18A     -1.161348
      19A     -1.083639    20A     -1.051684    21A     -1.037321
      22A     -1.023121    23A     -0.945766    24A     -0.919783
      25A     -0.867535    26A     -0.844101    27A     -0.815736
      28A     -0.791370    29A     -0.742797    30A     -0.712566
      31A     -0.666967    32A     -0.652830    33A     -0.648544
      34A     -0.627917    35A     -0.620367    36A     -0.615559
      37A     -0.596574    38A     -0.588432    39A     -0.579908
      40A     -0.573151    41A     -0.560263    42A     -0.547895
      43A     -0.541800    44A     -0.525376    45A     -0.508847
      46A     -0.502259    47A     -0.491732    48A     -0.489206
      49A     -0.478517    50A     -0.469674    51A     -0.461591
      52A     -0.416931    53A     -0.366282    54A     -0.339852
      55A     -0.330110

  @DF-RHF Final Energy:  -631.72972926790248

   => Energetics <=

    Nuclear Repulsion Energy =           1000.1747992636073832
    One-Electron Energy =               -2843.5296750235193031
    Two-Electron Energy =                1211.6251464920094350
    Total Energy =                       -631.7297292679024849
  Basis Set: (AUG-CC-PVTZ AUX)
    Blend: AUG-CC-PVTZ-RI
    Molecular point group: c1

    Geometry (in Angstrom), charge = 0, multiplicity = 1:

       Center              X                  Y                   Z               Mass
    ------------   -----------------  -----------------  -----------------  -----------------
         O            0.056815263160     1.936968462141    -1.183606229522    15.994914619570
         N            1.256380263160     0.449345462141     0.084941770478    14.003074004430
         C            3.727488263160    -0.964502537859     0.432542770478    12.000000000000
         C            3.580107263160     0.155770462141    -0.597779229522    12.000000000000
         C            2.379441263160    -1.631559537859     0.709138770478    12.000000000000
         C            2.510087263160     1.154173462141    -0.165840229522    12.000000000000
         C            1.337360263160    -0.589540537859     1.105825770478    12.000000000000
         C            0.098612263160     0.915313462141    -0.484487229522    12.000000000000
         C           -1.134938736840     0.088532462141    -0.269329229522    12.000000000000
         C           -2.236508736840     0.642127462141     0.408772770478    12.000000000000
         C           -1.216392736840    -1.185188537859    -0.845284229522    12.000000000000
         C           -3.399532736840    -0.128890537859     0.513228770478    12.000000000000
         C           -2.160696736840     2.023332462141     1.006240770478    12.000000000000
         C           -2.390763736840    -1.931719537859    -0.742256229522    12.000000000000
         C           -3.484575736840    -1.401020537859    -0.057623229522    12.000000000000
         H            4.458982263160    -1.706345537859     0.092443770478     1.007825032230
         H            4.116890263160    -0.542810537859     1.369533770478     1.007825032230
         H            4.533710263160     0.678443462141    -0.740042229522     1.007825032230
         H            3.291649263160    -0.266463537859    -1.568093229522     1.007825032230
         H            2.029082263160    -2.153331537859    -0.189964229522     1.007825032230
         H            2.472632263160    -2.378715537859     1.506770770478     1.007825032230
         H            2.822761263160     1.671264462141     0.754446770478     1.007825032230
         H            2.313075263160     1.908536462141    -0.928760229522     1.007825032230
         H            0.352840263160    -1.037861537859     1.242336770478     1.007825032230
         H            1.629301263160    -0.122042537859     2.059927770478     1.007825032230
         H           -0.357289736840    -1.583564537859    -1.382755229522     1.007825032230
         H           -4.258481736840     0.279371462141     1.043366770478     1.007825032230
         H           -1.979443736840     2.768015462141     0.227460770478     1.007825032230
         H           -3.090973736840     2.269113462141     1.525501770478     1.007825032230
         H           -1.376116736840     2.096634362141     1.693136070478     1.007825032230
         H           -2.451824736840    -2.917688537859    -1.196790229522     1.007825032230
         H           -4.404038736840    -1.974783537859     0.032555770478     1.007825032230

  Basis Set: AUG-CC-PVTZ
    Blend: AUG-CC-PVTZ
  Basis Set: (AUG-CC-PVTZ AUX)
    Blend: AUG-CC-PVTZ-JKFIT
	 Reference Energy          =    -631.7297292679024849 [Eh]
	 Singles Energy            =      -0.0000000000000000 [Eh]
	 Same-Spin Energy          =      -0.6890080355689416 [Eh]
	 Opposite-Spin Energy      =      -2.2119817941368694 [Eh]
	 Correlation Energy        =      -2.9009898297058108 [Eh]
	 Total Energy              =    -634.6307190976083348 [Eh]

	 ================> DF-SCS-MP2 Energies <==================
	-----------------------------------------------------------
	 SCS Same-Spin Scale       =       0.3333333333333333 [-]
	 SCS Opposite-Spin Scale   =       1.2000000000000000 [-]
	 SCS Same-Spin Energy      =      -0.2296693451896472 [Eh]
	 SCS Opposite-Spin Energy  =      -2.6543781529642430 [Eh]
	 SCS Correlation Energy    =      -2.8840474981538899 [Eh]
	 SCS Total Energy          =    -634.6137767660563895 [Eh]
	-----------------------------------------------------------

  Dipole Moment: [D]
     X:     1.4193      Y:    -2.5095      Z:     2.3205     Total:     3.7009

*** Psi4 exiting successfully. Buy a developer a beer!
