                               Psi4 1.4a3.dev225

  ==> Input File <==

--------------------------------------------------------------------------
#psi4
#
memory 32 gb

molecule  {
0 1
  O        0.0109280     1.9504830    -1.2088660
  N        1.2104930     0.4628600     0.0596820
  C        3.6816010    -0.9509880     0.4072830
  C        3.5433121     0.2510351    -0.7599472
  C        2.3335540    -1.6180450     0.6838790
  C        2.4642000     1.1676880    -0.1911000
  C        1.2914730    -0.5760260     1.0805660
  C        0.0527250     0.9288280    -0.5097470
  C       -1.1808260     0.1020470    -0.2945890
  C       -2.2823960     0.6556420     0.3835130
  C       -1.2622800    -1.1716740    -0.8705440
  C       -3.4454200    -0.1153760     0.4879690
  C       -2.2065840     2.0368470     0.9809810
  C       -2.4366510    -1.9182050    -0.7675160
  C       -3.5304630    -1.3875060    -0.0828830
  H        4.4130950    -1.6928310     0.0671840
  H        4.0710030    -0.5292960     1.3442740
  H        4.4878230     0.6919580    -0.7653020
  H        3.2457620    -0.2529490    -1.5933530
  H        1.9831950    -2.1398170    -0.2152240
  H        2.4267450    -2.3652010     1.4815110
  H        2.7768740     1.6847790     0.7291870
  H        2.2671880     1.9220510    -0.9540200
  H        0.3069530    -1.0243470     1.2170770
  H        1.5834140    -0.1085280     2.0346680
  H       -0.4031770    -1.5700500    -1.4080150
  H       -4.3043690     0.2928860     1.0181070
  H       -2.0253310     2.7815300     0.2022010
  H       -3.1368610     2.2826280     1.5002420
  H       -1.3844770     2.1136550     1.7007310
  H       -2.4977120    -2.9041740    -1.2220500
  H       -4.4499260    -1.9612690     0.0072960
units angstrom
no_reorient  #important for SAPT in psi4, default
symmetry c1  #important for SAPT in psi4, default
}

set PROPERTIES_ORIGIN ["COM"]
properties('MP2/aug-cc-pvtz', properties = ['dipole'])
--------------------------------------------------------------------------

    Molecular point group: c1
  Charge       = 0
  Multiplicity = 1
  Basis Set: AUG-CC-PVTZ
    Blend: AUG-CC-PVTZ
  Basis Set: (AUG-CC-PVTZ AUX)
    Blend: AUG-CC-PVTZ-JKFIT

    Orbital Energies [Eh]
    ---------------------

    Doubly Occupied:

       1A    -20.510762     2A    -15.584765     3A    -11.349833
       4A    -11.266194     5A    -11.254576     6A    -11.251931
       7A    -11.246516     8A    -11.245210     9A    -11.242727
      10A    -11.239234    11A    -11.237043    12A    -11.231435
      13A    -11.229914    14A    -11.222929    15A    -11.220377
      16A     -1.366919    17A     -1.248323    18A     -1.161449
      19A     -1.070552    20A     -1.050644    21A     -1.038157
      22A     -1.022243    23A     -0.941830    24A     -0.914889
      25A     -0.871982    26A     -0.841022    27A     -0.815630
      28A     -0.795528    29A     -0.743416    30A     -0.711244
      31A     -0.665744    32A     -0.654564    33A     -0.649603
      34A     -0.633535    35A     -0.621541    36A     -0.613957
      37A     -0.596787    38A     -0.583991    39A     -0.575724
      40A     -0.570199    41A     -0.554470    42A     -0.548451
      43A     -0.540963    44A     -0.527018    45A     -0.517886
      46A     -0.506184    47A     -0.493795    48A     -0.489390
      49A     -0.482789    50A     -0.475591    51A     -0.426859
      52A     -0.413226    53A     -0.367499    54A     -0.340017
      55A     -0.330040

  @DF-RHF Final Energy:  -631.70999888963138

   => Energetics <=

    Nuclear Repulsion Energy =            998.1260274702741526
    One-Electron Energy =               -2839.4578564650455519
    Two-Electron Energy =                1209.6218301051401340
    Total Energy =                       -631.7099988896313789
  Basis Set: (AUG-CC-PVTZ AUX)
    Blend: AUG-CC-PVTZ-RI
    Molecular point group: c1

    Geometry (in Angstrom), charge = 0, multiplicity = 1:

       Center              X                  Y                   Z               Mass
    ------------   -----------------  -----------------  -----------------  -----------------
         O            0.056091957315     1.932121665411    -1.175681360848    15.994914619570
         N            1.255656957315     0.444498665411     0.092866639152    14.003074004430
         C            3.726764957315    -0.969349334589     0.440467639152    12.000000000000
         C            3.588476057315     0.232673765411    -0.726762560848    12.000000000000
         C            2.378717957315    -1.636406334589     0.717063639152    12.000000000000
         C            2.509363957315     1.149326665411    -0.157915360848    12.000000000000
         C            1.336636957315    -0.594387334589     1.113750639152    12.000000000000
         C            0.097888957315     0.910466665411    -0.476562360848    12.000000000000
         C           -1.135662042685     0.083685665411    -0.261404360848    12.000000000000
         C           -2.237232042685     0.637280665411     0.416697639152    12.000000000000
         C           -1.217116042685    -1.190035334589    -0.837359360848    12.000000000000
         C           -3.400256042685    -0.133737334589     0.521153639152    12.000000000000
         C           -2.161420042685     2.018485665411     1.014165639152    12.000000000000
         C           -2.391487042685    -1.936566334589    -0.734331360848    12.000000000000
         C           -3.485299042685    -1.405867334589    -0.049698360848    12.000000000000
         H            4.458258957315    -1.711192334589     0.100368639152     1.007825032230
         H            4.116166957315    -0.547657334589     1.377458639152     1.007825032230
         H            4.532986957315     0.673596665411    -0.732117360848     1.007825032230
         H            3.290925957315    -0.271310334589    -1.560168360848     1.007825032230
         H            2.028358957315    -2.158178334589    -0.182039360848     1.007825032230
         H            2.471908957315    -2.383562334589     1.514695639152     1.007825032230
         H            2.822037957315     1.666417665411     0.762371639152     1.007825032230
         H            2.312351957315     1.903689665411    -0.920835360848     1.007825032230
         H            0.352116957315    -1.042708334589     1.250261639152     1.007825032230
         H            1.628577957315    -0.126889334589     2.067852639152     1.007825032230
         H           -0.358013042685    -1.588411334589    -1.374830360848     1.007825032230
         H           -4.259205042685     0.274524665411     1.051291639152     1.007825032230
         H           -1.980167042685     2.763168665411     0.235385639152     1.007825032230
         H           -3.091697042685     2.264266665411     1.533426639152     1.007825032230
         H           -1.339313042685     2.095293665411     1.733915639152     1.007825032230
         H           -2.452548042685    -2.922535334589    -1.188865360848     1.007825032230
         H           -4.404762042685    -1.979630334589     0.040480639152     1.007825032230

  Basis Set: AUG-CC-PVTZ
    Blend: AUG-CC-PVTZ
  Basis Set: (AUG-CC-PVTZ AUX)
    Blend: AUG-CC-PVTZ-JKFIT
	 Reference Energy          =    -631.7099988896313789 [Eh]
	 Singles Energy            =      -0.0000000000000000 [Eh]
	 Same-Spin Energy          =      -0.6888442795085221 [Eh]
	 Opposite-Spin Energy      =      -2.2130796955465999 [Eh]
	 Correlation Energy        =      -2.9019239750551220 [Eh]
	 Total Energy              =    -634.6119228646864485 [Eh]

	 ================> DF-SCS-MP2 Energies <==================
	-----------------------------------------------------------
	 SCS Same-Spin Scale       =       0.3333333333333333 [-]
	 SCS Opposite-Spin Scale   =       1.2000000000000000 [-]
	 SCS Same-Spin Energy      =      -0.2296147598361740 [Eh]
	 SCS Opposite-Spin Energy  =      -2.6556956346559200 [Eh]
	 SCS Correlation Energy    =      -2.8853103944920941 [Eh]
	 SCS Total Energy          =    -634.5953092841234593 [Eh]
	-----------------------------------------------------------

  Dipole Moment: [D]
     X:     1.3735      Y:    -2.4837      Z:     2.2614     Total:     3.6290

*** Psi4 exiting successfully. Buy a developer a beer!
