                               Psi4 1.4a3.dev225

  ==> Input File <==

--------------------------------------------------------------------------
#psi4
#
memory 32 gb

molecule  {
0 1
  O        0.0109280     1.9504830    -1.2088660
  N        1.2104930     0.4628600     0.0596820
  C        3.6816010    -0.9509880     0.4072830
  C        3.5342200     0.1692850    -0.6230390
  C        2.3335540    -1.6180450     0.6838790
  C        2.4642000     1.1676880    -0.1911000
  C        1.2914730    -0.5760260     1.0805660
  C        0.0527250     0.9288280    -0.5097470
  C       -1.1808260     0.1020470    -0.2945890
  C       -2.2823960     0.6556420     0.3835130
  C       -1.2622800    -1.1716740    -0.8705440
  C       -3.4454200    -0.1153760     0.4879690
  C       -2.2055777     2.0551800     0.9889113
  C       -2.4366510    -1.9182050    -0.7675160
  C       -3.5304630    -1.3875060    -0.0828830
  H        4.4130950    -1.6928310     0.0671840
  H        4.0710030    -0.5292960     1.3442740
  H        4.4878230     0.6919580    -0.7653020
  H        3.2457620    -0.2529490    -1.5933530
  H        1.9831950    -2.1398170    -0.2152240
  H        2.4267450    -2.3652010     1.4815110
  H        2.7768740     1.6847790     0.7291870
  H        2.2671880     1.9220510    -0.9540200
  H        0.3069530    -1.0243470     1.2170770
  H        1.5834140    -0.1085280     2.0346680
  H       -0.4031770    -1.5700500    -1.4080150
  H       -4.3043690     0.2928860     1.0181070
  H       -2.0253310     2.7815300     0.2022010
  H       -3.1368610     2.2826280     1.5002420
  H       -1.3844770     2.1136550     1.7007310
  H       -2.4977120    -2.9041740    -1.2220500
  H       -4.4499260    -1.9612690     0.0072960
units angstrom
no_reorient  #important for SAPT in psi4, default
symmetry c1  #important for SAPT in psi4, default
}

set PROPERTIES_ORIGIN ["COM"]
properties('MP2/aug-cc-pvtz', properties = ['dipole'])
--------------------------------------------------------------------------

    Molecular point group: c1
  Charge       = 0
  Multiplicity = 1
  Basis Set: AUG-CC-PVTZ
    Blend: AUG-CC-PVTZ
  Basis Set: (AUG-CC-PVTZ AUX)
    Blend: AUG-CC-PVTZ-JKFIT

    Orbital Energies [Eh]
    ---------------------

    Doubly Occupied:

       1A    -20.510805     2A    -15.583901     3A    -11.349428
       4A    -11.267070     5A    -11.254636     6A    -11.252582
       7A    -11.246281     8A    -11.244978     9A    -11.242600
      10A    -11.239088    11A    -11.236973    12A    -11.230631
      13A    -11.228320    14A    -11.225678    15A    -11.219925
      16A     -1.366995    17A     -1.249593    18A     -1.160745
      19A     -1.083602    20A     -1.048935    21A     -1.037072
      22A     -1.023108    23A     -0.943321    24A     -0.919093
      25A     -0.867430    26A     -0.843916    27A     -0.815432
      28A     -0.791038    29A     -0.742658    30A     -0.712304
      31A     -0.666206    32A     -0.652561    33A     -0.648164
      34A     -0.627733    35A     -0.620192    36A     -0.615154
      37A     -0.596295    38A     -0.588131    39A     -0.574845
      40A     -0.572513    41A     -0.559928    42A     -0.547848
      43A     -0.543753    44A     -0.525254    45A     -0.508148
      46A     -0.501503    47A     -0.491841    48A     -0.488111
      49A     -0.478414    50A     -0.469615    51A     -0.461576
      52A     -0.416957    53A     -0.366258    54A     -0.339930
      55A     -0.330426

  @DF-RHF Final Energy:  -631.73061241541870

   => Energetics <=

    Nuclear Repulsion Energy =            999.5917945009787218
    One-Electron Energy =               -2842.3858219567664491
    Two-Electron Energy =                1211.0634150403689091
    Total Energy =                       -631.7306124154188183
  Basis Set: (AUG-CC-PVTZ AUX)
    Blend: AUG-CC-PVTZ-RI
    Molecular point group: c1

    Geometry (in Angstrom), charge = 0, multiplicity = 1:

       Center              X                  Y                   Z               Mass
    ------------   -----------------  -----------------  -----------------  -----------------
         O            0.056569627356     1.935868041626    -1.184237720432    15.994914619570
         N            1.256134627356     0.448245041626     0.084310279568    14.003074004430
         C            3.727242627356    -0.965602958374     0.431911279568    12.000000000000
         C            3.579861627356     0.154670041626    -0.598410720432    12.000000000000
         C            2.379195627356    -1.632659958374     0.708507279568    12.000000000000
         C            2.509841627356     1.153073041626    -0.166471720432    12.000000000000
         C            1.337114627356    -0.590640958374     1.105194279568    12.000000000000
         C            0.098366627356     0.914213041626    -0.485118720432    12.000000000000
         C           -1.135184372644     0.087432041626    -0.269960720432    12.000000000000
         C           -2.236754372644     0.641027041626     0.408141279568    12.000000000000
         C           -1.216638372644    -1.186288958374    -0.845915720432    12.000000000000
         C           -3.399778372644    -0.129990958374     0.512597279568    12.000000000000
         C           -2.159936072644     2.040565041626     1.013539579568    12.000000000000
         C           -2.391009372644    -1.932819958374    -0.742887720432    12.000000000000
         C           -3.484821372644    -1.402120958374    -0.058254720432    12.000000000000
         H            4.458736627356    -1.707445958374     0.091812279568     1.007825032230
         H            4.116644627356    -0.543910958374     1.368902279568     1.007825032230
         H            4.533464627356     0.677343041626    -0.740673720432     1.007825032230
         H            3.291403627356    -0.267563958374    -1.568724720432     1.007825032230
         H            2.028836627356    -2.154431958374    -0.190595720432     1.007825032230
         H            2.472386627356    -2.379815958374     1.506139279568     1.007825032230
         H            2.822515627356     1.670164041626     0.753815279568     1.007825032230
         H            2.312829627356     1.907436041626    -0.929391720432     1.007825032230
         H            0.352594627356    -1.038961958374     1.241705279568     1.007825032230
         H            1.629055627356    -0.123142958374     2.059296279568     1.007825032230
         H           -0.357535372644    -1.584664958374    -1.383386720432     1.007825032230
         H           -4.258727372644     0.278271041626     1.042735279568     1.007825032230
         H           -1.979689372644     2.766915041626     0.226829279568     1.007825032230
         H           -3.091219372644     2.268013041626     1.524870279568     1.007825032230
         H           -1.338835372644     2.099040041626     1.725359279568     1.007825032230
         H           -2.452070372644    -2.918788958374    -1.197421720432     1.007825032230
         H           -4.404284372644    -1.975883958374     0.031924279568     1.007825032230

  Basis Set: AUG-CC-PVTZ
    Blend: AUG-CC-PVTZ
  Basis Set: (AUG-CC-PVTZ AUX)
    Blend: AUG-CC-PVTZ-JKFIT
	 Reference Energy          =    -631.7306124154187046 [Eh]
	 Singles Energy            =      -0.0000000000000000 [Eh]
	 Same-Spin Energy          =      -0.6888431641724203 [Eh]
	 Opposite-Spin Energy      =      -2.2121195343879969 [Eh]
	 Correlation Energy        =      -2.9009626985604173 [Eh]
	 Total Energy              =    -634.6315751139791246 [Eh]

	 ================> DF-SCS-MP2 Energies <==================
	-----------------------------------------------------------
	 SCS Same-Spin Scale       =       0.3333333333333333 [-]
	 SCS Opposite-Spin Scale   =       1.2000000000000000 [-]
	 SCS Same-Spin Energy      =      -0.2296143880574734 [Eh]
	 SCS Opposite-Spin Energy  =      -2.6545434412655964 [Eh]
	 SCS Correlation Energy    =      -2.8841578293230699 [Eh]
	 SCS Total Energy          =    -634.6147702447417487 [Eh]
	-----------------------------------------------------------

  Dipole Moment: [D]
     X:     1.4026      Y:    -2.5262      Z:     2.3041     Total:     3.6957

*** Psi4 exiting successfully. Buy a developer a beer!
