                               Psi4 1.4a3.dev225

  ==> Input File <==

--------------------------------------------------------------------------
#psi4
#
memory 32 gb

molecule  {
0 1
  O        0.0109280     1.9504830    -1.2088660
  N        1.2104930     0.4628600     0.0596820
  C        3.6816010    -0.9509880     0.4072830
  C        3.5342200     0.1692850    -0.6230390
  C        2.3335540    -1.6180450     0.6838790
  C        2.4642000     1.1676880    -0.1911000
  C        1.2914730    -0.5760260     1.0805660
  C        0.0527250     0.9288280    -0.5097470
  C       -1.1808260     0.1020470    -0.2945890
  C       -2.2823960     0.6556420     0.3835130
  C       -1.2622800    -1.1716740    -0.8705440
  C       -3.4287969    -0.1043558     0.4864760
  C       -2.2065840     2.0368470     0.9809810
  C       -2.4366510    -1.9182050    -0.7675160
  C       -3.5304630    -1.3875060    -0.0828830
  H        4.4130950    -1.6928310     0.0671840
  H        4.0710030    -0.5292960     1.3442740
  H        4.4878230     0.6919580    -0.7653020
  H        3.2457620    -0.2529490    -1.5933530
  H        1.9831950    -2.1398170    -0.2152240
  H        2.4267450    -2.3652010     1.4815110
  H        2.7768740     1.6847790     0.7291870
  H        2.2671880     1.9220510    -0.9540200
  H        0.3069530    -1.0243470     1.2170770
  H        1.5834140    -0.1085280     2.0346680
  H       -0.4031770    -1.5700500    -1.4080150
  H       -4.3043690     0.2928860     1.0181070
  H       -2.0253310     2.7815300     0.2022010
  H       -3.1368610     2.2826280     1.5002420
  H       -1.3844770     2.1136550     1.7007310
  H       -2.4977120    -2.9041740    -1.2220500
  H       -4.4499260    -1.9612690     0.0072960
units angstrom
no_reorient  #important for SAPT in psi4, default
symmetry c1  #important for SAPT in psi4, default
}

set PROPERTIES_ORIGIN ["COM"]
properties('MP2/aug-cc-pvtz', properties = ['dipole'])
--------------------------------------------------------------------------

    Molecular point group: c1
  Charge       = 0
  Multiplicity = 1
  Basis Set: AUG-CC-PVTZ
    Blend: AUG-CC-PVTZ
  Basis Set: (AUG-CC-PVTZ AUX)
    Blend: AUG-CC-PVTZ-JKFIT

    Orbital Energies [Eh]
    ---------------------

    Doubly Occupied:

       1A    -20.510831     2A    -15.583944     3A    -11.349520
       4A    -11.267072     5A    -11.254651     6A    -11.249420
       7A    -11.246386     8A    -11.245203     9A    -11.243680
      10A    -11.239272    11A    -11.236622    12A    -11.230658
      13A    -11.228340    14A    -11.225697    15A    -11.220000
      16A     -1.367050    17A     -1.249622    18A     -1.162667
      19A     -1.083600    20A     -1.051724    21A     -1.037215
      22A     -1.022565    23A     -0.942724    24A     -0.919264
      25A     -0.867801    26A     -0.845048    27A     -0.814402
      28A     -0.791370    29A     -0.742669    30A     -0.712056
      31A     -0.666987    32A     -0.653006    33A     -0.648620
      34A     -0.627881    35A     -0.619387    36A     -0.615458
      37A     -0.595452    38A     -0.588110    39A     -0.575977
      40A     -0.572057    41A     -0.560426    42A     -0.547588
      43A     -0.540659    44A     -0.524761    45A     -0.510222
      46A     -0.502072    47A     -0.491251    48A     -0.487686
      49A     -0.478279    50A     -0.469640    51A     -0.461577
      52A     -0.417140    53A     -0.366253    54A     -0.339651
      55A     -0.331362

  @DF-RHF Final Energy:  -631.73022327849424

   => Energetics <=

    Nuclear Repulsion Energy =           1000.2985590955273665
    One-Electron Energy =               -2843.7924146529499012
    Two-Electron Energy =                1211.7636322789285259
    Total Energy =                       -631.7302232784941225
  Basis Set: (AUG-CC-PVTZ AUX)
    Blend: AUG-CC-PVTZ-RI
    Molecular point group: c1

    Geometry (in Angstrom), charge = 0, multiplicity = 1:

       Center              X                  Y                   Z               Mass
    ------------   -----------------  -----------------  -----------------  -----------------
         O            0.055647062180     1.936300046558    -1.183681037345    15.994914619570
         N            1.255212062180     0.448677046558     0.084866962655    14.003074004430
         C            3.726320062180    -0.965170953442     0.432467962655    12.000000000000
         C            3.578939062179     0.155102046558    -0.597854037345    12.000000000000
         C            2.378273062180    -1.632227953442     0.709063962655    12.000000000000
         C            2.508919062180     1.153505046558    -0.165915037345    12.000000000000
         C            1.336192062180    -0.590208953442     1.105750962655    12.000000000000
         C            0.097444062180     0.914645046558    -0.484562037345    12.000000000000
         C           -1.136106937820     0.087864046558    -0.269404037345    12.000000000000
         C           -2.237676937820     0.641459046558     0.408697962655    12.000000000000
         C           -1.217560937820    -1.185856953442    -0.845359037345    12.000000000000
         C           -3.384077837820    -0.118538753442     0.511660962655    12.000000000000
         C           -2.161864937820     2.022664046558     1.006165962655    12.000000000000
         C           -2.391931937820    -1.932387953442    -0.742331037345    12.000000000000
         C           -3.485743937820    -1.401688953442    -0.057698037345    12.000000000000
         H            4.457814062180    -1.707013953442     0.092368962655     1.007825032230
         H            4.115722062180    -0.543478953442     1.369458962655     1.007825032230
         H            4.532542062180     0.677775046558    -0.740117037345     1.007825032230
         H            3.290481062180    -0.267131953442    -1.568168037345     1.007825032230
         H            2.027914062180    -2.153999953442    -0.190039037345     1.007825032230
         H            2.471464062179    -2.379383953442     1.506695962655     1.007825032230
         H            2.821593062179     1.670596046558     0.754371962655     1.007825032230
         H            2.311907062179     1.907868046558    -0.928835037345     1.007825032230
         H            0.351672062180    -1.038529953442     1.242261962655     1.007825032230
         H            1.628133062180    -0.122710953442     2.059852962655     1.007825032230
         H           -0.358457937820    -1.584232953442    -1.382830037345     1.007825032230
         H           -4.259649937820     0.278703046558     1.043291962655     1.007825032230
         H           -1.980611937820     2.767347046558     0.227385962655     1.007825032230
         H           -3.092141937820     2.268445046558     1.525426962655     1.007825032230
         H           -1.339757937820     2.099472046558     1.725915962655     1.007825032230
         H           -2.452992937820    -2.918356953442    -1.196865037345     1.007825032230
         H           -4.405206937820    -1.975451953442     0.032480962655     1.007825032230

  Basis Set: AUG-CC-PVTZ
    Blend: AUG-CC-PVTZ
  Basis Set: (AUG-CC-PVTZ AUX)
    Blend: AUG-CC-PVTZ-JKFIT
	 Reference Energy          =    -631.7302232784942362 [Eh]
	 Singles Energy            =      -0.0000000000000000 [Eh]
	 Same-Spin Energy          =      -0.6890297007074846 [Eh]
	 Opposite-Spin Energy      =      -2.2123084291255286 [Eh]
	 Correlation Energy        =      -2.9013381298330132 [Eh]
	 Total Energy              =    -634.6315614083272294 [Eh]

	 ================> DF-SCS-MP2 Energies <==================
	-----------------------------------------------------------
	 SCS Same-Spin Scale       =       0.3333333333333333 [-]
	 SCS Opposite-Spin Scale   =       1.2000000000000000 [-]
	 SCS Same-Spin Energy      =      -0.2296765669024949 [Eh]
	 SCS Opposite-Spin Energy  =      -2.6547701149506344 [Eh]
	 SCS Correlation Energy    =      -2.8844466818531291 [Eh]
	 SCS Total Energy          =    -634.6146699603473280 [Eh]
	-----------------------------------------------------------

  Dipole Moment: [D]
     X:     1.4082      Y:    -2.5324      Z:     2.2971     Total:     3.6976

*** Psi4 exiting successfully. Buy a developer a beer!
