                               Psi4 1.4a3.dev225

  ==> Input File <==

--------------------------------------------------------------------------
#psi4
#
memory 32 gb

molecule  {
0 1
  O        0.0109280     1.9504830    -1.2088660
  N        1.2104930     0.4628600     0.0596820
  C        3.6816010    -0.9509880     0.4072830
  C        3.5342200     0.1692850    -0.6230390
  C        2.3335540    -1.6180450     0.6838790
  C        2.4642000     1.1676880    -0.1911000
  C        1.2914730    -0.5760260     1.0805660
  C        0.0527250     0.9288280    -0.5097470
  C       -1.1808260     0.1020470    -0.2945890
  C       -2.2823960     0.6556420     0.3835130
  C       -1.2622800    -1.1716740    -0.8705440
  C       -3.4454200    -0.1153760     0.4879690
  C       -2.2065840     2.0368470     0.9809810
  C       -2.4366510    -1.9182050    -0.7675160
  C       -3.5335069    -1.4330390    -0.1033153
  H        4.4130950    -1.6928310     0.0671840
  H        4.0710030    -0.5292960     1.3442740
  H        4.4878230     0.6919580    -0.7653020
  H        3.2457620    -0.2529490    -1.5933530
  H        1.9831950    -2.1398170    -0.2152240
  H        2.4267450    -2.3652010     1.4815110
  H        2.7768740     1.6847790     0.7291870
  H        2.2671880     1.9220510    -0.9540200
  H        0.3069530    -1.0243470     1.2170770
  H        1.5834140    -0.1085280     2.0346680
  H       -0.4031770    -1.5700500    -1.4080150
  H       -4.3043690     0.2928860     1.0181070
  H       -2.0253310     2.7815300     0.2022010
  H       -3.1368610     2.2826280     1.5002420
  H       -1.3844770     2.1136550     1.7007310
  H       -2.4977120    -2.9041740    -1.2220500
  H       -4.4499260    -1.9612690     0.0072960
units angstrom
no_reorient  #important for SAPT in psi4, default
symmetry c1  #important for SAPT in psi4, default
}

set PROPERTIES_ORIGIN ["COM"]
properties('MP2/aug-cc-pvtz', properties = ['dipole'])
--------------------------------------------------------------------------

    Molecular point group: c1
  Charge       = 0
  Multiplicity = 1
  Basis Set: AUG-CC-PVTZ
    Blend: AUG-CC-PVTZ
  Basis Set: (AUG-CC-PVTZ AUX)
    Blend: AUG-CC-PVTZ-JKFIT

    Orbital Energies [Eh]
    ---------------------

    Doubly Occupied:

       1A    -20.511074     2A    -15.584148     3A    -11.349810
       4A    -11.267106     5A    -11.254770     6A    -11.251259
       7A    -11.247083     8A    -11.245852     9A    -11.243164
      10A    -11.241459    11A    -11.237190    12A    -11.230717
      13A    -11.228399    14A    -11.225781    15A    -11.220124
      16A     -1.367289    17A     -1.249787    18A     -1.159538
      19A     -1.083624    20A     -1.053482    21A     -1.035776
      22A     -1.020636    23A     -0.940804    24A     -0.919968
      25A     -0.868387    26A     -0.846785    27A     -0.813955
      28A     -0.790517    29A     -0.742764    30A     -0.711954
      31A     -0.670000    32A     -0.654087    33A     -0.647526
      34A     -0.628108    35A     -0.619734    36A     -0.614858
      37A     -0.595881    38A     -0.588149    39A     -0.573331
      40A     -0.571072    41A     -0.562433    42A     -0.549602
      43A     -0.542055    44A     -0.525058    45A     -0.510450
      46A     -0.501336    47A     -0.490503    48A     -0.486918
      49A     -0.477953    50A     -0.469682    51A     -0.461612
      52A     -0.417162    53A     -0.366383    54A     -0.334998
      55A     -0.333588

  @DF-RHF Final Energy:  -631.72748223401811

   => Energetics <=

    Nuclear Repulsion Energy =            999.4099569106238050
    One-Electron Energy =               -2842.0035199540366193
    Two-Electron Energy =                1210.8660808093948162
    Total Energy =                       -631.7274822340179981
  Basis Set: (AUG-CC-PVTZ AUX)
    Blend: AUG-CC-PVTZ-RI
    Molecular point group: c1

    Geometry (in Angstrom), charge = 0, multiplicity = 1:

       Center              X                  Y                   Z               Mass
    ------------   -----------------  -----------------  -----------------  -----------------
         O            0.056808893626     1.939640936686    -1.182562194903    15.994914619570
         N            1.256373893626     0.452017936686     0.085985805097    14.003074004430
         C            3.727481893626    -0.961830063314     0.433586805097    12.000000000000
         C            3.580100893626     0.158442936686    -0.596735194903    12.000000000000
         C            2.379434893626    -1.628887063314     0.710182805097    12.000000000000
         C            2.510080893626     1.156845936686    -0.164796194903    12.000000000000
         C            1.337353893626    -0.586868063314     1.106869805097    12.000000000000
         C            0.098605893626     0.917985936686    -0.483443194903    12.000000000000
         C           -1.134945106374     0.091204936686    -0.268285194903    12.000000000000
         C           -2.236515106374     0.644799936686     0.409816805097    12.000000000000
         C           -1.216399106374    -1.182516063314    -0.844240194903    12.000000000000
         C           -3.399539106374    -0.126218063314     0.514272805097    12.000000000000
         C           -2.160703106374     2.026004936686     1.007284805097    12.000000000000
         C           -2.390770106374    -1.929047063314    -0.741212194903    12.000000000000
         C           -3.487626006374    -1.443881063314    -0.077011494903    12.000000000000
         H            4.458975893626    -1.703673063314     0.093487805097     1.007825032230
         H            4.116883893626    -0.540138063314     1.370577805097     1.007825032230
         H            4.533703893626     0.681115936686    -0.738998194903     1.007825032230
         H            3.291642893626    -0.263791063314    -1.567049194903     1.007825032230
         H            2.029075893626    -2.150659063314    -0.188920194903     1.007825032230
         H            2.472625893626    -2.376043063314     1.507814805097     1.007825032230
         H            2.822754893626     1.673936936686     0.755490805097     1.007825032230
         H            2.313068893626     1.911208936686    -0.927716194903     1.007825032230
         H            0.352833893626    -1.035189063314     1.243380805097     1.007825032230
         H            1.629294893626    -0.119370063314     2.060971805097     1.007825032230
         H           -0.357296106374    -1.580892063314    -1.381711194903     1.007825032230
         H           -4.258488106374     0.282043936686     1.044410805097     1.007825032230
         H           -1.979450106374     2.770687936686     0.228504805097     1.007825032230
         H           -3.090980106374     2.271785936686     1.526545805097     1.007825032230
         H           -1.338596106374     2.102812936686     1.727034805097     1.007825032230
         H           -2.451831106374    -2.915016063314    -1.195746194903     1.007825032230
         H           -4.404045106374    -1.972111063314     0.033599805097     1.007825032230

  Basis Set: AUG-CC-PVTZ
    Blend: AUG-CC-PVTZ
  Basis Set: (AUG-CC-PVTZ AUX)
    Blend: AUG-CC-PVTZ-JKFIT
	 Reference Energy          =    -631.7274822340181117 [Eh]
	 Singles Energy            =      -0.0000000000000000 [Eh]
	 Same-Spin Energy          =      -0.6889510874339442 [Eh]
	 Opposite-Spin Energy      =      -2.2125628889824389 [Eh]
	 Correlation Energy        =      -2.9015139764163829 [Eh]
	 Total Energy              =    -634.6289962104344795 [Eh]

	 ================> DF-SCS-MP2 Energies <==================
	-----------------------------------------------------------
	 SCS Same-Spin Scale       =       0.3333333333333333 [-]
	 SCS Opposite-Spin Scale   =       1.2000000000000000 [-]
	 SCS Same-Spin Energy      =      -0.2296503624779814 [Eh]
	 SCS Opposite-Spin Energy  =      -2.6550754667789267 [Eh]
	 SCS Correlation Energy    =      -2.8847258292569080 [Eh]
	 SCS Total Energy          =    -634.6122080632750340 [Eh]
	-----------------------------------------------------------

  Dipole Moment: [D]
     X:     1.4017      Y:    -2.5171      Z:     2.3082     Total:     3.6917

*** Psi4 exiting successfully. Buy a developer a beer!
