                               Psi4 1.4a3.dev225

  ==> Input File <==

--------------------------------------------------------------------------
#psi4
#
memory 32 gb

molecule  {
0 1
  O        0.0109280     1.9504830    -1.2088660
  N        1.2104930     0.4628600     0.0596820
  C        3.6816010    -0.9509880     0.4072830
  C        3.4719932     0.1440395    -0.7057060
  C        2.3335540    -1.6180450     0.6838790
  C        2.4642000     1.1676880    -0.1911000
  C        1.2914730    -0.5760260     1.0805660
  C        0.0527250     0.9288280    -0.5097470
  C       -1.1808260     0.1020470    -0.2945890
  C       -2.2823960     0.6556420     0.3835130
  C       -1.2622800    -1.1716740    -0.8705440
  C       -3.4454200    -0.1153760     0.4879690
  C       -2.2065840     2.0368470     0.9809810
  C       -2.4366510    -1.9182050    -0.7675160
  C       -3.5304630    -1.3875060    -0.0828830
  H        4.4130950    -1.6928310     0.0671840
  H        4.0710030    -0.5292960     1.3442740
  H        4.4878230     0.6919580    -0.7653020
  H        3.2457620    -0.2529490    -1.5933530
  H        1.9831950    -2.1398170    -0.2152240
  H        2.4267450    -2.3652010     1.4815110
  H        2.7768740     1.6847790     0.7291870
  H        2.2671880     1.9220510    -0.9540200
  H        0.3069530    -1.0243470     1.2170770
  H        1.5834140    -0.1085280     2.0346680
  H       -0.4031770    -1.5700500    -1.4080150
  H       -4.3043690     0.2928860     1.0181070
  H       -2.0253310     2.7815300     0.2022010
  H       -3.1368610     2.2826280     1.5002420
  H       -1.3844770     2.1136550     1.7007310
  H       -2.4977120    -2.9041740    -1.2220500
  H       -4.4499260    -1.9612690     0.0072960
units angstrom
no_reorient  #important for SAPT in psi4, default
symmetry c1  #important for SAPT in psi4, default
}

set PROPERTIES_ORIGIN ["COM"]
properties('MP2/aug-cc-pvtz', properties = ['dipole'])
--------------------------------------------------------------------------

    Molecular point group: c1
  Charge       = 0
  Multiplicity = 1
  Basis Set: AUG-CC-PVTZ
    Blend: AUG-CC-PVTZ
  Basis Set: (AUG-CC-PVTZ AUX)
    Blend: AUG-CC-PVTZ-JKFIT

    Orbital Energies [Eh]
    ---------------------

    Doubly Occupied:

       1A    -20.510435     2A    -15.582817     3A    -11.348943
       4A    -11.266692     5A    -11.255104     6A    -11.251735
       7A    -11.246267     8A    -11.244902     9A    -11.242550
      10A    -11.239111    11A    -11.236933    12A    -11.230326
      13A    -11.229193    14A    -11.224938    15A    -11.220303
      16A     -1.366719    17A     -1.249573    18A     -1.161346
      19A     -1.079533    20A     -1.050694    21A     -1.037562
      22A     -1.022421    23A     -0.942598    24A     -0.917399
      25A     -0.868061    26A     -0.842633    27A     -0.815881
      28A     -0.795663    29A     -0.745185    30A     -0.711742
      31A     -0.666379    32A     -0.654494    33A     -0.648241
      34A     -0.628410    35A     -0.619613    36A     -0.616225
      37A     -0.597319    38A     -0.583334    39A     -0.575361
      40A     -0.571679    41A     -0.557354    42A     -0.542815
      43A     -0.539521    44A     -0.528012    45A     -0.517333
      46A     -0.506258    47A     -0.492665    48A     -0.489950
      49A     -0.484323    50A     -0.467714    51A     -0.445746
      52A     -0.415738    53A     -0.365985    54A     -0.339905
      55A     -0.329885

  @DF-RHF Final Energy:  -631.71705594922241

   => Energetics <=

    Nuclear Repulsion Energy =           1000.2037334153806114
    One-Electron Energy =               -2843.5985382253438729
    Two-Electron Energy =                1211.6777488607408486
    Total Energy =                       -631.7170559492224129
  Basis Set: (AUG-CC-PVTZ AUX)
    Blend: AUG-CC-PVTZ-RI
    Molecular point group: c1

    Geometry (in Angstrom), charge = 0, multiplicity = 1:

       Center              X                  Y                   Z               Mass
    ------------   -----------------  -----------------  -----------------  -----------------
         O            0.060305133739     1.938442449094    -1.178885669174    15.994914619570
         N            1.259870133739     0.450819449094     0.089662330826    14.003074004430
         C            3.730978133739    -0.963028550906     0.437263330826    12.000000000000
         C            3.521370333739     0.131998949094    -0.675725669174    12.000000000000
         C            2.382931133739    -1.630085550906     0.713859330826    12.000000000000
         C            2.513577133739     1.155647449094    -0.161119669174    12.000000000000
         C            1.340850133739    -0.588066550906     1.110546330826    12.000000000000
         C            0.102102133739     0.916787449094    -0.479766669174    12.000000000000
         C           -1.131448866261     0.090006449094    -0.264608669174    12.000000000000
         C           -2.233018866261     0.643601449094     0.413493330826    12.000000000000
         C           -1.212902866261    -1.183714550906    -0.840563669174    12.000000000000
         C           -3.396042866261    -0.127416550906     0.517949330826    12.000000000000
         C           -2.157206866261     2.024806449094     1.010961330826    12.000000000000
         C           -2.387273866261    -1.930245550906    -0.737535669174    12.000000000000
         C           -3.481085866261    -1.399546550906    -0.052902669174    12.000000000000
         H            4.462472133739    -1.704871550906     0.097164330826     1.007825032230
         H            4.120380133739    -0.541336550906     1.374254330826     1.007825032230
         H            4.537200133739     0.679917449094    -0.735321669174     1.007825032230
         H            3.295139133739    -0.264989550906    -1.563372669174     1.007825032230
         H            2.032572133739    -2.151857550906    -0.185243669174     1.007825032230
         H            2.476122133739    -2.377241550906     1.511491330826     1.007825032230
         H            2.826251133739     1.672738449094     0.759167330826     1.007825032230
         H            2.316565133739     1.910010449094    -0.924039669174     1.007825032230
         H            0.356330133739    -1.036387550906     1.247057330826     1.007825032230
         H            1.632791133739    -0.120568550906     2.064648330826     1.007825032230
         H           -0.353799866261    -1.582090550906    -1.378034669174     1.007825032230
         H           -4.254991866261     0.280845449094     1.048087330826     1.007825032230
         H           -1.975953866261     2.769489449094     0.232181330826     1.007825032230
         H           -3.087483866261     2.270587449094     1.530222330826     1.007825032230
         H           -1.335099866261     2.101614449094     1.730711330826     1.007825032230
         H           -2.448334866261    -2.916214550906    -1.192069669174     1.007825032230
         H           -4.400548866261    -1.973309550906     0.037276330826     1.007825032230

  Basis Set: AUG-CC-PVTZ
    Blend: AUG-CC-PVTZ
  Basis Set: (AUG-CC-PVTZ AUX)
    Blend: AUG-CC-PVTZ-JKFIT
	 Reference Energy          =    -631.7170559492224129 [Eh]
	 Singles Energy            =      -0.0000000000000000 [Eh]
	 Same-Spin Energy          =      -0.6890821062243845 [Eh]
	 Opposite-Spin Energy      =      -2.2128733814349739 [Eh]
	 Correlation Energy        =      -2.9019554876593583 [Eh]
	 Total Energy              =    -634.6190114368818058 [Eh]

	 ================> DF-SCS-MP2 Energies <==================
	-----------------------------------------------------------
	 SCS Same-Spin Scale       =       0.3333333333333333 [-]
	 SCS Opposite-Spin Scale   =       1.2000000000000000 [-]
	 SCS Same-Spin Energy      =      -0.2296940354081282 [Eh]
	 SCS Opposite-Spin Energy  =      -2.6554480577219688 [Eh]
	 SCS Correlation Energy    =      -2.8851420931300971 [Eh]
	 SCS Total Energy          =    -634.6021980423524838 [Eh]
	-----------------------------------------------------------

  Dipole Moment: [D]
     X:     1.3858      Y:    -2.5213      Z:     2.2932     Total:     3.6791

*** Psi4 exiting successfully. Buy a developer a beer!
