                               Psi4 1.4a3.dev225

  ==> Input File <==

--------------------------------------------------------------------------
#psi4
#
memory 32 gb

molecule  {
0 1
  O        0.0109280     1.9504830    -1.2088660
  N        1.2104930     0.4628600     0.0596820
  C        3.6816010    -0.9509880     0.4072830
  C        3.5342200     0.1692850    -0.6230390
  C        2.3335540    -1.6180450     0.6838790
  C        2.4642000     1.1676880    -0.1911000
  C        1.2914730    -0.5760260     1.0805660
  C        0.0527250     0.9288280    -0.5097470
  C       -1.1808260     0.1020470    -0.2945890
  C       -2.2823960     0.6556420     0.3835130
  C       -1.2622800    -1.1716740    -0.8705440
  C       -3.4454200    -0.1153760     0.4879690
  C       -2.2065840     2.0368470     0.9809810
  C       -2.4366510    -1.9182050    -0.7675160
  C       -3.5304630    -1.3875060    -0.0828830
  H        4.4130950    -1.6928310     0.0671840
  H        4.0710030    -0.5292960     1.3442740
  H        4.4878230     0.6919580    -0.7653020
  H        3.2457620    -0.2529490    -1.5933530
  H        1.9831950    -2.1398170    -0.2152240
  H        2.4267450    -2.3652010     1.4815110
  H        2.7768740     1.6847790     0.7291870
  H        2.2671880     1.9220510    -0.9540200
  H        0.3069530    -1.0243470     1.2170770
  H        1.5834140    -0.1085280     2.0346680
  H       -0.4031770    -1.5700500    -1.4080150
  H       -4.2254806     0.2553900     0.9694175
  H       -2.0253310     2.7815300     0.2022010
  H       -3.1368610     2.2826280     1.5002420
  H       -1.3844770     2.1136550     1.7007310
  H       -2.4977120    -2.9041740    -1.2220500
  H       -4.4499260    -1.9612690     0.0072960
units angstrom
no_reorient  #important for SAPT in psi4, default
symmetry c1  #important for SAPT in psi4, default
}

set PROPERTIES_ORIGIN ["COM"]
properties('MP2/aug-cc-pvtz', properties = ['dipole'])
--------------------------------------------------------------------------

    Molecular point group: c1
  Charge       = 0
  Multiplicity = 1
  Basis Set: AUG-CC-PVTZ
    Blend: AUG-CC-PVTZ
  Basis Set: (AUG-CC-PVTZ AUX)
    Blend: AUG-CC-PVTZ-JKFIT

    Orbital Energies [Eh]
    ---------------------

    Doubly Occupied:

       1A    -20.510551     2A    -15.583682     3A    -11.349118
       4A    -11.266917     5A    -11.254484     6A    -11.251001
       7A    -11.245942     8A    -11.244395     9A    -11.241810
      10A    -11.238490    11A    -11.230507    12A    -11.228211
      13A    -11.225559    14A    -11.224972    15A    -11.220487
      16A     -1.366761    17A     -1.249391    18A     -1.161645
      19A     -1.083534    20A     -1.050590    21A     -1.038693
      22A     -1.024477    23A     -0.944348    24A     -0.918764
      25A     -0.867461    26A     -0.846562    27A     -0.819140
      28A     -0.790726    29A     -0.744931    30A     -0.716116
      31A     -0.666401    32A     -0.652624    33A     -0.648454
      34A     -0.630730    35A     -0.624832    36A     -0.615782
      37A     -0.598983    38A     -0.588029    39A     -0.576765
      40A     -0.571805    41A     -0.560470    42A     -0.548363
      43A     -0.543048    44A     -0.524649    45A     -0.508091
      46A     -0.501796    47A     -0.493050    48A     -0.489593
      49A     -0.478503    50A     -0.469494    51A     -0.461416
      52A     -0.416700    53A     -0.366052    54A     -0.339615
      55A     -0.329463

  @DF-RHF Final Energy:  -631.72500474668811

   => Energetics <=

    Nuclear Repulsion Energy =           1000.5565327134845575
    One-Electron Energy =               -2844.2751300326094679
    Two-Electron Energy =                1211.9935925724366825
    Total Energy =                       -631.7250047466882279
  Basis Set: (AUG-CC-PVTZ AUX)
    Blend: AUG-CC-PVTZ-RI
    Molecular point group: c1

    Geometry (in Angstrom), charge = 0, multiplicity = 1:

       Center              X                  Y                   Z               Mass
    ------------   -----------------  -----------------  -----------------  -----------------
         O            0.056237673595     1.937137101441    -1.183527665902    15.994914619570
         N            1.255802673595     0.449514101441     0.085020334098    14.003074004430
         C            3.726910673595    -0.964333898559     0.432621334098    12.000000000000
         C            3.579529673595     0.155939101441    -0.597700665902    12.000000000000
         C            2.378863673595    -1.631390898559     0.709217334098    12.000000000000
         C            2.509509673595     1.154342101441    -0.165761665902    12.000000000000
         C            1.336782673595    -0.589371898559     1.105904334098    12.000000000000
         C            0.098034673595     0.915482101441    -0.484408665902    12.000000000000
         C           -1.135516326405     0.088701101441    -0.269250665902    12.000000000000
         C           -2.237086326405     0.642296101441     0.408851334098    12.000000000000
         C           -1.216970326405    -1.185019898559    -0.845205665902    12.000000000000
         C           -3.400110326405    -0.128721898559     0.513307334098    12.000000000000
         C           -2.161274326405     2.023501101441     1.006319334098    12.000000000000
         C           -2.391341326405    -1.931550898559    -0.742177665902    12.000000000000
         C           -3.485153326405    -1.400851898559    -0.057544665902    12.000000000000
         H            4.458404673595    -1.706176898559     0.092522334098     1.007825032230
         H            4.116312673595    -0.542641898559     1.369612334098     1.007825032230
         H            4.533132673595     0.678612101441    -0.739963665902     1.007825032230
         H            3.291071673595    -0.266294898559    -1.568014665902     1.007825032230
         H            2.028504673595    -2.153162898559    -0.189885665902     1.007825032230
         H            2.472054673595    -2.378546898559     1.506849334098     1.007825032230
         H            2.822183673595     1.671433101441     0.754525334098     1.007825032230
         H            2.312497673595     1.908705101441    -0.928681665902     1.007825032230
         H            0.352262673595    -1.037692898559     1.242415334098     1.007825032230
         H            1.628723673595    -0.121873898559     2.060006334098     1.007825032230
         H           -0.357867326405    -1.583395898559    -1.382676665902     1.007825032230
         H           -4.180170926405     0.242044101441     0.994755834098     1.007825032230
         H           -1.980021326405     2.768184101441     0.227539334098     1.007825032230
         H           -3.091551326405     2.269282101441     1.525580334098     1.007825032230
         H           -1.339167326405     2.100309101441     1.726069334098     1.007825032230
         H           -2.452402326405    -2.917519898559    -1.196711665902     1.007825032230
         H           -4.404616326405    -1.974614898559     0.032634334098     1.007825032230

  Basis Set: AUG-CC-PVTZ
    Blend: AUG-CC-PVTZ
  Basis Set: (AUG-CC-PVTZ AUX)
    Blend: AUG-CC-PVTZ-JKFIT
	 Reference Energy          =    -631.7250047466881142 [Eh]
	 Singles Energy            =      -0.0000000000000000 [Eh]
	 Same-Spin Energy          =      -0.6888220804891669 [Eh]
	 Opposite-Spin Energy      =      -2.2116935137750273 [Eh]
	 Correlation Energy        =      -2.9005155942641943 [Eh]
	 Total Energy              =    -634.6255203409523347 [Eh]

	 ================> DF-SCS-MP2 Energies <==================
	-----------------------------------------------------------
	 SCS Same-Spin Scale       =       0.3333333333333333 [-]
	 SCS Opposite-Spin Scale   =       1.2000000000000000 [-]
	 SCS Same-Spin Energy      =      -0.2296073601630556 [Eh]
	 SCS Opposite-Spin Energy  =      -2.6540322165300325 [Eh]
	 SCS Correlation Energy    =      -2.8836395766930880 [Eh]
	 SCS Total Energy          =    -634.6086443233812133 [Eh]
	-----------------------------------------------------------

  Dipole Moment: [D]
     X:     1.3721      Y:    -2.5070      Z:     2.3205     Total:     3.6814

*** Psi4 exiting successfully. Buy a developer a beer!
