                               Psi4 1.4a3.dev225

  ==> Input File <==

--------------------------------------------------------------------------
#psi4
#
memory 32 gb

molecule  {
0 1
  O        0.0109280     1.9504830    -1.2088660
  N        1.2104930     0.4628600     0.0596820
  C        3.6816010    -0.9509880     0.4072830
  C        3.5342200     0.1692850    -0.6230390
  C        2.3335540    -1.6180450     0.6838790
  C        2.4642000     1.1676880    -0.1911000
  C        1.2914730    -0.5760260     1.0805660
  C        0.0527250     0.9288280    -0.5097470
  C       -1.1808260     0.1020470    -0.2945890
  C       -2.2823960     0.6556420     0.3835130
  C       -1.2622800    -1.1716740    -0.8705440
  C       -3.4454200    -0.1153760     0.4879690
  C       -2.2015527     2.1285119     1.0206325
  C       -2.4366510    -1.9182050    -0.7675160
  C       -3.5304630    -1.3875060    -0.0828830
  H        4.4130950    -1.6928310     0.0671840
  H        4.0710030    -0.5292960     1.3442740
  H        4.4878230     0.6919580    -0.7653020
  H        3.2457620    -0.2529490    -1.5933530
  H        1.9831950    -2.1398170    -0.2152240
  H        2.4267450    -2.3652010     1.4815110
  H        2.7768740     1.6847790     0.7291870
  H        2.2671880     1.9220510    -0.9540200
  H        0.3069530    -1.0243470     1.2170770
  H        1.5834140    -0.1085280     2.0346680
  H       -0.4031770    -1.5700500    -1.4080150
  H       -4.3043690     0.2928860     1.0181070
  H       -2.0253310     2.7815300     0.2022010
  H       -3.1368610     2.2826280     1.5002420
  H       -1.3844770     2.1136550     1.7007310
  H       -2.4977120    -2.9041740    -1.2220500
  H       -4.4499260    -1.9612690     0.0072960
units angstrom
no_reorient  #important for SAPT in psi4, default
symmetry c1  #important for SAPT in psi4, default
}

set PROPERTIES_ORIGIN ["COM"]
properties('MP2/aug-cc-pvtz', properties = ['dipole'])
--------------------------------------------------------------------------

    Molecular point group: c1
  Charge       = 0
  Multiplicity = 1
  Basis Set: AUG-CC-PVTZ
    Blend: AUG-CC-PVTZ
  Basis Set: (AUG-CC-PVTZ AUX)
    Blend: AUG-CC-PVTZ-JKFIT

    Orbital Energies [Eh]
    ---------------------

    Doubly Occupied:

       1A    -20.510854     2A    -15.583871     3A    -11.349275
       4A    -11.267043     5A    -11.254870     6A    -11.254635
       7A    -11.246024     8A    -11.244797     9A    -11.242379
      10A    -11.238855    11A    -11.236944    12A    -11.230603
      13A    -11.228303    14A    -11.225666    15A    -11.219564
      16A     -1.366961    17A     -1.249579    18A     -1.158483
      19A     -1.083560    20A     -1.043165    21A     -1.035600
      22A     -1.022781    23A     -0.944339    24A     -0.920136
      25A     -0.867381    26A     -0.843186    27A     -0.815736
      28A     -0.791072    29A     -0.742517    30A     -0.712044
      31A     -0.664481    32A     -0.651426    33A     -0.647594
      34A     -0.627390    35A     -0.619488    36A     -0.614705
      37A     -0.596316    38A     -0.588910    39A     -0.581447
      40A     -0.569749    41A     -0.557838    42A     -0.555987
      43A     -0.545670    44A     -0.526511    45A     -0.507684
      46A     -0.499947    47A     -0.493780    48A     -0.481114
      49A     -0.473830    50A     -0.469290    51A     -0.461611
      52A     -0.416861    53A     -0.366353    54A     -0.339649
      55A     -0.331608

  @DF-RHF Final Energy:  -631.72368125400465

   => Energetics <=

    Nuclear Repulsion Energy =            998.1074537732841918
    One-Electron Energy =               -2839.4233503203381588
    Two-Electron Energy =                1209.5922152930490938
    Total Energy =                       -631.7236812540047595
  Basis Set: (AUG-CC-PVTZ AUX)
    Blend: AUG-CC-PVTZ-RI
    Molecular point group: c1

    Geometry (in Angstrom), charge = 0, multiplicity = 1:

       Center              X                  Y                   Z               Mass
    ------------   -----------------  -----------------  -----------------  -----------------
         O            0.056331849781     1.931535946876    -1.186111655841    15.994914619570
         N            1.255896849781     0.443912946876     0.082436344159    14.003074004430
         C            3.727004849781    -0.969935053124     0.430037344159    12.000000000000
         C            3.579623849781     0.150337946876    -0.600284655841    12.000000000000
         C            2.378957849781    -1.636992053124     0.706633344159    12.000000000000
         C            2.509603849781     1.148740946876    -0.168345655841    12.000000000000
         C            1.336876849781    -0.594973053124     1.103320344159    12.000000000000
         C            0.098128849781     0.909880946876    -0.486992655841    12.000000000000
         C           -1.135422150219     0.083099946876    -0.271834655841    12.000000000000
         C           -2.236992150219     0.636694946876     0.406267344159    12.000000000000
         C           -1.216876150219    -1.190621053124    -0.847789655841    12.000000000000
         C           -3.400016150219    -0.134323053124     0.510723344159    12.000000000000
         C           -2.156148850219     2.109564846876     1.043386844159    12.000000000000
         C           -2.391247150219    -1.937152053124    -0.744761655841    12.000000000000
         C           -3.485059150219    -1.406453053124    -0.060128655841    12.000000000000
         H            4.458498849781    -1.711778053124     0.089938344159     1.007825032230
         H            4.116406849781    -0.548243053124     1.367028344159     1.007825032230
         H            4.533226849781     0.673010946876    -0.742547655841     1.007825032230
         H            3.291165849781    -0.271896053124    -1.570598655841     1.007825032230
         H            2.028598849781    -2.158764053124    -0.192469655841     1.007825032230
         H            2.472148849781    -2.384148053124     1.504265344159     1.007825032230
         H            2.822277849781     1.665831946876     0.751941344159     1.007825032230
         H            2.312591849781     1.903103946876    -0.931265655841     1.007825032230
         H            0.352356849781    -1.043294053124     1.239831344159     1.007825032230
         H            1.628817849781    -0.127475053124     2.057422344159     1.007825032230
         H           -0.357773150219    -1.588997053124    -1.385260655841     1.007825032230
         H           -4.258965150219     0.273938946876     1.040861344159     1.007825032230
         H           -1.979927150219     2.762582946876     0.224955344159     1.007825032230
         H           -3.091457150219     2.263680946876     1.522996344159     1.007825032230
         H           -1.339073150219     2.094707946876     1.723485344159     1.007825032230
         H           -2.452308150219    -2.923121053124    -1.199295655841     1.007825032230
         H           -4.404522150219    -1.980216053124     0.030050344159     1.007825032230

  Basis Set: AUG-CC-PVTZ
    Blend: AUG-CC-PVTZ
  Basis Set: (AUG-CC-PVTZ AUX)
    Blend: AUG-CC-PVTZ-JKFIT
	 Reference Energy          =    -631.7236812540046458 [Eh]
	 Singles Energy            =      -0.0000000000000000 [Eh]
	 Same-Spin Energy          =      -0.6884647281696118 [Eh]
	 Opposite-Spin Energy      =      -2.2120617494915029 [Eh]
	 Correlation Energy        =      -2.9005264776611148 [Eh]
	 Total Energy              =    -634.6242077316657060 [Eh]

	 ================> DF-SCS-MP2 Energies <==================
	-----------------------------------------------------------
	 SCS Same-Spin Scale       =       0.3333333333333333 [-]
	 SCS Opposite-Spin Scale   =       1.2000000000000000 [-]
	 SCS Same-Spin Energy      =      -0.2294882427232039 [Eh]
	 SCS Opposite-Spin Energy  =      -2.6544740993898035 [Eh]
	 SCS Correlation Energy    =      -2.8839623421130076 [Eh]
	 SCS Total Energy          =    -634.6076435961176685 [Eh]
	-----------------------------------------------------------

  Dipole Moment: [D]
     X:     1.3958      Y:    -2.5539      Z:     2.3019     Total:     3.7107

*** Psi4 exiting successfully. Buy a developer a beer!
