                               Psi4 1.4a3.dev225

  ==> Input File <==

--------------------------------------------------------------------------
#psi4
#
memory 32 gb

molecule  {
0 1
  O        0.0109280     1.9504830    -1.2088660
  N        1.1668798     0.5229785    -0.0100883
  C        3.6816010    -0.9509880     0.4072830
  C        3.5342200     0.1692850    -0.6230390
  C        2.3335540    -1.6180450     0.6838790
  C        2.4642000     1.1676880    -0.1911000
  C        1.2914730    -0.5760260     1.0805660
  C        0.0527250     0.9288280    -0.5097470
  C       -1.1808260     0.1020470    -0.2945890
  C       -2.2823960     0.6556420     0.3835130
  C       -1.2622800    -1.1716740    -0.8705440
  C       -3.4454200    -0.1153760     0.4879690
  C       -2.2065840     2.0368470     0.9809810
  C       -2.4366510    -1.9182050    -0.7675160
  C       -3.5304630    -1.3875060    -0.0828830
  H        4.4130950    -1.6928310     0.0671840
  H        4.0710030    -0.5292960     1.3442740
  H        4.4878230     0.6919580    -0.7653020
  H        3.2457620    -0.2529490    -1.5933530
  H        1.9831950    -2.1398170    -0.2152240
  H        2.4267450    -2.3652010     1.4815110
  H        2.7768740     1.6847790     0.7291870
  H        2.2671880     1.9220510    -0.9540200
  H        0.3069530    -1.0243470     1.2170770
  H        1.5834140    -0.1085280     2.0346680
  H       -0.4031770    -1.5700500    -1.4080150
  H       -4.3043690     0.2928860     1.0181070
  H       -2.0253310     2.7815300     0.2022010
  H       -3.1368610     2.2826280     1.5002420
  H       -1.3844770     2.1136550     1.7007310
  H       -2.4977120    -2.9041740    -1.2220500
  H       -4.4499260    -1.9612690     0.0072960
units angstrom
no_reorient  #important for SAPT in psi4, default
symmetry c1  #important for SAPT in psi4, default
}

set PROPERTIES_ORIGIN ["COM"]
properties('MP2/aug-cc-pvtz', properties = ['dipole'])
--------------------------------------------------------------------------

    Molecular point group: c1
  Charge       = 0
  Multiplicity = 1
  Basis Set: AUG-CC-PVTZ
    Blend: AUG-CC-PVTZ
  Basis Set: (AUG-CC-PVTZ AUX)
    Blend: AUG-CC-PVTZ-JKFIT

    Orbital Energies [Eh]
    ---------------------

    Doubly Occupied:

       1A    -20.491278     2A    -15.587536     3A    -11.333333
       4A    -11.277792     5A    -11.258269     6A    -11.249655
       7A    -11.244437     8A    -11.242887     9A    -11.240916
      10A    -11.237713    11A    -11.236887    12A    -11.235370
      13A    -11.231967    14A    -11.229970    15A    -11.218101
      16A     -1.367206    17A     -1.243666    18A     -1.159483
      19A     -1.093546    20A     -1.049211    21A     -1.038219
      22A     -1.019920    23A     -0.947135    24A     -0.928178
      25A     -0.868620    26A     -0.840303    27A     -0.813693
      28A     -0.795149    29A     -0.739824    30A     -0.713304
      31A     -0.664129    32A     -0.651961    33A     -0.647918
      34A     -0.635143    35A     -0.618720    36A     -0.613253
      37A     -0.598355    38A     -0.592602    39A     -0.573726
      40A     -0.570902    41A     -0.550089    42A     -0.548426
      43A     -0.536045    44A     -0.531085    45A     -0.508558
      46A     -0.500902    47A     -0.490671    48A     -0.489172
      49A     -0.478929    50A     -0.475160    51A     -0.455576
      52A     -0.408965    53A     -0.371303    54A     -0.338045
      55A     -0.327888

  @DF-RHF Final Energy:  -631.72035361579333

   => Energetics <=

    Nuclear Repulsion Energy =           1000.3092548921579237
    One-Electron Energy =               -2843.8370333420680254
    Two-Electron Energy =                1211.8074248341167731
    Total Energy =                       -631.7203536157933286
  Basis Set: (AUG-CC-PVTZ AUX)
    Blend: AUG-CC-PVTZ-RI
    Molecular point group: c1

    Geometry (in Angstrom), charge = 0, multiplicity = 1:

       Center              X                  Y                   Z               Mass
    ------------   -----------------  -----------------  -----------------  -----------------
         O            0.059635601647     1.932806727690    -1.178959539360    15.994914619570
         N            1.215587401647     0.505302227690     0.019818160640    14.003074004430
         C            3.730308601647    -0.968664272310     0.437189460640    12.000000000000
         C            3.582927601647     0.151608727690    -0.593132539360    12.000000000000
         C            2.382261601647    -1.635721272310     0.713785460640    12.000000000000
         C            2.512907601647     1.150011727690    -0.161193539360    12.000000000000
         C            1.340180601647    -0.593702272310     1.110472460640    12.000000000000
         C            0.101432601647     0.911151727690    -0.479840539360    12.000000000000
         C           -1.132118398353     0.084370727690    -0.264682539360    12.000000000000
         C           -2.233688398353     0.637965727690     0.413419460640    12.000000000000
         C           -1.213572398353    -1.189350272310    -0.840637539360    12.000000000000
         C           -3.396712398353    -0.133052272310     0.517875460640    12.000000000000
         C           -2.157876398353     2.019170727690     1.010887460640    12.000000000000
         C           -2.387943398353    -1.935881272310    -0.737609539360    12.000000000000
         C           -3.481755398353    -1.405182272310    -0.052976539360    12.000000000000
         H            4.461802601647    -1.710507272310     0.097090460640     1.007825032230
         H            4.119710601647    -0.546972272310     1.374180460640     1.007825032230
         H            4.536530601647     0.674281727690    -0.735395539360     1.007825032230
         H            3.294469601647    -0.270625272310    -1.563446539360     1.007825032230
         H            2.031902601647    -2.157493272310    -0.185317539360     1.007825032230
         H            2.475452601647    -2.382877272310     1.511417460640     1.007825032230
         H            2.825581601647     1.667102727690     0.759093460640     1.007825032230
         H            2.315895601647     1.904374727690    -0.924113539360     1.007825032230
         H            0.355660601647    -1.042023272310     1.246983460640     1.007825032230
         H            1.632121601647    -0.126204272310     2.064574460640     1.007825032230
         H           -0.354469398353    -1.587726272310    -1.378108539360     1.007825032230
         H           -4.255661398353     0.275209727690     1.048013460640     1.007825032230
         H           -1.976623398353     2.763853727690     0.232107460640     1.007825032230
         H           -3.088153398353     2.264951727690     1.530148460640     1.007825032230
         H           -1.335769398353     2.095978727690     1.730637460640     1.007825032230
         H           -2.449004398353    -2.921850272310    -1.192143539360     1.007825032230
         H           -4.401218398353    -1.978945272310     0.037202460640     1.007825032230

  Basis Set: AUG-CC-PVTZ
    Blend: AUG-CC-PVTZ
  Basis Set: (AUG-CC-PVTZ AUX)
    Blend: AUG-CC-PVTZ-JKFIT
	 Reference Energy          =    -631.7203536157933286 [Eh]
	 Singles Energy            =      -0.0000000000000000 [Eh]
	 Same-Spin Energy          =      -0.6882660763984783 [Eh]
	 Opposite-Spin Energy      =      -2.2112093470350849 [Eh]
	 Correlation Energy        =      -2.8994754234335631 [Eh]
	 Total Energy              =    -634.6198290392269428 [Eh]

	 ================> DF-SCS-MP2 Energies <==================
	-----------------------------------------------------------
	 SCS Same-Spin Scale       =       0.3333333333333333 [-]
	 SCS Opposite-Spin Scale   =       1.2000000000000000 [-]
	 SCS Same-Spin Energy      =      -0.2294220254661594 [Eh]
	 SCS Opposite-Spin Energy  =      -2.6534512164421016 [Eh]
	 SCS Correlation Energy    =      -2.8828732419082610 [Eh]
	 SCS Total Energy          =    -634.6032268577015429 [Eh]
	-----------------------------------------------------------

  Dipole Moment: [D]
     X:     1.8477      Y:    -2.8321      Z:     2.6057     Total:     4.2690

*** Psi4 exiting successfully. Buy a developer a beer!
