                               Psi4 1.4a3.dev225

  ==> Input File <==

--------------------------------------------------------------------------
#psi4
#
memory 32 gb

molecule  {
0 1
  O        0.0109280     1.9504830    -1.2088660
  N        1.1925186     0.4745979     0.0733702
  C        3.6816010    -0.9509880     0.4072830
  C        3.5342200     0.1692850    -0.6230390
  C        2.3335540    -1.6180450     0.6838790
  C        2.4642000     1.1676880    -0.1911000
  C        1.2914730    -0.5760260     1.0805660
  C        0.0527250     0.9288280    -0.5097470
  C       -1.1808260     0.1020470    -0.2945890
  C       -2.2823960     0.6556420     0.3835130
  C       -1.2622800    -1.1716740    -0.8705440
  C       -3.4454200    -0.1153760     0.4879690
  C       -2.2065840     2.0368470     0.9809810
  C       -2.4366510    -1.9182050    -0.7675160
  C       -3.5304630    -1.3875060    -0.0828830
  H        4.4130950    -1.6928310     0.0671840
  H        4.0710030    -0.5292960     1.3442740
  H        4.4878230     0.6919580    -0.7653020
  H        3.2457620    -0.2529490    -1.5933530
  H        1.9831950    -2.1398170    -0.2152240
  H        2.4267450    -2.3652010     1.4815110
  H        2.7768740     1.6847790     0.7291870
  H        2.2671880     1.9220510    -0.9540200
  H        0.3069530    -1.0243470     1.2170770
  H        1.5834140    -0.1085280     2.0346680
  H       -0.4031770    -1.5700500    -1.4080150
  H       -4.3043690     0.2928860     1.0181070
  H       -2.0253310     2.7815300     0.2022010
  H       -3.1368610     2.2826280     1.5002420
  H       -1.3844770     2.1136550     1.7007310
  H       -2.4977120    -2.9041740    -1.2220500
  H       -4.4499260    -1.9612690     0.0072960
units angstrom
no_reorient  #important for SAPT in psi4, default
symmetry c1  #important for SAPT in psi4, default
}

set PROPERTIES_ORIGIN ["COM"]
properties('MP2/aug-cc-pvtz', properties = ['dipole'])
--------------------------------------------------------------------------

    Molecular point group: c1
  Charge       = 0
  Multiplicity = 1
  Basis Set: AUG-CC-PVTZ
    Blend: AUG-CC-PVTZ
  Basis Set: (AUG-CC-PVTZ AUX)
    Blend: AUG-CC-PVTZ-JKFIT

    Orbital Energies [Eh]
    ---------------------

    Doubly Occupied:

       1A    -20.508126     2A    -15.584898     3A    -11.347342
       4A    -11.267858     5A    -11.256245     6A    -11.251171
       7A    -11.245722     8A    -11.244173     9A    -11.242110
      10A    -11.238715    11A    -11.236501    12A    -11.231792
      13A    -11.229168    14A    -11.227106    15A    -11.219738
      16A     -1.366423    17A     -1.249427    18A     -1.160812
      19A     -1.085623    20A     -1.050225    21A     -1.036713
      22A     -1.023147    23A     -0.943394    24A     -0.920847
      25A     -0.867828    26A     -0.844043    27A     -0.815293
      28A     -0.791954    29A     -0.741555    30A     -0.711935
      31A     -0.666147    32A     -0.652867    33A     -0.648482
      34A     -0.628247    35A     -0.620656    36A     -0.615484
      37A     -0.596537    38A     -0.588905    39A     -0.575187
      40A     -0.571479    41A     -0.558614    42A     -0.548191
      43A     -0.541265    44A     -0.524735    45A     -0.507944
      46A     -0.501993    47A     -0.490977    48A     -0.489399
      49A     -0.478850    50A     -0.470513    51A     -0.462286
      52A     -0.415515    53A     -0.367145    54A     -0.339492
      55A     -0.329421

  @DF-RHF Final Energy:  -631.73087670391226

   => Energetics <=

    Nuclear Repulsion Energy =           1000.0116940539339794
    One-Electron Energy =               -2843.2247173979858417
    Two-Electron Energy =                1211.4821466401397174
    Total Energy =                       -631.7308767039121449
  Basis Set: (AUG-CC-PVTZ AUX)
    Blend: AUG-CC-PVTZ-RI
    Molecular point group: c1

    Geometry (in Angstrom), charge = 0, multiplicity = 1:

       Center              X                  Y                   Z               Mass
    ------------   -----------------  -----------------  -----------------  -----------------
         O            0.057868160987     1.936141900927    -1.184712848654    15.994914619570
         N            1.239458760987     0.460256800927     0.097523351346    14.003074004430
         C            3.728541160987    -0.965329099073     0.431436151346    12.000000000000
         C            3.581160160987     0.154943900927    -0.598885848654    12.000000000000
         C            2.380494160987    -1.632386099073     0.708032151346    12.000000000000
         C            2.511140160987     1.153346900927    -0.166946848654    12.000000000000
         C            1.338413160987    -0.590367099073     1.104719151346    12.000000000000
         C            0.099665160987     0.914486900927    -0.485593848654    12.000000000000
         C           -1.133885839013     0.087705900927    -0.270435848654    12.000000000000
         C           -2.235455839013     0.641300900927     0.407666151346    12.000000000000
         C           -1.215339839013    -1.186015099073    -0.846390848654    12.000000000000
         C           -3.398479839013    -0.129717099073     0.512122151346    12.000000000000
         C           -2.159643839013     2.022505900927     1.005134151346    12.000000000000
         C           -2.389710839013    -1.932546099073    -0.743362848654    12.000000000000
         C           -3.483522839013    -1.401847099073    -0.058729848654    12.000000000000
         H            4.460035160987    -1.707172099073     0.091337151346     1.007825032230
         H            4.117943160987    -0.543637099073     1.368427151346     1.007825032230
         H            4.534763160987     0.677616900927    -0.741148848654     1.007825032230
         H            3.292702160987    -0.267290099073    -1.569199848654     1.007825032230
         H            2.030135160987    -2.154158099073    -0.191070848654     1.007825032230
         H            2.473685160987    -2.379542099073     1.505664151346     1.007825032230
         H            2.823814160987     1.670437900927     0.753340151346     1.007825032230
         H            2.314128160987     1.907709900927    -0.929866848654     1.007825032230
         H            0.353893160987    -1.038688099073     1.241230151346     1.007825032230
         H            1.630354160987    -0.122869099073     2.058821151346     1.007825032230
         H           -0.356236839013    -1.584391099073    -1.383861848654     1.007825032230
         H           -4.257428839013     0.278544900927     1.042260151346     1.007825032230
         H           -1.978390839013     2.767188900927     0.226354151346     1.007825032230
         H           -3.089920839013     2.268286900927     1.524395151346     1.007825032230
         H           -1.337536839013     2.099313900927     1.724884151346     1.007825032230
         H           -2.450771839013    -2.918515099073    -1.197896848654     1.007825032230
         H           -4.402985839013    -1.975610099073     0.031449151346     1.007825032230

  Basis Set: AUG-CC-PVTZ
    Blend: AUG-CC-PVTZ
  Basis Set: (AUG-CC-PVTZ AUX)
    Blend: AUG-CC-PVTZ-JKFIT
	 Reference Energy          =    -631.7308767039122586 [Eh]
	 Singles Energy            =      -0.0000000000000000 [Eh]
	 Same-Spin Energy          =      -0.6888815435043343 [Eh]
	 Opposite-Spin Energy      =      -2.2120178809496354 [Eh]
	 Correlation Energy        =      -2.9008994244539696 [Eh]
	 Total Energy              =    -634.6317761283662549 [Eh]

	 ================> DF-SCS-MP2 Energies <==================
	-----------------------------------------------------------
	 SCS Same-Spin Scale       =       0.3333333333333333 [-]
	 SCS Opposite-Spin Scale   =       1.2000000000000000 [-]
	 SCS Same-Spin Energy      =      -0.2296271811681114 [Eh]
	 SCS Opposite-Spin Energy  =      -2.6544214571395623 [Eh]
	 SCS Correlation Energy    =      -2.8840486383076738 [Eh]
	 SCS Total Energy          =    -634.6149253422199763 [Eh]
	-----------------------------------------------------------

  Dipole Moment: [D]
     X:     1.5224      Y:    -2.5681      Z:     2.3224     Total:     3.7824

*** Psi4 exiting successfully. Buy a developer a beer!
