                               Psi4 1.4a3.dev225

  ==> Input File <==

--------------------------------------------------------------------------
#psi4
#
memory 32 gb

molecule  {
0 1
  O        0.0109280     1.9504830    -1.2088660
  N        1.2105988     0.4545608     0.0355911
  C        3.6816010    -0.9509880     0.4072830
  C        3.5342200     0.1692850    -0.6230390
  C        2.3335540    -1.6180450     0.6838790
  C        2.4642000     1.1676880    -0.1911000
  C        1.2914730    -0.5760260     1.0805660
  C        0.0527250     0.9288280    -0.5097470
  C       -1.1808260     0.1020470    -0.2945890
  C       -2.2823960     0.6556420     0.3835130
  C       -1.2622800    -1.1716740    -0.8705440
  C       -3.4454200    -0.1153760     0.4879690
  C       -2.2065840     2.0368470     0.9809810
  C       -2.4366510    -1.9182050    -0.7675160
  C       -3.5304630    -1.3875060    -0.0828830
  H        4.4130950    -1.6928310     0.0671840
  H        4.0710030    -0.5292960     1.3442740
  H        4.4878230     0.6919580    -0.7653020
  H        3.2457620    -0.2529490    -1.5933530
  H        1.9831950    -2.1398170    -0.2152240
  H        2.4267450    -2.3652010     1.4815110
  H        2.7768740     1.6847790     0.7291870
  H        2.2671880     1.9220510    -0.9540200
  H        0.3069530    -1.0243470     1.2170770
  H        1.5834140    -0.1085280     2.0346680
  H       -0.4031770    -1.5700500    -1.4080150
  H       -4.3043690     0.2928860     1.0181070
  H       -2.0253310     2.7815300     0.2022010
  H       -3.1368610     2.2826280     1.5002420
  H       -1.3844770     2.1136550     1.7007310
  H       -2.4977120    -2.9041740    -1.2220500
  H       -4.4499260    -1.9612690     0.0072960
units angstrom
no_reorient  #important for SAPT in psi4, default
symmetry c1  #important for SAPT in psi4, default
}

set PROPERTIES_ORIGIN ["COM"]
properties('MP2/aug-cc-pvtz', properties = ['dipole'])
--------------------------------------------------------------------------

    Molecular point group: c1
  Charge       = 0
  Multiplicity = 1
  Basis Set: AUG-CC-PVTZ
    Blend: AUG-CC-PVTZ
  Basis Set: (AUG-CC-PVTZ AUX)
    Blend: AUG-CC-PVTZ-JKFIT

    Orbital Energies [Eh]
    ---------------------

    Doubly Occupied:

       1A    -20.509726     2A    -15.584314     3A    -11.348257
       4A    -11.268213     5A    -11.254748     6A    -11.251703
       7A    -11.246167     8A    -11.244841     9A    -11.242535
      10A    -11.239015    11A    -11.236861    12A    -11.230807
      13A    -11.228383    14A    -11.225521    15A    -11.220309
      16A     -1.367005    17A     -1.248696    18A     -1.161293
      19A     -1.084112    20A     -1.050718    21A     -1.037336
      22A     -1.022667    23A     -0.943288    24A     -0.919673
      25A     -0.866818    26A     -0.843536    27A     -0.814886
      28A     -0.790758    29A     -0.743385    30A     -0.712575
      31A     -0.666538    32A     -0.652842    33A     -0.648428
      34A     -0.628519    35A     -0.619857    36A     -0.614512
      37A     -0.596224    38A     -0.588432    39A     -0.575429
      40A     -0.571874    41A     -0.558600    42A     -0.547306
      43A     -0.541254    44A     -0.525808    45A     -0.507775
      46A     -0.502409    47A     -0.491497    48A     -0.489307
      49A     -0.478194    50A     -0.469860    51A     -0.460474
      52A     -0.416682    53A     -0.367719    54A     -0.339834
      55A     -0.329869

  @DF-RHF Final Energy:  -631.73056725869037

   => Energetics <=

    Nuclear Repulsion Energy =           1000.0376162068459962
    One-Electron Energy =               -2843.2815817926748423
    Two-Electron Energy =                1211.5133983271384750
    Total Energy =                       -631.7305672586903711
  Basis Set: (AUG-CC-PVTZ AUX)
    Blend: AUG-CC-PVTZ-RI
    Molecular point group: c1

    Geometry (in Angstrom), charge = 0, multiplicity = 1:

       Center              X                  Y                   Z               Mass
    ------------   -----------------  -----------------  -----------------  -----------------
         O            0.056621781257     1.937523181847    -1.182108502217    15.994914619570
         N            1.256292581257     0.441600981847     0.062348597783    14.003074004430
         C            3.727294781257    -0.963947818153     0.434040497783    12.000000000000
         C            3.579913781257     0.156325181847    -0.596281502217    12.000000000000
         C            2.379247781257    -1.631004818153     0.710636497783    12.000000000000
         C            2.509893781257     1.154728181847    -0.164342502217    12.000000000000
         C            1.337166781257    -0.588985818153     1.107323497783    12.000000000000
         C            0.098418781257     0.915868181847    -0.482989502217    12.000000000000
         C           -1.135132218743     0.089087181847    -0.267831502217    12.000000000000
         C           -2.236702218743     0.642682181847     0.410270497783    12.000000000000
         C           -1.216586218743    -1.184633818153    -0.843786502217    12.000000000000
         C           -3.399726218743    -0.128335818153     0.514726497783    12.000000000000
         C           -2.160890218743     2.023887181847     1.007738497783    12.000000000000
         C           -2.390957218743    -1.931164818153    -0.740758502217    12.000000000000
         C           -3.484769218743    -1.400465818153    -0.056125502217    12.000000000000
         H            4.458788781257    -1.705790818153     0.093941497783     1.007825032230
         H            4.116696781257    -0.542255818153     1.371031497783     1.007825032230
         H            4.533516781257     0.678998181847    -0.738544502217     1.007825032230
         H            3.291455781257    -0.265908818153    -1.566595502217     1.007825032230
         H            2.028888781257    -2.152776818153    -0.188466502217     1.007825032230
         H            2.472438781257    -2.378160818153     1.508268497783     1.007825032230
         H            2.822567781257     1.671819181847     0.755944497783     1.007825032230
         H            2.312881781257     1.909091181847    -0.927262502217     1.007825032230
         H            0.352646781257    -1.037306818153     1.243834497783     1.007825032230
         H            1.629107781257    -0.121487818153     2.061425497783     1.007825032230
         H           -0.357483218743    -1.583009818153    -1.381257502217     1.007825032230
         H           -4.258675218743     0.279926181847     1.044864497783     1.007825032230
         H           -1.979637218743     2.768570181847     0.228958497783     1.007825032230
         H           -3.091167218743     2.269668181847     1.526999497783     1.007825032230
         H           -1.338783218743     2.100695181847     1.727488497783     1.007825032230
         H           -2.452018218743    -2.917133818153    -1.195292502217     1.007825032230
         H           -4.404232218743    -1.974228818153     0.034053497783     1.007825032230

  Basis Set: AUG-CC-PVTZ
    Blend: AUG-CC-PVTZ
  Basis Set: (AUG-CC-PVTZ AUX)
    Blend: AUG-CC-PVTZ-JKFIT
	 Reference Energy          =    -631.7305672586903711 [Eh]
	 Singles Energy            =      -0.0000000000000000 [Eh]
	 Same-Spin Energy          =      -0.6889338603193627 [Eh]
	 Opposite-Spin Energy      =      -2.2121990861482659 [Eh]
	 Correlation Energy        =      -2.9011329464676283 [Eh]
	 Total Energy              =    -634.6317002051580403 [Eh]

	 ================> DF-SCS-MP2 Energies <==================
	-----------------------------------------------------------
	 SCS Same-Spin Scale       =       0.3333333333333333 [-]
	 SCS Opposite-Spin Scale   =       1.2000000000000000 [-]
	 SCS Same-Spin Energy      =      -0.2296446201064542 [Eh]
	 SCS Opposite-Spin Energy  =      -2.6546389033779190 [Eh]
	 SCS Correlation Energy    =      -2.8842835234843731 [Eh]
	 SCS Total Energy          =    -634.6148507821746989 [Eh]
	-----------------------------------------------------------

  Dipole Moment: [D]
     X:     1.4174      Y:    -2.5197      Z:     2.3456     Total:     3.7228

*** Psi4 exiting successfully. Buy a developer a beer!
