                               Psi4 1.4a3.dev225

  ==> Input File <==

--------------------------------------------------------------------------
#psi4
#
memory 32 gb

molecule  {
0 1
  O        0.0109280     1.9504830    -1.2088660
  N        1.2104930     0.4628600     0.0596820
  C        3.6816010    -0.9509880     0.4072830
  C        3.5342200     0.1692850    -0.6230390
  C        2.3335540    -1.6180450     0.6838790
  C        2.4642000     1.1676880    -0.1911000
  C        1.2914730    -0.5760260     1.0805660
  C        0.0527250     0.9288280    -0.5097470
  C       -1.1808260     0.1020470    -0.2945890
  C       -2.2823960     0.6556420     0.3835130
  C       -1.2622800    -1.1716740    -0.8705440
  C       -3.5285355    -0.1704768     0.4954339
  C       -2.2065840     2.0368470     0.9809810
  C       -2.4366510    -1.9182050    -0.7675160
  C       -3.5304630    -1.3875060    -0.0828830
  H        4.4130950    -1.6928310     0.0671840
  H        4.0710030    -0.5292960     1.3442740
  H        4.4878230     0.6919580    -0.7653020
  H        3.2457620    -0.2529490    -1.5933530
  H        1.9831950    -2.1398170    -0.2152240
  H        2.4267450    -2.3652010     1.4815110
  H        2.7768740     1.6847790     0.7291870
  H        2.2671880     1.9220510    -0.9540200
  H        0.3069530    -1.0243470     1.2170770
  H        1.5834140    -0.1085280     2.0346680
  H       -0.4031770    -1.5700500    -1.4080150
  H       -4.3043690     0.2928860     1.0181070
  H       -2.0253310     2.7815300     0.2022010
  H       -3.1368610     2.2826280     1.5002420
  H       -1.3844770     2.1136550     1.7007310
  H       -2.4977120    -2.9041740    -1.2220500
  H       -4.4499260    -1.9612690     0.0072960
units angstrom
no_reorient  #important for SAPT in psi4, default
symmetry c1  #important for SAPT in psi4, default
}

set PROPERTIES_ORIGIN ["COM"]
properties('MP2/aug-cc-pvtz', properties = ['dipole'])
--------------------------------------------------------------------------

    Molecular point group: c1
  Charge       = 0
  Multiplicity = 1
  Basis Set: AUG-CC-PVTZ
    Blend: AUG-CC-PVTZ
  Basis Set: (AUG-CC-PVTZ AUX)
    Blend: AUG-CC-PVTZ-JKFIT

    Orbital Energies [Eh]
    ---------------------

    Doubly Occupied:

       1A    -20.510548     2A    -15.583710     3A    -11.349145
       4A    -11.267095     5A    -11.262104     6A    -11.254551
       7A    -11.246888     8A    -11.243451     9A    -11.239092
      10A    -11.238545    11A    -11.236714    12A    -11.230546
      13A    -11.228247    14A    -11.225599    15A    -11.221898
      16A     -1.366736    17A     -1.249449    18A     -1.156743
      19A     -1.083759    20A     -1.049734    21A     -1.036315
      22A     -1.025705    23A     -0.945596    24A     -0.916883
      25A     -0.866040    26A     -0.840500    27A     -0.818390
      28A     -0.788836    29A     -0.743348    30A     -0.714342
      31A     -0.665855    32A     -0.653842    33A     -0.647260
      34A     -0.628381    35A     -0.625818    36A     -0.614091
      37A     -0.599809    38A     -0.587863    39A     -0.574411
      40A     -0.570883    41A     -0.559809    42A     -0.548950
      43A     -0.544237    44A     -0.525091    45A     -0.504549
      46A     -0.500343    47A     -0.491117    48A     -0.487428
      49A     -0.478890    50A     -0.469530    51A     -0.461464
      52A     -0.415417    53A     -0.366137    54A     -0.347202
      55A     -0.320318

  @DF-RHF Final Energy:  -631.71937320309792

   => Energetics <=

    Nuclear Repulsion Energy =            998.4224736569531160
    One-Electron Energy =               -2840.0252836571044099
    Two-Electron Energy =                1209.8834367970534913
    Total Energy =                       -631.7193732030978026
  Basis Set: (AUG-CC-PVTZ AUX)
    Blend: AUG-CC-PVTZ-RI
    Molecular point group: c1

    Geometry (in Angstrom), charge = 0, multiplicity = 1:

       Center              X                  Y                   Z               Mass
    ------------   -----------------  -----------------  -----------------  -----------------
         O            0.061539137326     1.940206156136    -1.184210226846    15.994914619570
         N            1.261104137326     0.452583156136     0.084337773154    14.003074004430
         C            3.732212137326    -0.961264843864     0.431938773154    12.000000000000
         C            3.584831137326     0.159008156136    -0.598383226846    12.000000000000
         C            2.384165137326    -1.628321843864     0.708534773154    12.000000000000
         C            2.514811137326     1.157411156136    -0.166444226846    12.000000000000
         C            1.342084137326    -0.586302843864     1.105221773154    12.000000000000
         C            0.103336137326     0.918551156136    -0.485091226846    12.000000000000
         C           -1.130214862674     0.091770156136    -0.269933226846    12.000000000000
         C           -2.231784862674     0.645365156136     0.408168773154    12.000000000000
         C           -1.211668862674    -1.181950843864    -0.845888226846    12.000000000000
         C           -3.477924362674    -0.180753643864     0.520089673154    12.000000000000
         C           -2.155972862674     2.026570156136     1.005636773154    12.000000000000
         C           -2.386039862674    -1.928481843864    -0.742860226846    12.000000000000
         C           -3.479851862674    -1.397782843864    -0.058227226846    12.000000000000
         H            4.463706137326    -1.703107843864     0.091839773154     1.007825032230
         H            4.121614137326    -0.539572843864     1.368929773154     1.007825032230
         H            4.538434137326     0.681681156136    -0.740646226846     1.007825032230
         H            3.296373137326    -0.263225843864    -1.568697226846     1.007825032230
         H            2.033806137326    -2.150093843864    -0.190568226846     1.007825032230
         H            2.477356137326    -2.375477843864     1.506166773154     1.007825032230
         H            2.827485137326     1.674502156136     0.753842773154     1.007825032230
         H            2.317799137326     1.911774156136    -0.929364226846     1.007825032230
         H            0.357564137326    -1.034623843864     1.241732773154     1.007825032230
         H            1.634025137326    -0.118804843864     2.059323773154     1.007825032230
         H           -0.352565862674    -1.580326843864    -1.383359226846     1.007825032230
         H           -4.253757862674     0.282609156136     1.042762773154     1.007825032230
         H           -1.974719862674     2.771253156136     0.226856773154     1.007825032230
         H           -3.086249862674     2.272351156136     1.524897773154     1.007825032230
         H           -1.333865862674     2.103378156136     1.725386773154     1.007825032230
         H           -2.447100862674    -2.914450843864    -1.197394226846     1.007825032230
         H           -4.399314862674    -1.971545843864     0.031951773154     1.007825032230

  Basis Set: AUG-CC-PVTZ
    Blend: AUG-CC-PVTZ
  Basis Set: (AUG-CC-PVTZ AUX)
    Blend: AUG-CC-PVTZ-JKFIT
	 Reference Energy          =    -631.7193732030979163 [Eh]
	 Singles Energy            =      -0.0000000000000000 [Eh]
	 Same-Spin Energy          =      -0.6887761400088256 [Eh]
	 Opposite-Spin Energy      =      -2.2126618767736521 [Eh]
	 Correlation Energy        =      -2.9014380167824778 [Eh]
	 Total Energy              =    -634.6208112198803519 [Eh]

	 ================> DF-SCS-MP2 Energies <==================
	-----------------------------------------------------------
	 SCS Same-Spin Scale       =       0.3333333333333333 [-]
	 SCS Opposite-Spin Scale   =       1.2000000000000000 [-]
	 SCS Same-Spin Energy      =      -0.2295920466696085 [Eh]
	 SCS Opposite-Spin Energy  =      -2.6551942521283824 [Eh]
	 SCS Correlation Energy    =      -2.8847862987979909 [Eh]
	 SCS Total Energy          =    -634.6041595018958787 [Eh]
	-----------------------------------------------------------

  Dipole Moment: [D]
     X:     1.3946      Y:    -2.4676      Z:     2.3313     Total:     3.6700

*** Psi4 exiting successfully. Buy a developer a beer!
