                               Psi4 1.4a3.dev225

  ==> Input File <==

--------------------------------------------------------------------------
#psi4
#
memory 32 gb

molecule  {
0 1
  O        0.0109280     1.9504830    -1.2088660
  N        1.2104930     0.4628600     0.0596820
  C        3.6816010    -0.9509880     0.4072830
  C        3.5342200     0.1692850    -0.6230390
  C        2.3335540    -1.6180450     0.6838790
  C        2.4642000     1.1676880    -0.1911000
  C        1.2914730    -0.5760260     1.0805660
  C        0.0527250     0.9288280    -0.5097470
  C       -1.1808260     0.1020470    -0.2945890
  C       -2.2823960     0.6556420     0.3835130
  C       -1.2622800    -1.1716740    -0.8705440
  C       -3.4454200    -0.1153760     0.4879690
  C       -2.2065840     2.0368470     0.9809810
  C       -2.4366510    -1.9182050    -0.7675160
  C       -3.5304630    -1.3875060    -0.0828830
  H        4.4130950    -1.6928310     0.0671840
  H        4.0710030    -0.5292960     1.3442740
  H        4.4878230     0.6919580    -0.7653020
  H        3.2457620    -0.2529490    -1.5933530
  H        1.9831950    -2.1398170    -0.2152240
  H        2.4267450    -2.3652010     1.4815110
  H        2.7200729     1.5908430     0.5620055
  H        2.2671880     1.9220510    -0.9540200
  H        0.3069530    -1.0243470     1.2170770
  H        1.5834140    -0.1085280     2.0346680
  H       -0.4031770    -1.5700500    -1.4080150
  H       -4.3043690     0.2928860     1.0181070
  H       -2.0253310     2.7815300     0.2022010
  H       -3.1368610     2.2826280     1.5002420
  H       -1.3844770     2.1136550     1.7007310
  H       -2.4977120    -2.9041740    -1.2220500
  H       -4.4499260    -1.9612690     0.0072960
units angstrom
no_reorient  #important for SAPT in psi4, default
symmetry c1  #important for SAPT in psi4, default
}

set PROPERTIES_ORIGIN ["COM"]
properties('MP2/aug-cc-pvtz', properties = ['dipole'])
--------------------------------------------------------------------------

    Molecular point group: c1
  Charge       = 0
  Multiplicity = 1
  Basis Set: AUG-CC-PVTZ
    Blend: AUG-CC-PVTZ
  Basis Set: (AUG-CC-PVTZ AUX)
    Blend: AUG-CC-PVTZ-JKFIT

    Orbital Energies [Eh]
    ---------------------

    Doubly Occupied:

       1A    -20.509459     2A    -15.581670     3A    -11.348222
       4A    -11.266983     5A    -11.251351     6A    -11.245782
       7A    -11.244416     8A    -11.242207     9A    -11.238720
      10A    -11.236580    11A    -11.230425    12A    -11.229323
      13A    -11.228304    14A    -11.223916    15A    -11.220069
      16A     -1.365865    17A     -1.250031    18A     -1.161038
      19A     -1.083973    20A     -1.050638    21A     -1.042665
      22A     -1.024486    23A     -0.944748    24A     -0.924358
      25A     -0.869469    26A     -0.848387    27A     -0.814769
      28A     -0.794979    29A     -0.752328    30A     -0.711587
      31A     -0.666338    32A     -0.659623    33A     -0.651144
      34A     -0.630607    35A     -0.620410    36A     -0.617948
      37A     -0.597740    38A     -0.588400    39A     -0.575212
      40A     -0.571960    41A     -0.559258    42A     -0.546600
      43A     -0.541704    44A     -0.527444    45A     -0.512445
      46A     -0.505859    47A     -0.491748    48A     -0.489113
      49A     -0.478620    50A     -0.469664    51A     -0.461414
      52A     -0.415834    53A     -0.366409    54A     -0.339522
      55A     -0.329540

  @DF-RHF Final Energy:  -631.69887901502193

   => Energetics <=

    Nuclear Repulsion Energy =           1001.1929245982028078
    One-Electron Energy =               -2845.4810028761039575
    Two-Electron Energy =                1212.5891992628792195
    Total Energy =                       -631.6988790150219302
  Basis Set: (AUG-CC-PVTZ AUX)
    Blend: AUG-CC-PVTZ-RI
    Molecular point group: c1

    Geometry (in Angstrom), charge = 0, multiplicity = 1:

       Center              X                  Y                   Z               Mass
    ------------   -----------------  -----------------  -----------------  -----------------
         O            0.056910890707     1.937417125863    -1.182939773382    15.994914619570
         N            1.256475890707     0.449794125863     0.085608226618    14.003074004430
         C            3.727583890707    -0.964053874137     0.433209226618    12.000000000000
         C            3.580202890707     0.156219125863    -0.597112773382    12.000000000000
         C            2.379536890707    -1.631110874137     0.709805226618    12.000000000000
         C            2.510182890707     1.154622125863    -0.165173773382    12.000000000000
         C            1.337455890707    -0.589091874137     1.106492226618    12.000000000000
         C            0.098707890707     0.915762125863    -0.483820773382    12.000000000000
         C           -1.134843109293     0.088981125863    -0.268662773382    12.000000000000
         C           -2.236413109293     0.642576125863     0.409439226618    12.000000000000
         C           -1.216297109293    -1.184739874137    -0.844617773382    12.000000000000
         C           -3.399437109293    -0.128441874137     0.513895226618    12.000000000000
         C           -2.160601109293     2.023781125863     1.006907226618    12.000000000000
         C           -2.390668109293    -1.931270874137    -0.741589773382    12.000000000000
         C           -3.484480109293    -1.400571874137    -0.056956773382    12.000000000000
         H            4.459077890707    -1.705896874137     0.093110226618     1.007825032230
         H            4.116985890707    -0.542361874137     1.370200226618     1.007825032230
         H            4.533805890707     0.678892125863    -0.739375773382     1.007825032230
         H            3.291744890707    -0.266014874137    -1.567426773382     1.007825032230
         H            2.029177890707    -2.152882874137    -0.189297773382     1.007825032230
         H            2.472727890707    -2.378266874137     1.507437226618     1.007825032230
         H            2.766055790707     1.577777125863     0.587931726618     1.007825032230
         H            2.313170890707     1.908985125863    -0.928093773382     1.007825032230
         H            0.352935890707    -1.037412874137     1.243003226618     1.007825032230
         H            1.629396890707    -0.121593874137     2.060594226618     1.007825032230
         H           -0.357194109293    -1.583115874137    -1.382088773382     1.007825032230
         H           -4.258386109293     0.279820125863     1.044033226618     1.007825032230
         H           -1.979348109293     2.768464125863     0.228127226618     1.007825032230
         H           -3.090878109293     2.269562125863     1.526168226618     1.007825032230
         H           -1.338494109293     2.100589125863     1.726657226618     1.007825032230
         H           -2.451729109293    -2.917239874137    -1.196123773382     1.007825032230
         H           -4.403943109293    -1.974334874137     0.033222226618     1.007825032230

  Basis Set: AUG-CC-PVTZ
    Blend: AUG-CC-PVTZ
  Basis Set: (AUG-CC-PVTZ AUX)
    Blend: AUG-CC-PVTZ-JKFIT
	 Reference Energy          =    -631.6988790150219302 [Eh]
	 Singles Energy            =      -0.0000000000000000 [Eh]
	 Same-Spin Energy          =      -0.6888980205470487 [Eh]
	 Opposite-Spin Energy      =      -2.2114525219848122 [Eh]
	 Correlation Energy        =      -2.9003505425318608 [Eh]
	 Total Energy              =    -634.5992295575538265 [Eh]

	 ================> DF-SCS-MP2 Energies <==================
	-----------------------------------------------------------
	 SCS Same-Spin Scale       =       0.3333333333333333 [-]
	 SCS Opposite-Spin Scale   =       1.2000000000000000 [-]
	 SCS Same-Spin Energy      =      -0.2296326735156829 [Eh]
	 SCS Opposite-Spin Energy  =      -2.6537430263817745 [Eh]
	 SCS Correlation Energy    =      -2.8833756998974573 [Eh]
	 SCS Total Energy          =    -634.5822547149193724 [Eh]
	-----------------------------------------------------------

  Dipole Moment: [D]
     X:     1.4921      Y:    -2.4534      Z:     2.3849     Total:     3.7328

*** Psi4 exiting successfully. Buy a developer a beer!
