                               Psi4 1.4a3.dev225

  ==> Input File <==

--------------------------------------------------------------------------
#psi4
#
memory 32 gb

molecule  {
0 1
  O        0.0109280     1.9504830    -1.2088660
  N        1.2104930     0.4628600     0.0596820
  C        3.6816010    -0.9509880     0.4072830
  C        3.5342200     0.1692850    -0.6230390
  C        2.3335540    -1.6180450     0.6838790
  C        2.4642000     1.1676880    -0.1911000
  C        1.2914730    -0.5760260     1.0805660
  C        0.0527250     0.9288280    -0.5097470
  C       -1.1808260     0.1020470    -0.2945890
  C       -2.2823960     0.6556420     0.3835130
  C       -1.2622800    -1.1716740    -0.8705440
  C       -3.4454200    -0.1153760     0.4879690
  C       -2.2065840     2.0368470     0.9809810
  C       -2.4366510    -1.9182050    -0.7675160
  C       -3.5304630    -1.3875060    -0.0828830
  H        4.4130950    -1.6928310     0.0671840
  H        4.0710030    -0.5292960     1.3442740
  H        4.4878230     0.6919580    -0.7653020
  H        3.2457620    -0.2529490    -1.5933530
  H        1.9831950    -2.1398170    -0.2152240
  H        2.4267450    -2.3652010     1.4815110
  H        2.7768740     1.6847790     0.7291870
  H        2.2671880     1.9220510    -0.9540200
  H        0.3069530    -1.0243470     1.2170770
  H        1.5834140    -0.1085280     2.0346680
  H       -0.4031770    -1.5700500    -1.4080150
  H       -4.3438132     0.3116340     1.0424517
  H       -2.0253310     2.7815300     0.2022010
  H       -3.1368610     2.2826280     1.5002420
  H       -1.3844770     2.1136550     1.7007310
  H       -2.4977120    -2.9041740    -1.2220500
  H       -4.4499260    -1.9612690     0.0072960
units angstrom
no_reorient  #important for SAPT in psi4, default
symmetry c1  #important for SAPT in psi4, default
}

set PROPERTIES_ORIGIN ["COM"]
properties('MP2/aug-cc-pvtz', properties = ['dipole'])
--------------------------------------------------------------------------

    Molecular point group: c1
  Charge       = 0
  Multiplicity = 1
  Basis Set: AUG-CC-PVTZ
    Blend: AUG-CC-PVTZ
  Basis Set: (AUG-CC-PVTZ AUX)
    Blend: AUG-CC-PVTZ-JKFIT

    Orbital Energies [Eh]
    ---------------------

    Doubly Occupied:

       1A    -20.510939     2A    -15.584047     3A    -11.349672
       4A    -11.267175     5A    -11.254732     6A    -11.252389
       7A    -11.246625     8A    -11.245374     9A    -11.243559
      10A    -11.242346    11A    -11.239515    12A    -11.230720
      13A    -11.228396    14A    -11.225758    15A    -11.220273
      16A     -1.367152    17A     -1.249723    18A     -1.161503
      19A     -1.083684    20A     -1.051001    21A     -1.036912
      22A     -1.022701    23A     -0.942798    24A     -0.918893
      25A     -0.867499    26A     -0.843450    27A     -0.813716
      28A     -0.791178    29A     -0.741938    30A     -0.710739
      31A     -0.667000    32A     -0.653089    33A     -0.648412
      34A     -0.627622    35A     -0.618621    36A     -0.614485
      37A     -0.594690    38A     -0.588077    39A     -0.574844
      40A     -0.571800    41A     -0.560129    42A     -0.547143
      43A     -0.540376    44A     -0.524914    45A     -0.508082
      46A     -0.502159    47A     -0.491186    48A     -0.488399
      49A     -0.478503    50A     -0.469713    51A     -0.461648
      52A     -0.417081    53A     -0.366345    54A     -0.340277
      55A     -0.330327

  @DF-RHF Final Energy:  -631.72819027932053

   => Energetics <=

    Nuclear Repulsion Energy =            999.7022800936900921
    One-Electron Energy =               -2842.6022835844137262
    Two-Electron Energy =                1211.1718132114028776
    Total Energy =                       -631.7281902793206427
  Basis Set: (AUG-CC-PVTZ AUX)
    Blend: AUG-CC-PVTZ-RI
    Molecular point group: c1

    Geometry (in Angstrom), charge = 0, multiplicity = 1:

       Center              X                  Y                   Z               Mass
    ------------   -----------------  -----------------  -----------------  -----------------
         O            0.056824775258     1.936858049464    -1.183890021671    15.994914619570
         N            1.256389775258     0.449235049464     0.084657978329    14.003074004430
         C            3.727497775258    -0.964612950536     0.432258978329    12.000000000000
         C            3.580116775258     0.155660049464    -0.598063021671    12.000000000000
         C            2.379450775258    -1.631669950536     0.708854978329    12.000000000000
         C            2.510096775258     1.154063049464    -0.166124021671    12.000000000000
         C            1.337369775258    -0.589650950536     1.105541978329    12.000000000000
         C            0.098621775258     0.915203049464    -0.484771021671    12.000000000000
         C           -1.134929224742     0.088422049464    -0.269613021671    12.000000000000
         C           -2.236499224742     0.642017049464     0.408488978329    12.000000000000
         C           -1.216383224742    -1.185298950536    -0.845568021671    12.000000000000
         C           -3.399523224742    -0.129000950536     0.512944978329    12.000000000000
         C           -2.160687224742     2.023222049464     1.005956978329    12.000000000000
         C           -2.390754224742    -1.931829950536    -0.742540021671    12.000000000000
         C           -3.484566224742    -1.401130950536    -0.057907021671    12.000000000000
         H            4.458991775258    -1.706455950536     0.092159978329     1.007825032230
         H            4.116899775258    -0.542920950536     1.369249978329     1.007825032230
         H            4.533719775258     0.678333049464    -0.740326021671     1.007825032230
         H            3.291658775258    -0.266573950536    -1.568377021671     1.007825032230
         H            2.029091775258    -2.153441950536    -0.190248021671     1.007825032230
         H            2.472641775258    -2.378825950536     1.506486978329     1.007825032230
         H            2.822770775258     1.671154049464     0.754162978329     1.007825032230
         H            2.313084775258     1.908426049464    -0.929044021671     1.007825032230
         H            0.352849775258    -1.037971950536     1.242052978329     1.007825032230
         H            1.629310775258    -0.122152950536     2.059643978329     1.007825032230
         H           -0.357280224742    -1.583674950536    -1.383039021671     1.007825032230
         H           -4.297916424742     0.298009049464     1.067427678329     1.007825032230
         H           -1.979434224742     2.767905049464     0.227176978329     1.007825032230
         H           -3.090964224742     2.269003049464     1.525217978329     1.007825032230
         H           -1.338580224742     2.100030049464     1.725706978329     1.007825032230
         H           -2.451815224742    -2.917798950536    -1.197074021671     1.007825032230
         H           -4.404029224742    -1.974893950536     0.032271978329     1.007825032230

  Basis Set: AUG-CC-PVTZ
    Blend: AUG-CC-PVTZ
  Basis Set: (AUG-CC-PVTZ AUX)
    Blend: AUG-CC-PVTZ-JKFIT
	 Reference Energy          =    -631.7281902793205290 [Eh]
	 Singles Energy            =      -0.0000000000000000 [Eh]
	 Same-Spin Energy          =      -0.6891459667849594 [Eh]
	 Opposite-Spin Energy      =      -2.2127027616122250 [Eh]
	 Correlation Energy        =      -2.9018487283971846 [Eh]
	 Total Energy              =    -634.6300390077177553 [Eh]

	 ================> DF-SCS-MP2 Energies <==================
	-----------------------------------------------------------
	 SCS Same-Spin Scale       =       0.3333333333333333 [-]
	 SCS Opposite-Spin Scale   =       1.2000000000000000 [-]
	 SCS Same-Spin Energy      =      -0.2297153222616531 [Eh]
	 SCS Opposite-Spin Energy  =      -2.6552433139346698 [Eh]
	 SCS Correlation Energy    =      -2.8849586361963229 [Eh]
	 SCS Total Energy          =    -634.6131489155168310 [Eh]
	-----------------------------------------------------------

  Dipole Moment: [D]
     X:     1.4268      Y:    -2.5281      Z:     2.2929     Total:     3.6992

*** Psi4 exiting successfully. Buy a developer a beer!
