                               Psi4 1.4a3.dev225

  ==> Input File <==

--------------------------------------------------------------------------
#psi4
#
memory 32 gb

molecule  {
0 1
  O        0.0109280     1.9504830    -1.2088660
  N        1.2104930     0.4628600     0.0596820
  C        3.6816010    -0.9509880     0.4072830
  C        3.5342200     0.1692850    -0.6230390
  C        2.3335540    -1.6180450     0.6838790
  C        2.4642000     1.1676880    -0.1911000
  C        1.2914730    -0.5760260     1.0805660
  C        0.0527250     0.9288280    -0.5097470
  C       -1.1808260     0.1020470    -0.2945890
  C       -2.2823960     0.6556420     0.3835130
  C       -1.2622800    -1.1716740    -0.8705440
  C       -3.4454200    -0.1153760     0.4879690
  C       -2.2065840     2.0368470     0.9809810
  C       -2.4366510    -1.9182050    -0.7675160
  C       -3.5304630    -1.3875060    -0.0828830
  H        4.4130950    -1.6928310     0.0671840
  H        4.0710030    -0.5292960     1.3442740
  H        4.4878230     0.6919580    -0.7653020
  H        3.2457620    -0.2529490    -1.5933530
  H        1.9831950    -2.1398170    -0.2152240
  H        2.4267450    -2.3652010     1.4815110
  H        2.7768740     1.6847790     0.7291870
  H        2.2671880     1.9220510    -0.9540200
  H        0.3250115    -1.0161237     1.2145731
  H        1.5834140    -0.1085280     2.0346680
  H       -0.4031770    -1.5700500    -1.4080150
  H       -4.3043690     0.2928860     1.0181070
  H       -2.0253310     2.7815300     0.2022010
  H       -3.1368610     2.2826280     1.5002420
  H       -1.3844770     2.1136550     1.7007310
  H       -2.4977120    -2.9041740    -1.2220500
  H       -4.4499260    -1.9612690     0.0072960
units angstrom
no_reorient  #important for SAPT in psi4, default
symmetry c1  #important for SAPT in psi4, default
}

set PROPERTIES_ORIGIN ["COM"]
properties('MP2/aug-cc-pvtz', properties = ['dipole'])
--------------------------------------------------------------------------

    Molecular point group: c1
  Charge       = 0
  Multiplicity = 1
  Basis Set: AUG-CC-PVTZ
    Blend: AUG-CC-PVTZ
  Basis Set: (AUG-CC-PVTZ AUX)
    Blend: AUG-CC-PVTZ-JKFIT

    Orbital Energies [Eh]
    ---------------------

    Doubly Occupied:

       1A    -20.510742     2A    -15.583764     3A    -11.349429
       4A    -11.264901     5A    -11.254498     6A    -11.251899
       7A    -11.246392     8A    -11.245044     9A    -11.242684
      10A    -11.239164    11A    -11.236997    12A    -11.230548
      13A    -11.228239    14A    -11.225605    15A    -11.220364
      16A     -1.366963    17A     -1.249647    18A     -1.161451
      19A     -1.083546    20A     -1.050837    21A     -1.037666
      22A     -1.023524    23A     -0.943241    24A     -0.919106
      25A     -0.868250    26A     -0.844120    27A     -0.815316
      28A     -0.790977    29A     -0.743243    30A     -0.712960
      31A     -0.667064    32A     -0.652974    33A     -0.648341
      34A     -0.628552    35A     -0.620821    36A     -0.615230
      37A     -0.596484    38A     -0.588174    39A     -0.575681
      40A     -0.571805    41A     -0.560739    42A     -0.547936
      43A     -0.541632    44A     -0.524769    45A     -0.508057
      46A     -0.501983    47A     -0.491602    48A     -0.489472
      49A     -0.478480    50A     -0.470066    51A     -0.461819
      52A     -0.416912    53A     -0.366144    54A     -0.340161
      55A     -0.330042

  @DF-RHF Final Energy:  -631.73086483008012

   => Energetics <=

    Nuclear Repulsion Energy =           1000.0515967954314647
    One-Electron Energy =               -2843.2928107278485186
    Two-Electron Energy =                1211.5103491023367042
    Total Energy =                       -631.7308648300802361
  Basis Set: (AUG-CC-PVTZ AUX)
    Blend: AUG-CC-PVTZ-RI
    Molecular point group: c1

    Geometry (in Angstrom), charge = 0, multiplicity = 1:

       Center              X                  Y                   Z               Mass
    ------------   -----------------  -----------------  -----------------  -----------------
         O            0.056539478300     1.936910267271    -1.183756813597    15.994914619570
         N            1.256104478300     0.449287267271     0.084791186403    14.003074004430
         C            3.727212478300    -0.964560732729     0.432392186403    12.000000000000
         C            3.579831478300     0.155712267271    -0.597929813597    12.000000000000
         C            2.379165478300    -1.631617732729     0.708988186403    12.000000000000
         C            2.509811478300     1.154115267271    -0.165990813597    12.000000000000
         C            1.337084478300    -0.589598732729     1.105675186403    12.000000000000
         C            0.098336478300     0.915255267271    -0.484637813597    12.000000000000
         C           -1.135214521700     0.088474267271    -0.269479813597    12.000000000000
         C           -2.236784521700     0.642069267271     0.408622186403    12.000000000000
         C           -1.216668521700    -1.185246732729    -0.845434813597    12.000000000000
         C           -3.399808521700    -0.128948732729     0.513078186403    12.000000000000
         C           -2.160972521700     2.023274267271     1.006090186403    12.000000000000
         C           -2.391039521700    -1.931777732729    -0.742406813597    12.000000000000
         C           -3.484851521700    -1.401078732729    -0.057773813597    12.000000000000
         H            4.458706478300    -1.706403732729     0.092293186403     1.007825032230
         H            4.116614478300    -0.542868732729     1.369383186403     1.007825032230
         H            4.533434478300     0.678385267271    -0.740192813597     1.007825032230
         H            3.291373478300    -0.266521732729    -1.568243813597     1.007825032230
         H            2.028806478300    -2.153389732729    -0.190114813597     1.007825032230
         H            2.472356478300    -2.378773732729     1.506620186403     1.007825032230
         H            2.822485478300     1.671206267271     0.754296186403     1.007825032230
         H            2.312799478300     1.908478267271    -0.928910813597     1.007825032230
         H            0.370622978300    -1.029696432729     1.239682286403     1.007825032230
         H            1.629025478300    -0.122100732729     2.059777186403     1.007825032230
         H           -0.357565521700    -1.583622732729    -1.382905813597     1.007825032230
         H           -4.258757521700     0.279313267271     1.043216186403     1.007825032230
         H           -1.979719521700     2.767957267271     0.227310186403     1.007825032230
         H           -3.091249521700     2.269055267271     1.525351186403     1.007825032230
         H           -1.338865521700     2.100082267271     1.725840186403     1.007825032230
         H           -2.452100521700    -2.917746732729    -1.196940813597     1.007825032230
         H           -4.404314521700    -1.974841732729     0.032405186403     1.007825032230

  Basis Set: AUG-CC-PVTZ
    Blend: AUG-CC-PVTZ
  Basis Set: (AUG-CC-PVTZ AUX)
    Blend: AUG-CC-PVTZ-JKFIT
	 Reference Energy          =    -631.7308648300801224 [Eh]
	 Singles Energy            =      -0.0000000000000000 [Eh]
	 Same-Spin Energy          =      -0.6889283713939216 [Eh]
	 Opposite-Spin Energy      =      -2.2120453445672497 [Eh]
	 Correlation Energy        =      -2.9009737159611713 [Eh]
	 Total Energy              =    -634.6318385460413083 [Eh]

	 ================> DF-SCS-MP2 Energies <==================
	-----------------------------------------------------------
	 SCS Same-Spin Scale       =       0.3333333333333333 [-]
	 SCS Opposite-Spin Scale   =       1.2000000000000000 [-]
	 SCS Same-Spin Energy      =      -0.2296427904646405 [Eh]
	 SCS Opposite-Spin Energy  =      -2.6544544134806993 [Eh]
	 SCS Correlation Energy    =      -2.8840972039453399 [Eh]
	 SCS Total Energy          =    -634.6149620340254387 [Eh]
	-----------------------------------------------------------

  Dipole Moment: [D]
     X:     1.4000      Y:    -2.5228      Z:     2.3089     Total:     3.6953

*** Psi4 exiting successfully. Buy a developer a beer!
