                               Psi4 1.4a3.dev225

  ==> Input File <==

--------------------------------------------------------------------------
#psi4
#
memory 32 gb

molecule  {
0 1
  O        0.0109280     1.9504830    -1.2088660
  N        1.2104930     0.4628600     0.0596820
  C        3.6816010    -0.9509880     0.4072830
  C        3.5342200     0.1692850    -0.6230390
  C        2.3440023    -1.6415624     0.6767969
  C        2.4642000     1.1676880    -0.1911000
  C        1.2914730    -0.5760260     1.0805660
  C        0.0527250     0.9288280    -0.5097470
  C       -1.1808260     0.1020470    -0.2945890
  C       -2.2823960     0.6556420     0.3835130
  C       -1.2622800    -1.1716740    -0.8705440
  C       -3.4454200    -0.1153760     0.4879690
  C       -2.2065840     2.0368470     0.9809810
  C       -2.4366510    -1.9182050    -0.7675160
  C       -3.5304630    -1.3875060    -0.0828830
  H        4.4130950    -1.6928310     0.0671840
  H        4.0710030    -0.5292960     1.3442740
  H        4.4878230     0.6919580    -0.7653020
  H        3.2457620    -0.2529490    -1.5933530
  H        1.9831950    -2.1398170    -0.2152240
  H        2.4267450    -2.3652010     1.4815110
  H        2.7768740     1.6847790     0.7291870
  H        2.2671880     1.9220510    -0.9540200
  H        0.3069530    -1.0243470     1.2170770
  H        1.5834140    -0.1085280     2.0346680
  H       -0.4031770    -1.5700500    -1.4080150
  H       -4.3043690     0.2928860     1.0181070
  H       -2.0253310     2.7815300     0.2022010
  H       -3.1368610     2.2826280     1.5002420
  H       -1.3844770     2.1136550     1.7007310
  H       -2.4977120    -2.9041740    -1.2220500
  H       -4.4499260    -1.9612690     0.0072960
units angstrom
no_reorient  #important for SAPT in psi4, default
symmetry c1  #important for SAPT in psi4, default
}

set PROPERTIES_ORIGIN ["COM"]
properties('MP2/aug-cc-pvtz', properties = ['dipole'])
--------------------------------------------------------------------------

    Molecular point group: c1
  Charge       = 0
  Multiplicity = 1
  Basis Set: AUG-CC-PVTZ
    Blend: AUG-CC-PVTZ
  Basis Set: (AUG-CC-PVTZ AUX)
    Blend: AUG-CC-PVTZ-JKFIT

    Orbital Energies [Eh]
    ---------------------

    Doubly Occupied:

       1A    -20.510722     2A    -15.583973     3A    -11.349383
       4A    -11.267643     5A    -11.254547     6A    -11.251781
       7A    -11.246316     8A    -11.244978     9A    -11.242596
      10A    -11.239113    11A    -11.236934    12A    -11.229859
      13A    -11.228207    14A    -11.225883    15A    -11.220278
      16A     -1.366904    17A     -1.248792    18A     -1.161364
      19A     -1.082860    20A     -1.050720    21A     -1.036252
      22A     -1.021977    23A     -0.942914    24A     -0.918098
      25A     -0.868494    26A     -0.844419    27A     -0.815392
      28A     -0.791348    29A     -0.742441    30A     -0.711908
      31A     -0.666416    32A     -0.652721    33A     -0.647769
      34A     -0.628139    35A     -0.620590    36A     -0.615169
      37A     -0.596965    38A     -0.588015    39A     -0.575626
      40A     -0.571940    41A     -0.559919    42A     -0.545772
      43A     -0.541275    44A     -0.524402    45A     -0.507393
      46A     -0.503935    47A     -0.491701    48A     -0.489230
      49A     -0.478424    50A     -0.468866    51A     -0.463663
      52A     -0.416822    53A     -0.365141    54A     -0.339919
      55A     -0.329942

  @DF-RHF Final Energy:  -631.73022533222820

   => Energetics <=

    Nuclear Repulsion Energy =            999.5055904909177116
    One-Electron Energy =               -2842.2199244546800401
    Two-Electron Energy =                1210.9841086315341272
    Total Energy =                       -631.7302253322282013
  Basis Set: (AUG-CC-PVTZ AUX)
    Blend: AUG-CC-PVTZ-RI
    Molecular point group: c1

    Geometry (in Angstrom), charge = 0, multiplicity = 1:

       Center              X                  Y                   Z               Mass
    ------------   -----------------  -----------------  -----------------  -----------------
         O            0.056011839564     1.938340361286    -1.183350860291    15.994914619570
         N            1.255576839564     0.450717361286     0.085197139709    14.003074004430
         C            3.726684839564    -0.963130638714     0.432798139709    12.000000000000
         C            3.579303839564     0.157142361286    -0.597523860291    12.000000000000
         C            2.389086139564    -1.653705038714     0.702312039709    12.000000000000
         C            2.509283839564     1.155545361286    -0.165584860291    12.000000000000
         C            1.336556839564    -0.588168638714     1.106081139709    12.000000000000
         C            0.097808839564     0.916685361286    -0.484231860291    12.000000000000
         C           -1.135742160436     0.089904361286    -0.269073860291    12.000000000000
         C           -2.237312160436     0.643499361286     0.409028139709    12.000000000000
         C           -1.217196160436    -1.183816638714    -0.845028860291    12.000000000000
         C           -3.400336160436    -0.127518638714     0.513484139709    12.000000000000
         C           -2.161500160436     2.024704361286     1.006496139709    12.000000000000
         C           -2.391567160436    -1.930347638714    -0.742000860291    12.000000000000
         C           -3.485379160436    -1.399648638714    -0.057367860291    12.000000000000
         H            4.458178839564    -1.704973638714     0.092699139709     1.007825032230
         H            4.116086839564    -0.541438638714     1.369789139709     1.007825032230
         H            4.532906839564     0.679815361286    -0.739786860291     1.007825032230
         H            3.290845839564    -0.265091638714    -1.567837860291     1.007825032230
         H            2.028278839564    -2.151959638714    -0.189708860291     1.007825032230
         H            2.471828839564    -2.377343638714     1.507026139709     1.007825032230
         H            2.821957839564     1.672636361286     0.754702139709     1.007825032230
         H            2.312271839564     1.909908361286    -0.928504860291     1.007825032230
         H            0.352036839564    -1.036489638714     1.242592139709     1.007825032230
         H            1.628497839564    -0.120670638714     2.060183139709     1.007825032230
         H           -0.358093160436    -1.582192638714    -1.382499860291     1.007825032230
         H           -4.259285160436     0.280743361286     1.043622139709     1.007825032230
         H           -1.980247160436     2.769387361286     0.227716139709     1.007825032230
         H           -3.091777160436     2.270485361286     1.525757139709     1.007825032230
         H           -1.339393160436     2.101512361286     1.726246139709     1.007825032230
         H           -2.452628160436    -2.916316638714    -1.196534860291     1.007825032230
         H           -4.404842160436    -1.973411638714     0.032811139709     1.007825032230

  Basis Set: AUG-CC-PVTZ
    Blend: AUG-CC-PVTZ
  Basis Set: (AUG-CC-PVTZ AUX)
    Blend: AUG-CC-PVTZ-JKFIT
	 Reference Energy          =    -631.7302253322282013 [Eh]
	 Singles Energy            =      -0.0000000000000000 [Eh]
	 Same-Spin Energy          =      -0.6888950191997234 [Eh]
	 Opposite-Spin Energy      =      -2.2122044186368681 [Eh]
	 Correlation Energy        =      -2.9010994378365913 [Eh]
	 Total Energy              =    -634.6313247700647935 [Eh]

	 ================> DF-SCS-MP2 Energies <==================
	-----------------------------------------------------------
	 SCS Same-Spin Scale       =       0.3333333333333333 [-]
	 SCS Opposite-Spin Scale   =       1.2000000000000000 [-]
	 SCS Same-Spin Energy      =      -0.2296316730665744 [Eh]
	 SCS Opposite-Spin Energy  =      -2.6546453023642416 [Eh]
	 SCS Correlation Energy    =      -2.8842769754308160 [Eh]
	 SCS Total Energy          =    -634.6145023076589951 [Eh]
	-----------------------------------------------------------

  Dipole Moment: [D]
     X:     1.4051      Y:    -2.5221      Z:     2.3029     Total:     3.6930

*** Psi4 exiting successfully. Buy a developer a beer!
