                               Psi4 1.4a3.dev225

  ==> Input File <==

--------------------------------------------------------------------------
#psi4
#
memory 32 gb

molecule  {
-1 1
  S       -1.9908660    -0.0115680    -0.0914370
  C        0.8351480     0.0026240    -0.3224040
  C       -0.3461724    -0.7480890     0.3119025
  C        0.9435650     1.4522290     0.1346180
  C        2.1425740    -0.7472220    -0.0583990
  H        0.6412340     0.0009810    -1.4036700
  H       -0.1836370    -0.6741640     1.4285240
  H       -0.3012000    -1.7665080     0.0540450
  H        1.1751250     1.4924670     1.2076710
  H        1.7349380     1.9924090    -0.4025300
  H       -0.0196830     1.9410400    -0.0272870
  H        2.3515230    -0.7796840     1.0184780
  H        2.9984690    -0.2652850    -0.5495640
  H        2.0837140    -1.7817520    -0.4169670
units angstrom
no_reorient  #important for SAPT in psi4, default
symmetry c1  #important for SAPT in psi4, default
}

set PROPERTIES_ORIGIN ["COM"]
properties('MP2/aug-cc-pvtz', properties = ['dipole'])
--------------------------------------------------------------------------

    Molecular point group: c1
  Charge       = -1
  Multiplicity = 1
  Basis Set: AUG-CC-PVTZ
    Blend: AUG-CC-PVTZ
  Basis Set: (AUG-CC-PVTZ AUX)
    Blend: AUG-CC-PVTZ-JKFIT

    Orbital Energies [Eh]
    ---------------------

    Doubly Occupied:

       1A    -91.668400     2A    -11.083936     3A    -11.071566
       4A    -11.063686     5A    -11.059776     6A     -8.668123
       7A     -6.349697     8A     -6.348055     9A     -6.348014
      10A     -0.934138    11A     -0.791088    12A     -0.780614
      13A     -0.636865    14A     -0.576916    15A     -0.480214
      16A     -0.449409    17A     -0.422827    18A     -0.398217
      19A     -0.376194    20A     -0.340287    21A     -0.322285
      22A     -0.301229    23A     -0.226690    24A     -0.094142
      25A     -0.091192

  @DF-RHF Final Energy:  -554.31983304368578

   => Energetics <=

    Nuclear Repulsion Energy =            222.1130381382741632
    One-Electron Energy =               -1211.0986201577154588
    Two-Electron Energy =                 434.6657489757554913
    Total Energy =                       -554.3198330436857759
  Basis Set: (AUG-CC-PVTZ AUX)
    Blend: AUG-CC-PVTZ-RI
    Molecular point group: c1

    Geometry (in Angstrom), charge = -1, multiplicity = 1:

       Center              X                  Y                   Z               Mass
    ------------   -----------------  -----------------  -----------------  -----------------
         S           -1.876446014735    -0.003767266384    -0.077746799101    31.972071174400
         C            0.949567985265     0.010424733616    -0.308713799101    12.000000000000
         C           -0.231752414735    -0.740288266384     0.325592700899    12.000000000000
         C            1.057984985265     1.460029733616     0.148308200899    12.000000000000
         C            2.256993985265    -0.739421266384    -0.044708799101    12.000000000000
         H            0.755653985265     0.008781733616    -1.389979799101     1.007825032230
         H           -0.069217014735    -0.666363266384     1.442214200899     1.007825032230
         H           -0.186780014735    -1.758707266384     0.067735200899     1.007825032230
         H            1.289544985265     1.500267733616     1.221361200899     1.007825032230
         H            1.849357985265     2.000209733616    -0.388839799101     1.007825032230
         H            0.094736985265     1.948840733616    -0.013596799101     1.007825032230
         H            2.465942985265    -0.771883266384     1.032168200899     1.007825032230
         H            3.112888985265    -0.257484266384    -0.535873799101     1.007825032230
         H            2.198133985265    -1.773951266384    -0.403276799101     1.007825032230

  Basis Set: AUG-CC-PVTZ
    Blend: AUG-CC-PVTZ
  Basis Set: (AUG-CC-PVTZ AUX)
    Blend: AUG-CC-PVTZ-JKFIT
	 Reference Energy          =    -554.3198330436857759 [Eh]
	 Singles Energy            =      -0.0000000000000000 [Eh]
	 Same-Spin Energy          =      -0.2314026928069314 [Eh]
	 Opposite-Spin Energy      =      -0.8016057371684808 [Eh]
	 Correlation Energy        =      -1.0330084299754123 [Eh]
	 Total Energy              =    -555.3528414736612149 [Eh]

	 ================> DF-SCS-MP2 Energies <==================
	-----------------------------------------------------------
	 SCS Same-Spin Scale       =       0.3333333333333333 [-]
	 SCS Opposite-Spin Scale   =       1.2000000000000000 [-]
	 SCS Same-Spin Energy      =      -0.0771342309356438 [Eh]
	 SCS Opposite-Spin Energy  =      -0.9619268846021769 [Eh]
	 SCS Correlation Energy    =      -1.0390611155378207 [Eh]
	 SCS Total Energy          =    -555.3588941592236097 [Eh]
	-----------------------------------------------------------

  Dipole Moment: [D]
     X:     7.3656      Y:    -0.1608      Z:     0.3062     Total:     7.3738

*** Psi4 exiting successfully. Buy a developer a beer!
