                               Psi4 1.4a3.dev225

  ==> Input File <==

--------------------------------------------------------------------------
#psi4
#
memory 32 gb

molecule  {
-1 1
  S       -1.9908660    -0.0115680    -0.0914370
  C        0.8351480     0.0026240    -0.3224040
  C       -0.3590580    -0.7033670     0.3385660
  C        0.9435650     1.4522290     0.1346180
  C        2.1425740    -0.7472220    -0.0583990
  H        0.6412340     0.0009810    -1.4036700
  H       -0.1836370    -0.6741640     1.4285240
  H       -0.3012000    -1.7665080     0.0540450
  H        1.1909137     1.5025969     1.2037127
  H        1.7349380     1.9924090    -0.4025300
  H       -0.0196830     1.9410400    -0.0272870
  H        2.3515230    -0.7796840     1.0184780
  H        2.9984690    -0.2652850    -0.5495640
  H        2.0837140    -1.7817520    -0.4169670
units angstrom
no_reorient  #important for SAPT in psi4, default
symmetry c1  #important for SAPT in psi4, default
}

set PROPERTIES_ORIGIN ["COM"]
properties('MP2/aug-cc-pvtz', properties = ['dipole'])
--------------------------------------------------------------------------

    Molecular point group: c1
  Charge       = -1
  Multiplicity = 1
  Basis Set: AUG-CC-PVTZ
    Blend: AUG-CC-PVTZ
  Basis Set: (AUG-CC-PVTZ AUX)
    Blend: AUG-CC-PVTZ-JKFIT

    Orbital Energies [Eh]
    ---------------------

    Doubly Occupied:

       1A    -91.667911     2A    -11.084237     3A    -11.071196
       4A    -11.062840     5A    -11.060906     6A     -8.668010
       7A     -6.349647     8A     -6.347956     9A     -6.347910
      10A     -0.934057    11A     -0.792384    12A     -0.779479
      13A     -0.638564    14A     -0.576160    15A     -0.476002
      16A     -0.447948    17A     -0.424307    18A     -0.397410
      19A     -0.375261    20A     -0.339337    21A     -0.314187
      22A     -0.305817    23A     -0.232544    24A     -0.093946
      25A     -0.091492

  @DF-RHF Final Energy:  -554.32213952998325

   => Energetics <=

    Nuclear Repulsion Energy =            222.4079714377314758
    One-Electron Energy =               -1211.7012073887372026
    Two-Electron Energy =                 434.9710964210224802
    Total Energy =                       -554.3221395299832466
  Basis Set: (AUG-CC-PVTZ AUX)
    Blend: AUG-CC-PVTZ-RI
    Molecular point group: c1

    Geometry (in Angstrom), charge = -1, multiplicity = 1:

       Center              X                  Y                   Z               Mass
    ------------   -----------------  -----------------  -----------------  -----------------
         S           -1.874888163614    -0.009908976113    -0.081295360054    31.972071174400
         C            0.951125836386     0.004283023887    -0.312262360054    12.000000000000
         C           -0.243080163614    -0.701707976113     0.348707639946    12.000000000000
         C            1.059542836386     1.453888023887     0.144759639946    12.000000000000
         C            2.258551836386    -0.745562976113    -0.048257360054    12.000000000000
         H            0.757211836386     0.002640023887    -1.393528360054     1.007825032230
         H           -0.067659163614    -0.672504976113     1.438665639946     1.007825032230
         H           -0.185222163614    -1.764848976113     0.064186639946     1.007825032230
         H            1.306891536386     1.504255923887     1.213854339946     1.007825032230
         H            1.850915836386     1.994068023887    -0.392388360054     1.007825032230
         H            0.096294836386     1.942699023887    -0.017145360054     1.007825032230
         H            2.467500836386    -0.778024976113     1.028619639946     1.007825032230
         H            3.114446836386    -0.263625976113    -0.539422360054     1.007825032230
         H            2.199691836386    -1.780092976113    -0.406825360054     1.007825032230

  Basis Set: AUG-CC-PVTZ
    Blend: AUG-CC-PVTZ
  Basis Set: (AUG-CC-PVTZ AUX)
    Blend: AUG-CC-PVTZ-JKFIT
	 Reference Energy          =    -554.3221395299832466 [Eh]
	 Singles Energy            =      -0.0000000000000000 [Eh]
	 Same-Spin Energy          =      -0.2315464910350194 [Eh]
	 Opposite-Spin Energy      =      -0.8016325557708512 [Eh]
	 Correlation Energy        =      -1.0331790468058706 [Eh]
	 Total Energy              =    -555.3553185767891591 [Eh]

	 ================> DF-SCS-MP2 Energies <==================
	-----------------------------------------------------------
	 SCS Same-Spin Scale       =       0.3333333333333333 [-]
	 SCS Opposite-Spin Scale   =       1.2000000000000000 [-]
	 SCS Same-Spin Energy      =      -0.0771821636783398 [Eh]
	 SCS Opposite-Spin Energy  =      -0.9619590669250214 [Eh]
	 SCS Correlation Energy    =      -1.0391412306033612 [Eh]
	 SCS Total Energy          =    -555.3612807605866237 [Eh]
	-----------------------------------------------------------

  Dipole Moment: [D]
     X:     7.3166      Y:    -0.1343      Z:     0.3228     Total:     7.3249

*** Psi4 exiting successfully. Buy a developer a beer!
