                               Psi4 1.4a3.dev225

  ==> Input File <==

--------------------------------------------------------------------------
#psi4
#
memory 32 gb

molecule  {
-1 1
  S       -1.9908660    -0.0115680    -0.0914370
  C        0.8351480     0.0026240    -0.3224040
  C       -0.1801131    -0.7792300     0.3857203
  C        0.9435650     1.4522290     0.1346180
  C        2.1425740    -0.7472220    -0.0583990
  H        0.6412340     0.0009810    -1.4036700
  H       -0.1836370    -0.6741640     1.4285240
  H       -0.3012000    -1.7665080     0.0540450
  H        1.1751250     1.4924670     1.2076710
  H        1.7349380     1.9924090    -0.4025300
  H       -0.0196830     1.9410400    -0.0272870
  H        2.3515230    -0.7796840     1.0184780
  H        2.9984690    -0.2652850    -0.5495640
  H        2.0837140    -1.7817520    -0.4169670
units angstrom
no_reorient  #important for SAPT in psi4, default
symmetry c1  #important for SAPT in psi4, default
}

set PROPERTIES_ORIGIN ["COM"]
properties('MP2/aug-cc-pvtz', properties = ['dipole'])
--------------------------------------------------------------------------

    Molecular point group: c1
  Charge       = -1
  Multiplicity = 1
  Basis Set: AUG-CC-PVTZ
    Blend: AUG-CC-PVTZ
  Basis Set: (AUG-CC-PVTZ AUX)
    Blend: AUG-CC-PVTZ-JKFIT

    Orbital Energies [Eh]
    ---------------------

    Doubly Occupied:

       1A    -91.670455     2A    -11.083563     3A    -11.072605
       4A    -11.066125     5A    -11.055611     6A     -8.668333
       7A     -6.349562     8A     -6.348088     9A     -6.348056
      10A     -0.947118    11A     -0.791464    12A     -0.777596
      13A     -0.632143    14A     -0.581144    15A     -0.490288
      16A     -0.454930    17A     -0.430919    18A     -0.401440
      19A     -0.390997    20A     -0.341120    21A     -0.336925
      22A     -0.319414    23A     -0.179743    24A     -0.092431
      25A     -0.090879

  @DF-RHF Final Energy:  -554.30123710020393

   => Energetics <=

    Nuclear Repulsion Energy =            221.3805740587037576
    One-Electron Energy =               -1209.5217243026936558
    Two-Electron Energy =                 433.8399131437859069
    Total Energy =                       -554.3012371002039345
  Basis Set: (AUG-CC-PVTZ AUX)
    Blend: AUG-CC-PVTZ-RI
    Molecular point group: c1

    Geometry (in Angstrom), charge = -1, multiplicity = 1:

       Center              X                  Y                   Z               Mass
    ------------   -----------------  -----------------  -----------------  -----------------
         S           -1.898825346842     0.000429516218    -0.087695010743    31.972071174400
         C            0.927188653158     0.014621516218    -0.318662010743    12.000000000000
         C           -0.088072446842    -0.767232483782     0.389462289257    12.000000000000
         C            1.035605653158     1.464226516218     0.138359989257    12.000000000000
         C            2.234614653158    -0.735224483782    -0.054657010743    12.000000000000
         H            0.733274653158     0.012978516218    -1.399928010743     1.007825032230
         H           -0.091596346842    -0.662166483782     1.432265989257     1.007825032230
         H           -0.209159346842    -1.754510483782     0.057786989257     1.007825032230
         H            1.267165653158     1.504464516218     1.211412989257     1.007825032230
         H            1.826978653158     2.004406516218    -0.398788010743     1.007825032230
         H            0.072357653158     1.953037516218    -0.023545010743     1.007825032230
         H            2.443563653158    -0.767686483782     1.022219989257     1.007825032230
         H            3.090509653158    -0.253287483782    -0.545822010743     1.007825032230
         H            2.175754653158    -1.769754483782    -0.413225010743     1.007825032230

  Basis Set: AUG-CC-PVTZ
    Blend: AUG-CC-PVTZ
  Basis Set: (AUG-CC-PVTZ AUX)
    Blend: AUG-CC-PVTZ-JKFIT
	 Reference Energy          =    -554.3012371002039345 [Eh]
	 Singles Energy            =      -0.0000000000000000 [Eh]
	 Same-Spin Energy          =      -0.2319513060852019 [Eh]
	 Opposite-Spin Energy      =      -0.8034075658299247 [Eh]
	 Correlation Energy        =      -1.0353588719151265 [Eh]
	 Total Energy              =    -555.3365959721190848 [Eh]

	 ================> DF-SCS-MP2 Energies <==================
	-----------------------------------------------------------
	 SCS Same-Spin Scale       =       0.3333333333333333 [-]
	 SCS Opposite-Spin Scale   =       1.2000000000000000 [-]
	 SCS Same-Spin Energy      =      -0.0773171020284006 [Eh]
	 SCS Opposite-Spin Energy  =      -0.9640890789959096 [Eh]
	 SCS Correlation Energy    =      -1.0414061810243103 [Eh]
	 SCS Total Energy          =    -555.3426432812282201 [Eh]
	-----------------------------------------------------------

  Dipole Moment: [D]
     X:     7.7337      Y:    -0.1574      Z:     0.3601     Total:     7.7436

*** Psi4 exiting successfully. Buy a developer a beer!
