                               Psi4 1.4a3.dev225

  ==> Input File <==

--------------------------------------------------------------------------
#psi4
#
memory 32 gb

molecule  {
-1 1
  S       -1.9908660    -0.0115680    -0.0914370
  C        0.8351480     0.0026240    -0.3224040
  C       -0.3769525    -0.6957807     0.3338506
  C        0.9435650     1.4522290     0.1346180
  C        2.1425740    -0.7472220    -0.0583990
  H        0.6412340     0.0009810    -1.4036700
  H       -0.1836370    -0.6741640     1.4285240
  H       -0.3012000    -1.7665080     0.0540450
  H        1.1751250     1.4924670     1.2076710
  H        1.7349380     1.9924090    -0.4025300
  H       -0.0196830     1.9410400    -0.0272870
  H        2.3515230    -0.7796840     1.0184780
  H        2.9984690    -0.2652850    -0.5495640
  H        2.0837140    -1.7817520    -0.4169670
units angstrom
no_reorient  #important for SAPT in psi4, default
symmetry c1  #important for SAPT in psi4, default
}

set PROPERTIES_ORIGIN ["COM"]
properties('MP2/aug-cc-pvtz', properties = ['dipole'])
--------------------------------------------------------------------------

    Molecular point group: c1
  Charge       = -1
  Multiplicity = 1
  Basis Set: AUG-CC-PVTZ
    Blend: AUG-CC-PVTZ
  Basis Set: (AUG-CC-PVTZ AUX)
    Blend: AUG-CC-PVTZ-JKFIT

    Orbital Energies [Eh]
    ---------------------

    Doubly Occupied:

       1A    -91.667593     2A    -11.084288     3A    -11.071020
       4A    -11.062469     5A    -11.062166     6A     -8.668050
       7A     -6.349745     8A     -6.348006     9A     -6.347957
      10A     -0.932950    11A     -0.793119    12A     -0.779749
      13A     -0.639451    14A     -0.575180    15A     -0.475105
      16A     -0.447399    17A     -0.423195    18A     -0.397715
      19A     -0.373483    20A     -0.338719    21A     -0.312293
      22A     -0.303571    23A     -0.237664    24A     -0.094070
      25A     -0.091533

  @DF-RHF Final Energy:  -554.32141254715509

   => Energetics <=

    Nuclear Repulsion Energy =            222.5540903770619536
    One-Electron Energy =               -1211.9980285810052010
    Two-Electron Energy =                 435.1225256567881843
    Total Energy =                       -554.3214125471550915
  Basis Set: (AUG-CC-PVTZ AUX)
    Blend: AUG-CC-PVTZ-RI
    Molecular point group: c1

    Geometry (in Angstrom), charge = -1, multiplicity = 1:

       Center              X                  Y                   Z               Mass
    ------------   -----------------  -----------------  -----------------  -----------------
         S           -1.872297869583    -0.010816704854    -0.080704681128    31.972071174400
         C            0.953716130417     0.003375295146    -0.311671681128    12.000000000000
         C           -0.258384369583    -0.695029404854     0.344582918872    12.000000000000
         C            1.062133130417     1.452980295146     0.145350318872    12.000000000000
         C            2.261142130417    -0.746470704854    -0.047666681128    12.000000000000
         H            0.759802130417     0.001732295146    -1.392937681128     1.007825032230
         H           -0.065068869583    -0.673412704854     1.439256318872     1.007825032230
         H           -0.182631869583    -1.765756704854     0.064777318872     1.007825032230
         H            1.293693130417     1.493218295146     1.218403318872     1.007825032230
         H            1.853506130417     1.993160295146    -0.391797681128     1.007825032230
         H            0.098885130417     1.941791295146    -0.016554681128     1.007825032230
         H            2.470091130417    -0.778932704854     1.029210318872     1.007825032230
         H            3.117037130417    -0.264533704854    -0.538831681128     1.007825032230
         H            2.202282130417    -1.781000704854    -0.406234681128     1.007825032230

  Basis Set: AUG-CC-PVTZ
    Blend: AUG-CC-PVTZ
  Basis Set: (AUG-CC-PVTZ AUX)
    Blend: AUG-CC-PVTZ-JKFIT
	 Reference Energy          =    -554.3214125471550915 [Eh]
	 Singles Energy            =      -0.0000000000000000 [Eh]
	 Same-Spin Energy          =      -0.2317229716106081 [Eh]
	 Opposite-Spin Energy      =      -0.8017743646951112 [Eh]
	 Correlation Energy        =      -1.0334973363057194 [Eh]
	 Total Energy              =    -555.3549098834607776 [Eh]

	 ================> DF-SCS-MP2 Energies <==================
	-----------------------------------------------------------
	 SCS Same-Spin Scale       =       0.3333333333333333 [-]
	 SCS Opposite-Spin Scale   =       1.2000000000000000 [-]
	 SCS Same-Spin Energy      =      -0.0772409905368694 [Eh]
	 SCS Opposite-Spin Energy  =      -0.9621292376341334 [Eh]
	 SCS Correlation Energy    =      -1.0393702281710027 [Eh]
	 SCS Total Energy          =    -555.3607827753261290 [Eh]
	-----------------------------------------------------------

  Dipole Moment: [D]
     X:     7.2479      Y:    -0.1229      Z:     0.3097     Total:     7.2555

*** Psi4 exiting successfully. Buy a developer a beer!
