                               Psi4 1.4a3.dev225

  ==> Input File <==

--------------------------------------------------------------------------
#psi4
#
memory 32 gb

molecule  {
-1 1
  S       -1.9908660    -0.0115680    -0.0914370
  C        0.8351480     0.0026240    -0.3224040
  C       -0.3590580    -0.7033670     0.3385660
  C        0.9435650     1.4522290     0.1346180
  C        2.1425740    -0.7472220    -0.0583990
  H        0.6412340     0.0009810    -1.4036700
  H       -0.1836370    -0.6741640     1.4285240
  H       -0.3012000    -1.7665080     0.0540450
  H        1.1751250     1.4924670     1.2076710
  H        1.7349380     1.9924090    -0.4025300
  H       -0.0196830     1.9410400    -0.0272870
  H        2.3134437    -0.7737681     0.8222257
  H        2.9984690    -0.2652850    -0.5495640
  H        2.0837140    -1.7817520    -0.4169670
units angstrom
no_reorient  #important for SAPT in psi4, default
symmetry c1  #important for SAPT in psi4, default
}

set PROPERTIES_ORIGIN ["COM"]
properties('MP2/aug-cc-pvtz', properties = ['dipole'])
--------------------------------------------------------------------------

    Molecular point group: c1
  Charge       = -1
  Multiplicity = 1
  Basis Set: AUG-CC-PVTZ
    Blend: AUG-CC-PVTZ
  Basis Set: (AUG-CC-PVTZ AUX)
    Blend: AUG-CC-PVTZ-JKFIT

    Orbital Energies [Eh]
    ---------------------

    Doubly Occupied:

       1A    -91.667624     2A    -11.068722     3A    -11.062414
       4A    -11.060521     5A    -11.057739     6A     -8.667716
       7A     -6.349352     8A     -6.347660     9A     -6.347614
      10A     -0.939500    11A     -0.811476    12A     -0.778964
      13A     -0.645037    14A     -0.577485    15A     -0.485889
      16A     -0.449634    17A     -0.421915    18A     -0.419739
      19A     -0.375613    20A     -0.337604    21A     -0.313046
      22A     -0.306363    23A     -0.231802    24A     -0.093524
      25A     -0.091192

  @DF-RHF Final Energy:  -554.28874920524117

   => Energetics <=

    Nuclear Repulsion Energy =            223.3629109588449637
    One-Electron Energy =               -1213.4870212175476354
    Two-Electron Energy =                 435.8353610534614972
    Total Energy =                       -554.2887492052411744
  Basis Set: (AUG-CC-PVTZ AUX)
    Blend: AUG-CC-PVTZ-RI
    Molecular point group: c1

    Geometry (in Angstrom), charge = -1, multiplicity = 1:

       Center              X                  Y                   Z               Mass
    ------------   -----------------  -----------------  -----------------  -----------------
         S           -1.874278460147    -0.009861280070    -0.079118885736    31.972071174400
         C            0.951735539853     0.004330719930    -0.310085885736    12.000000000000
         C           -0.242470460147    -0.701660280070     0.350884114264    12.000000000000
         C            1.060152539853     1.453935719930     0.146936114264    12.000000000000
         C            2.259161539853    -0.745515280070    -0.046080885736    12.000000000000
         H            0.757821539853     0.002687719930    -1.391351885736     1.007825032230
         H           -0.067049460147    -0.672457280070     1.440842114264     1.007825032230
         H           -0.184612460147    -1.764801280070     0.066363114264     1.007825032230
         H            1.291712539853     1.494173719930     1.219989114264     1.007825032230
         H            1.851525539853     1.994115719930    -0.390211885736     1.007825032230
         H            0.096904539853     1.942746719930    -0.014968885736     1.007825032230
         H            2.430031239853    -0.772061380070     0.834543814264     1.007825032230
         H            3.115056539853    -0.263578280070    -0.537245885736     1.007825032230
         H            2.200301539853    -1.780045280070    -0.404648885736     1.007825032230

  Basis Set: AUG-CC-PVTZ
    Blend: AUG-CC-PVTZ
  Basis Set: (AUG-CC-PVTZ AUX)
    Blend: AUG-CC-PVTZ-JKFIT
	 Reference Energy          =    -554.2887492052411744 [Eh]
	 Singles Energy            =      -0.0000000000000000 [Eh]
	 Same-Spin Energy          =      -0.2316666747808163 [Eh]
	 Opposite-Spin Energy      =      -0.8011052677508506 [Eh]
	 Correlation Energy        =      -1.0327719425316668 [Eh]
	 Total Energy              =    -555.3215211477728417 [Eh]

	 ================> DF-SCS-MP2 Energies <==================
	-----------------------------------------------------------
	 SCS Same-Spin Scale       =       0.3333333333333333 [-]
	 SCS Opposite-Spin Scale   =       1.2000000000000000 [-]
	 SCS Same-Spin Energy      =      -0.0772222249269388 [Eh]
	 SCS Opposite-Spin Energy  =      -0.9613263213010206 [Eh]
	 SCS Correlation Energy    =      -1.0385485462279593 [Eh]
	 SCS Total Energy          =    -555.3272977514691320 [Eh]
	-----------------------------------------------------------

  Dipole Moment: [D]
     X:     7.3840      Y:    -0.1595      Z:     0.4276     Total:     7.3981

*** Psi4 exiting successfully. Buy a developer a beer!
