                               Psi4 1.4a3.dev225

  ==> Input File <==

--------------------------------------------------------------------------
#psi4
#
memory 32 gb

molecule  {
-1 1
  S       -1.9908660    -0.0115680    -0.0914370
  C        0.8351480     0.0026240    -0.3224040
  C       -0.3590580    -0.7033670     0.3385660
  C        0.9435650     1.4522290     0.1346180
  C        2.1425740    -0.7472220    -0.0583990
  H        0.6412340     0.0009810    -1.4036700
  H       -0.1836370    -0.6741640     1.4285240
  H       -0.3012000    -1.7665080     0.0540450
  H        1.1751250     1.4924670     1.2076710
  H        1.7349380     1.9924090    -0.4025300
  H       -0.0196830     1.9410400    -0.0272870
  H        2.3515725    -0.7988227     1.0177211
  H        2.9984690    -0.2652850    -0.5495640
  H        2.0837140    -1.7817520    -0.4169670
units angstrom
no_reorient  #important for SAPT in psi4, default
symmetry c1  #important for SAPT in psi4, default
}

set PROPERTIES_ORIGIN ["COM"]
properties('MP2/aug-cc-pvtz', properties = ['dipole'])
--------------------------------------------------------------------------

    Molecular point group: c1
  Charge       = -1
  Multiplicity = 1
  Basis Set: AUG-CC-PVTZ
    Blend: AUG-CC-PVTZ
  Basis Set: (AUG-CC-PVTZ AUX)
    Blend: AUG-CC-PVTZ-JKFIT

    Orbital Energies [Eh]
    ---------------------

    Doubly Occupied:

       1A    -91.667921     2A    -11.084204     3A    -11.071178
       4A    -11.062753     5A    -11.060936     6A     -8.668020
       7A     -6.349657     8A     -6.347966     9A     -6.347920
      10A     -0.934023    11A     -0.792491    12A     -0.779363
      13A     -0.638518    14A     -0.576227    15A     -0.475491
      16A     -0.448542    17A     -0.423672    18A     -0.398101
      19A     -0.375051    20A     -0.339144    21A     -0.313889
      22A     -0.306123    23A     -0.232558    24A     -0.093946
      25A     -0.091502

  @DF-RHF Final Energy:  -554.32213790295020

   => Energetics <=

    Nuclear Repulsion Energy =            222.4161583868203138
    One-Electron Energy =               -1211.7182061531896125
    Two-Electron Energy =                 434.9799098634190386
    Total Energy =                       -554.3221379029502032
  Basis Set: (AUG-CC-PVTZ AUX)
    Blend: AUG-CC-PVTZ-RI
    Molecular point group: c1

    Geometry (in Angstrom), charge = -1, multiplicity = 1:

       Center              X                  Y                   Z               Mass
    ------------   -----------------  -----------------  -----------------  -----------------
         S           -1.874710019914    -0.009577700274    -0.081331595012    31.972071174400
         C            0.951303980086     0.004614299726    -0.312298595012    12.000000000000
         C           -0.242902019914    -0.701376700274     0.348671404988    12.000000000000
         C            1.059720980086     1.454219299726     0.144723404988    12.000000000000
         C            2.258729980086    -0.745231700274    -0.048293595012    12.000000000000
         H            0.757389980086     0.002971299726    -1.393564595012     1.007825032230
         H           -0.067481019914    -0.672173700274     1.438629404988     1.007825032230
         H           -0.185044019914    -1.764517700274     0.064150404988     1.007825032230
         H            1.291280980086     1.494457299726     1.217776404988     1.007825032230
         H            1.851093980086     1.994399299726    -0.392424595012     1.007825032230
         H            0.096472980086     1.943030299726    -0.017181595012     1.007825032230
         H            2.467728480086    -0.796832400274     1.027826504988     1.007825032230
         H            3.114624980086    -0.263294700274    -0.539458595012     1.007825032230
         H            2.199869980086    -1.779761700274    -0.406861595012     1.007825032230

  Basis Set: AUG-CC-PVTZ
    Blend: AUG-CC-PVTZ
  Basis Set: (AUG-CC-PVTZ AUX)
    Blend: AUG-CC-PVTZ-JKFIT
	 Reference Energy          =    -554.3221379029502032 [Eh]
	 Singles Energy            =      -0.0000000000000000 [Eh]
	 Same-Spin Energy          =      -0.2315528795515728 [Eh]
	 Opposite-Spin Energy      =      -0.8016392929786542 [Eh]
	 Correlation Energy        =      -1.0331921725302271 [Eh]
	 Total Energy              =    -555.3553300754804241 [Eh]

	 ================> DF-SCS-MP2 Energies <==================
	-----------------------------------------------------------
	 SCS Same-Spin Scale       =       0.3333333333333333 [-]
	 SCS Opposite-Spin Scale   =       1.2000000000000000 [-]
	 SCS Same-Spin Energy      =      -0.0771842931838576 [Eh]
	 SCS Opposite-Spin Energy  =      -0.9619671515743851 [Eh]
	 SCS Correlation Energy    =      -1.0391514447582426 [Eh]
	 SCS Total Energy          =    -555.3612893477084071 [Eh]
	-----------------------------------------------------------

  Dipole Moment: [D]
     X:     7.3113      Y:    -0.1397      Z:     0.3228     Total:     7.3198

*** Psi4 exiting successfully. Buy a developer a beer!
