                               Psi4 1.4a3.dev225

  ==> Input File <==

--------------------------------------------------------------------------
#psi4
#
memory 32 gb

molecule  {
-1 1
  S       -1.9908660    -0.0115680    -0.0914370
  C        0.8351480     0.0026240    -0.3224040
  C       -0.3590580    -0.7033670     0.3385660
  C        0.9435650     1.4522290     0.1346180
  C        2.1425740    -0.7472220    -0.0583990
  H        0.6412340     0.0009810    -1.4036700
  H       -0.1915791    -0.6754862     1.3791765
  H       -0.3012000    -1.7665080     0.0540450
  H        1.1751250     1.4924670     1.2076710
  H        1.7349380     1.9924090    -0.4025300
  H       -0.0196830     1.9410400    -0.0272870
  H        2.3515230    -0.7796840     1.0184780
  H        2.9984690    -0.2652850    -0.5495640
  H        2.0837140    -1.7817520    -0.4169670
units angstrom
no_reorient  #important for SAPT in psi4, default
symmetry c1  #important for SAPT in psi4, default
}

set PROPERTIES_ORIGIN ["COM"]
properties('MP2/aug-cc-pvtz', properties = ['dipole'])
--------------------------------------------------------------------------

    Molecular point group: c1
  Charge       = -1
  Multiplicity = 1
  Basis Set: AUG-CC-PVTZ
    Blend: AUG-CC-PVTZ
  Basis Set: (AUG-CC-PVTZ AUX)
    Blend: AUG-CC-PVTZ-JKFIT

    Orbital Energies [Eh]
    ---------------------

    Doubly Occupied:

       1A    -91.667317     2A    -11.084305     3A    -11.070473
       4A    -11.062786     5A    -11.054294     6A     -8.667416
       7A     -6.349055     8A     -6.347369     9A     -6.347323
      10A     -0.934640    11A     -0.793429    12A     -0.781379
      13A     -0.638074    14A     -0.580086    15A     -0.476188
      16A     -0.448749    17A     -0.424861    18A     -0.398422
      19A     -0.379862    20A     -0.338742    21A     -0.314026
      22A     -0.307099    23A     -0.232083    24A     -0.093483
      25A     -0.091239

  @DF-RHF Final Energy:  -554.32142428753536

   => Energetics <=

    Nuclear Repulsion Energy =            222.6722647419896646
    One-Electron Energy =               -1212.2219823501354767
    Two-Electron Energy =                 435.2282933206104758
    Total Energy =                       -554.3214242875353648
  Basis Set: (AUG-CC-PVTZ AUX)
    Blend: AUG-CC-PVTZ-RI
    Molecular point group: c1

    Geometry (in Angstrom), charge = -1, multiplicity = 1:

       Center              X                  Y                   Z               Mass
    ------------   -----------------  -----------------  -----------------  -----------------
         S           -1.874619567211    -0.009779355836    -0.080781623650    31.972071174400
         C            0.951394432789     0.004412644164    -0.311748623650    12.000000000000
         C           -0.242811567211    -0.701578355836     0.349221376350    12.000000000000
         C            1.059811432789     1.454017644164     0.145273376350    12.000000000000
         C            2.258820432789    -0.745433355836    -0.047743623650    12.000000000000
         H            0.757480432789     0.002769644164    -1.393014623650     1.007825032230
         H           -0.075332667211    -0.673697555836     1.389831876350     1.007825032230
         H           -0.184953567211    -1.764719355836     0.064700376350     1.007825032230
         H            1.291371432789     1.494255644164     1.218326376350     1.007825032230
         H            1.851184432789     1.994197644164    -0.391874623650     1.007825032230
         H            0.096563432789     1.942828644164    -0.016631623650     1.007825032230
         H            2.467769432789    -0.777895355836     1.029133376350     1.007825032230
         H            3.114715432789    -0.263496355836    -0.538908623650     1.007825032230
         H            2.199960432789    -1.779963355836    -0.406311623650     1.007825032230

  Basis Set: AUG-CC-PVTZ
    Blend: AUG-CC-PVTZ
  Basis Set: (AUG-CC-PVTZ AUX)
    Blend: AUG-CC-PVTZ-JKFIT
	 Reference Energy          =    -554.3214242875353648 [Eh]
	 Singles Energy            =      -0.0000000000000000 [Eh]
	 Same-Spin Energy          =      -0.2315069256650742 [Eh]
	 Opposite-Spin Energy      =      -0.8013478813433593 [Eh]
	 Correlation Energy        =      -1.0328548070084336 [Eh]
	 Total Energy              =    -555.3542790945438128 [Eh]

	 ================> DF-SCS-MP2 Energies <==================
	-----------------------------------------------------------
	 SCS Same-Spin Scale       =       0.3333333333333333 [-]
	 SCS Opposite-Spin Scale   =       1.2000000000000000 [-]
	 SCS Same-Spin Energy      =      -0.0771689752216914 [Eh]
	 SCS Opposite-Spin Energy  =      -0.9616174576120311 [Eh]
	 SCS Correlation Energy    =      -1.0387864328337224 [Eh]
	 SCS Total Energy          =    -555.3602107203690821 [Eh]
	-----------------------------------------------------------

  Dipole Moment: [D]
     X:     7.3516      Y:    -0.1527      Z:     0.3647     Total:     7.3623

*** Psi4 exiting successfully. Buy a developer a beer!
