                               Psi4 1.4a3.dev225

  ==> Input File <==

--------------------------------------------------------------------------
#psi4
#
memory 32 gb

molecule  {
-1 1
  S       -1.9908660    -0.0115680    -0.0914370
  C        0.8351480     0.0026240    -0.3224040
  C       -0.3590580    -0.7033670     0.3385660
  C        0.9435650     1.4522290     0.1346180
  C        2.1425740    -0.7472220    -0.0583990
  H        0.6412340     0.0009810    -1.4036700
  H       -0.1836370    -0.6741640     1.4285240
  H       -0.3012000    -1.7665080     0.0540450
  H        1.1751250     1.4924670     1.2076710
  H        1.7349380     1.9924090    -0.4025300
  H       -0.0196830     1.9410400    -0.0272870
  H        2.3515584    -0.8179457     1.0166365
  H        2.9984690    -0.2652850    -0.5495640
  H        2.0837140    -1.7817520    -0.4169670
units angstrom
no_reorient  #important for SAPT in psi4, default
symmetry c1  #important for SAPT in psi4, default
}

set PROPERTIES_ORIGIN ["COM"]
properties('MP2/aug-cc-pvtz', properties = ['dipole'])
--------------------------------------------------------------------------

    Molecular point group: c1
  Charge       = -1
  Multiplicity = 1
  Basis Set: AUG-CC-PVTZ
    Blend: AUG-CC-PVTZ
  Basis Set: (AUG-CC-PVTZ AUX)
    Blend: AUG-CC-PVTZ-JKFIT

    Orbital Energies [Eh]
    ---------------------

    Doubly Occupied:

       1A    -91.667929     2A    -11.084199     3A    -11.071293
       4A    -11.062724     5A    -11.060951     6A     -8.668028
       7A     -6.349665     8A     -6.347974     9A     -6.347928
      10A     -0.933956    11A     -0.792583    12A     -0.779366
      13A     -0.638648    14A     -0.576312    15A     -0.474788
      16A     -0.449072    17A     -0.423676    18A     -0.398122
      19A     -0.374653    20A     -0.339342    21A     -0.313814
      22A     -0.306237    23A     -0.232569    24A     -0.093957
      25A     -0.091509

  @DF-RHF Final Energy:  -554.32205427076349

   => Energetics <=

    Nuclear Repulsion Energy =            222.4028838175821647
    One-Electron Energy =               -1211.6912913140279215
    Two-Electron Energy =                 434.9663532256822691
    Total Energy =                       -554.3220542707634877
  Basis Set: (AUG-CC-PVTZ AUX)
    Blend: AUG-CC-PVTZ-RI
    Molecular point group: c1

    Geometry (in Angstrom), charge = -1, multiplicity = 1:

       Center              X                  Y                   Z               Mass
    ------------   -----------------  -----------------  -----------------  -----------------
         S           -1.874709860324    -0.009361257127    -0.081319318996    31.972071174400
         C            0.951304139676     0.004830742873    -0.312286318996    12.000000000000
         C           -0.242901860324    -0.701160257127     0.348683681004    12.000000000000
         C            1.059721139676     1.454435742873     0.144735681004    12.000000000000
         C            2.258730139676    -0.745015257127    -0.048281318996    12.000000000000
         H            0.757390139676     0.003187742873    -1.393552318996     1.007825032230
         H           -0.067480860324    -0.671957257127     1.438641681004     1.007825032230
         H           -0.185043860324    -1.764301257127     0.064162681004     1.007825032230
         H            1.291281139676     1.494673742873     1.217788681004     1.007825032230
         H            1.851094139676     1.994615742873    -0.392412318996     1.007825032230
         H            0.096473139676     1.943246742873    -0.017169318996     1.007825032230
         H            2.467714539676    -0.815738957127     1.026754181004     1.007825032230
         H            3.114625139676    -0.263078257127    -0.539446318996     1.007825032230
         H            2.199870139676    -1.779545257127    -0.406849318996     1.007825032230

  Basis Set: AUG-CC-PVTZ
    Blend: AUG-CC-PVTZ
  Basis Set: (AUG-CC-PVTZ AUX)
    Blend: AUG-CC-PVTZ-JKFIT
	 Reference Energy          =    -554.3220542707634877 [Eh]
	 Singles Energy            =      -0.0000000000000000 [Eh]
	 Same-Spin Energy          =      -0.2315460101254930 [Eh]
	 Opposite-Spin Energy      =      -0.8016303219159927 [Eh]
	 Correlation Energy        =      -1.0331763320414857 [Eh]
	 Total Energy              =    -555.3552306028050225 [Eh]

	 ================> DF-SCS-MP2 Energies <==================
	-----------------------------------------------------------
	 SCS Same-Spin Scale       =       0.3333333333333333 [-]
	 SCS Opposite-Spin Scale   =       1.2000000000000000 [-]
	 SCS Same-Spin Energy      =      -0.0771820033751643 [Eh]
	 SCS Opposite-Spin Energy  =      -0.9619563862991912 [Eh]
	 SCS Correlation Energy    =      -1.0391383896743556 [Eh]
	 SCS Total Energy          =    -555.3611926604378368 [Eh]
	-----------------------------------------------------------

  Dipole Moment: [D]
     X:     7.3109      Y:    -0.1445      Z:     0.3251     Total:     7.3195

*** Psi4 exiting successfully. Buy a developer a beer!
