                               Psi4 1.4a3.dev225

  ==> Input File <==

--------------------------------------------------------------------------
#psi4
#
memory 32 gb

molecule  {
-1 1
  S       -1.9908660    -0.0115680    -0.0914370
  C        0.8603249    -0.0253910    -0.4780748
  C       -0.3590580    -0.7033670     0.3385660
  C        0.9435650     1.4522290     0.1346180
  C        2.1425740    -0.7472220    -0.0583990
  H        0.6412340     0.0009810    -1.4036700
  H       -0.1836370    -0.6741640     1.4285240
  H       -0.3012000    -1.7665080     0.0540450
  H        1.1751250     1.4924670     1.2076710
  H        1.7349380     1.9924090    -0.4025300
  H       -0.0196830     1.9410400    -0.0272870
  H        2.3515230    -0.7796840     1.0184780
  H        2.9984690    -0.2652850    -0.5495640
  H        2.0837140    -1.7817520    -0.4169670
units angstrom
no_reorient  #important for SAPT in psi4, default
symmetry c1  #important for SAPT in psi4, default
}

set PROPERTIES_ORIGIN ["COM"]
properties('MP2/aug-cc-pvtz', properties = ['dipole'])
--------------------------------------------------------------------------

    Molecular point group: c1
  Charge       = -1
  Multiplicity = 1
  Basis Set: AUG-CC-PVTZ
    Blend: AUG-CC-PVTZ
  Basis Set: (AUG-CC-PVTZ AUX)
    Blend: AUG-CC-PVTZ-JKFIT

    Orbital Energies [Eh]
    ---------------------

    Doubly Occupied:

       1A    -91.667114     2A    -11.085620     3A    -11.067259
       4A    -11.064502     5A    -11.064444     6A     -8.667196
       7A     -6.348825     8A     -6.347172     9A     -6.347116
      10A     -0.924519    11A     -0.787386    12A     -0.768805
      13A     -0.659164    14A     -0.582936    15A     -0.468110
      16A     -0.443818    17A     -0.419811    18A     -0.400974
      19A     -0.379420    20A     -0.356732    21A     -0.320001
      22A     -0.279087    23A     -0.228969    24A     -0.091740
      25A     -0.090222

  @DF-RHF Final Energy:  -554.29205902970114

   => Energetics <=

    Nuclear Repulsion Energy =            221.1620790228705573
    One-Electron Energy =               -1209.1863976363740676
    Two-Electron Energy =                 433.7322595838023744
    Total Energy =                       -554.2920590297011358
  Basis Set: (AUG-CC-PVTZ AUX)
    Blend: AUG-CC-PVTZ-RI
    Molecular point group: c1

    Geometry (in Angstrom), charge = -1, multiplicity = 1:

       Center              X                  Y                   Z               Mass
    ------------   -----------------  -----------------  -----------------  -----------------
         S           -1.878102477726    -0.006018820507    -0.060360857989    31.972071174400
         C            0.973088422274    -0.019841820507    -0.446998657989    12.000000000000
         C           -0.246294477726    -0.697817820507     0.369642142011    12.000000000000
         C            1.056328522274     1.457778179493     0.165694142011    12.000000000000
         C            2.255337522274    -0.741672820507    -0.027322857989    12.000000000000
         H            0.753997522274     0.006530179493    -1.372593857989     1.007825032230
         H           -0.070873477726    -0.668614820507     1.459600142011     1.007825032230
         H           -0.188436477726    -1.760958820507     0.085121142011     1.007825032230
         H            1.287888522274     1.498016179493     1.238747142011     1.007825032230
         H            1.847701522274     1.997958179493    -0.371453857989     1.007825032230
         H            0.093080522274     1.946589179493     0.003789142011     1.007825032230
         H            2.464286522274    -0.774134820507     1.049554142011     1.007825032230
         H            3.111232522274    -0.259735820507    -0.518487857989     1.007825032230
         H            2.196477522274    -1.776202820507    -0.385890857989     1.007825032230

  Basis Set: AUG-CC-PVTZ
    Blend: AUG-CC-PVTZ
  Basis Set: (AUG-CC-PVTZ AUX)
    Blend: AUG-CC-PVTZ-JKFIT
	 Reference Energy          =    -554.2920590297011358 [Eh]
	 Singles Energy            =      -0.0000000000000000 [Eh]
	 Same-Spin Energy          =      -0.2313128145536521 [Eh]
	 Opposite-Spin Energy      =      -0.8024447060197389 [Eh]
	 Correlation Energy        =      -1.0337575205733911 [Eh]
	 Total Energy              =    -555.3258165502745669 [Eh]

	 ================> DF-SCS-MP2 Energies <==================
	-----------------------------------------------------------
	 SCS Same-Spin Scale       =       0.3333333333333333 [-]
	 SCS Opposite-Spin Scale   =       1.2000000000000000 [-]
	 SCS Same-Spin Energy      =      -0.0771042715178840 [Eh]
	 SCS Opposite-Spin Energy  =      -0.9629336472236867 [Eh]
	 SCS Correlation Energy    =      -1.0400379187415707 [Eh]
	 SCS Total Energy          =    -555.3320969484426541 [Eh]
	-----------------------------------------------------------

  Dipole Moment: [D]
     X:     7.3456      Y:    -0.2057      Z:     0.2400     Total:     7.3524

*** Psi4 exiting successfully. Buy a developer a beer!
