                               Psi4 1.4a3.dev225

  ==> Input File <==

--------------------------------------------------------------------------
#psi4
#
memory 32 gb

molecule  {
-1 1
  S       -1.9908660    -0.0115680    -0.0914370
  C        0.8351480     0.0026240    -0.3224040
  C       -0.3590580    -0.7033670     0.3385660
  C        0.9435650     1.4522290     0.1346180
  C        2.1425740    -0.7472220    -0.0583990
  H        0.6412340     0.0009810    -1.4036700
  H       -0.1836370    -0.6741640     1.4285240
  H       -0.3012000    -1.7665080     0.0540450
  H        1.1751250     1.4924670     1.2076710
  H        1.7349380     1.9924090    -0.4025300
  H       -0.0196830     1.9410400    -0.0272870
  H        2.3324833    -0.7767260     0.9203518
  H        2.9984690    -0.2652850    -0.5495640
  H        2.0837140    -1.7817520    -0.4169670
units angstrom
no_reorient  #important for SAPT in psi4, default
symmetry c1  #important for SAPT in psi4, default
}

set PROPERTIES_ORIGIN ["COM"]
properties('MP2/aug-cc-pvtz', properties = ['dipole'])
--------------------------------------------------------------------------

    Molecular point group: c1
  Charge       = -1
  Multiplicity = 1
  Basis Set: AUG-CC-PVTZ
    Blend: AUG-CC-PVTZ
  Basis Set: (AUG-CC-PVTZ AUX)
    Blend: AUG-CC-PVTZ-JKFIT

    Orbital Energies [Eh]
    ---------------------

    Doubly Occupied:

       1A    -91.667738     2A    -11.070974     3A    -11.069662
       4A    -11.062559     5A    -11.060685     6A     -8.667833
       7A     -6.349470     8A     -6.347778     9A     -6.347732
      10A     -0.935992    11A     -0.800425    12A     -0.779130
      13A     -0.641266    14A     -0.576717    15A     -0.480063
      16A     -0.448529    17A     -0.422557    18A     -0.410185
      19A     -0.375644    20A     -0.338158    21A     -0.313433
      22A     -0.306240    23A     -0.232118    24A     -0.093693
      25A     -0.091314

  @DF-RHF Final Energy:  -554.31613900390528

   => Energetics <=

    Nuclear Repulsion Energy =            222.8633837497039849
    One-Electron Energy =               -1212.5792568471899813
    Two-Electron Energy =                 435.3997340935807188
    Total Energy =                       -554.3161390039052776
  Basis Set: (AUG-CC-PVTZ AUX)
    Blend: AUG-CC-PVTZ-RI
    Molecular point group: c1

    Geometry (in Angstrom), charge = -1, multiplicity = 1:

       Center              X                  Y                   Z               Mass
    ------------   -----------------  -----------------  -----------------  -----------------
         S           -1.874493959333    -0.009827801161    -0.080229523284    31.972071174400
         C            0.951520040667     0.004364198839    -0.311196523284    12.000000000000
         C           -0.242685959333    -0.701626801161     0.349773476716    12.000000000000
         C            1.059937040667     1.453969198839     0.145825476716    12.000000000000
         C            2.258946040667    -0.745481801161    -0.047191523284    12.000000000000
         H            0.757606040667     0.002721198839    -1.392462523284     1.007825032230
         H           -0.067264959333    -0.672423801161     1.439731476716     1.007825032230
         H           -0.184827959333    -1.764767801161     0.065252476716     1.007825032230
         H            1.291497040667     1.494207198839     1.218878476716     1.007825032230
         H            1.851310040667     1.994149198839    -0.391322523284     1.007825032230
         H            0.096689040667     1.942780198839    -0.016079523284     1.007825032230
         H            2.448855340667    -0.774985801161     0.931559276716     1.007825032230
         H            3.114841040667    -0.263544801161    -0.538356523284     1.007825032230
         H            2.200086040667    -1.780011801161    -0.405759523284     1.007825032230

  Basis Set: AUG-CC-PVTZ
    Blend: AUG-CC-PVTZ
  Basis Set: (AUG-CC-PVTZ AUX)
    Blend: AUG-CC-PVTZ-JKFIT
	 Reference Energy          =    -554.3161390039052776 [Eh]
	 Singles Energy            =      -0.0000000000000000 [Eh]
	 Same-Spin Energy          =      -0.2315926524065963 [Eh]
	 Opposite-Spin Energy      =      -0.8012130999734296 [Eh]
	 Correlation Energy        =      -1.0328057523800258 [Eh]
	 Total Energy              =    -555.3489447562852774 [Eh]

	 ================> DF-SCS-MP2 Energies <==================
	-----------------------------------------------------------
	 SCS Same-Spin Scale       =       0.3333333333333333 [-]
	 SCS Opposite-Spin Scale   =       1.2000000000000000 [-]
	 SCS Same-Spin Energy      =      -0.0771975508021988 [Eh]
	 SCS Opposite-Spin Energy  =      -0.9614557199681155 [Eh]
	 SCS Correlation Energy    =      -1.0386532707703142 [Eh]
	 SCS Total Energy          =    -555.3547922746755603 [Eh]
	-----------------------------------------------------------

  Dipole Moment: [D]
     X:     7.3519      Y:    -0.1484      Z:     0.3828     Total:     7.3634

*** Psi4 exiting successfully. Buy a developer a beer!
