                               Psi4 1.4a3.dev225

  ==> Input File <==

--------------------------------------------------------------------------
#psi4
#
memory 32 gb

molecule  {
-1 1
  S       -1.9908660    -0.0115680    -0.0914370
  C        0.8263108     0.0167518    -0.2169098
  C       -0.3590580    -0.7033670     0.3385660
  C        0.9435650     1.4522290     0.1346180
  C        2.1425740    -0.7472220    -0.0583990
  H        0.6412340     0.0009810    -1.4036700
  H       -0.1836370    -0.6741640     1.4285240
  H       -0.3012000    -1.7665080     0.0540450
  H        1.1751250     1.4924670     1.2076710
  H        1.7349380     1.9924090    -0.4025300
  H       -0.0196830     1.9410400    -0.0272870
  H        2.3515230    -0.7796840     1.0184780
  H        2.9984690    -0.2652850    -0.5495640
  H        2.0837140    -1.7817520    -0.4169670
units angstrom
no_reorient  #important for SAPT in psi4, default
symmetry c1  #important for SAPT in psi4, default
}

set PROPERTIES_ORIGIN ["COM"]
properties('MP2/aug-cc-pvtz', properties = ['dipole'])
--------------------------------------------------------------------------

    Molecular point group: c1
  Charge       = -1
  Multiplicity = 1
  Basis Set: AUG-CC-PVTZ
    Blend: AUG-CC-PVTZ
  Basis Set: (AUG-CC-PVTZ AUX)
    Blend: AUG-CC-PVTZ-JKFIT

    Orbital Energies [Eh]
    ---------------------

    Doubly Occupied:

       1A    -91.669014     2A    -11.085619     3A    -11.077090
       4A    -11.063341     5A    -11.060451     6A     -8.669087
       7A     -6.350726     8A     -6.349004     9A     -6.348965
      10A     -0.942484    11A     -0.796553    12A     -0.787550
      13A     -0.634809    14A     -0.568893    15A     -0.481884
      16A     -0.452780    17A     -0.429174    18A     -0.397459
      19A     -0.374712    20A     -0.341374    21A     -0.335039
      22A     -0.273879    23A     -0.232898    24A     -0.095731
      25A     -0.092345

  @DF-RHF Final Energy:  -554.30905580089211

   => Energetics <=

    Nuclear Repulsion Energy =            223.1342655474750529
    One-Electron Energy =               -1213.0649200223460866
    Two-Electron Energy =                 435.6215986739789514
    Total Energy =                       -554.3090558008921107
  Basis Set: (AUG-CC-PVTZ AUX)
    Blend: AUG-CC-PVTZ-RI
    Molecular point group: c1

    Geometry (in Angstrom), charge = -1, multiplicity = 1:

       Center              X                  Y                   Z               Mass
    ------------   -----------------  -----------------  -----------------  -----------------
         S           -1.873518495737    -0.011698283910    -0.095557310519    31.972071174400
         C            0.943658304263     0.016621516090    -0.221030110519    12.000000000000
         C           -0.241710495737    -0.703497283910     0.334445689481    12.000000000000
         C            1.060912504263     1.452098716090     0.130497689481    12.000000000000
         C            2.259921504263    -0.747352283910    -0.062519310519    12.000000000000
         H            0.758581504263     0.000850716090    -1.407790310519     1.007825032230
         H           -0.066289495737    -0.674294283910     1.424403689481     1.007825032230
         H           -0.183852495737    -1.766638283910     0.049924689481     1.007825032230
         H            1.292472504263     1.492336716090     1.203550689481     1.007825032230
         H            1.852285504263     1.992278716090    -0.406650310519     1.007825032230
         H            0.097664504263     1.940909716090    -0.031407310519     1.007825032230
         H            2.468870504263    -0.779814283910     1.014357689481     1.007825032230
         H            3.115816504263    -0.265415283910    -0.553684310519     1.007825032230
         H            2.201061504263    -1.781882283910    -0.421087310519     1.007825032230

  Basis Set: AUG-CC-PVTZ
    Blend: AUG-CC-PVTZ
  Basis Set: (AUG-CC-PVTZ AUX)
    Blend: AUG-CC-PVTZ-JKFIT
	 Reference Energy          =    -554.3090558008921107 [Eh]
	 Singles Energy            =      -0.0000000000000000 [Eh]
	 Same-Spin Energy          =      -0.2324650178813417 [Eh]
	 Opposite-Spin Energy      =      -0.8030436432343676 [Eh]
	 Correlation Energy        =      -1.0355086611157094 [Eh]
	 Total Energy              =    -555.3445644620078383 [Eh]

	 ================> DF-SCS-MP2 Energies <==================
	-----------------------------------------------------------
	 SCS Same-Spin Scale       =       0.3333333333333333 [-]
	 SCS Opposite-Spin Scale   =       1.2000000000000000 [-]
	 SCS Same-Spin Energy      =      -0.0774883392937805 [Eh]
	 SCS Opposite-Spin Energy  =      -0.9636523718812411 [Eh]
	 SCS Correlation Energy    =      -1.0411407111750217 [Eh]
	 SCS Total Energy          =    -555.3501965120671002 [Eh]
	-----------------------------------------------------------

  Dipole Moment: [D]
     X:     7.2674      Y:    -0.0997      Z:     0.4141     Total:     7.2798

*** Psi4 exiting successfully. Buy a developer a beer!
