                               Psi4 1.4a3.dev225

  ==> Input File <==

--------------------------------------------------------------------------
#psi4
#
memory 32 gb

molecule  {
-1 1
  S       -1.9908660    -0.0115680    -0.0914370
  C        0.8351480     0.0026240    -0.3224040
  C       -0.3804505    -0.6113980     0.3894456
  C        0.9435650     1.4522290     0.1346180
  C        2.1425740    -0.7472220    -0.0583990
  H        0.6412340     0.0009810    -1.4036700
  H       -0.1836370    -0.6741640     1.4285240
  H       -0.3012000    -1.7665080     0.0540450
  H        1.1751250     1.4924670     1.2076710
  H        1.7349380     1.9924090    -0.4025300
  H       -0.0196830     1.9410400    -0.0272870
  H        2.3515230    -0.7796840     1.0184780
  H        2.9984690    -0.2652850    -0.5495640
  H        2.0837140    -1.7817520    -0.4169670
units angstrom
no_reorient  #important for SAPT in psi4, default
symmetry c1  #important for SAPT in psi4, default
}

set PROPERTIES_ORIGIN ["COM"]
properties('MP2/aug-cc-pvtz', properties = ['dipole'])
--------------------------------------------------------------------------

    Molecular point group: c1
  Charge       = -1
  Multiplicity = 1
  Basis Set: AUG-CC-PVTZ
    Blend: AUG-CC-PVTZ
  Basis Set: (AUG-CC-PVTZ AUX)
    Blend: AUG-CC-PVTZ-JKFIT

    Orbital Energies [Eh]
    ---------------------

    Doubly Occupied:

       1A    -91.668064     2A    -11.084788     3A    -11.071337
       4A    -11.065260     5A    -11.061622     6A     -8.668837
       7A     -6.350592     8A     -6.348781     9A     -6.348731
      10A     -0.934917    11A     -0.795974    12A     -0.778121
      13A     -0.641643    14A     -0.578996    15A     -0.470279
      16A     -0.447927    17A     -0.424856    18A     -0.397707
      19A     -0.373073    20A     -0.338090    21A     -0.314148
      22A     -0.293070    23A     -0.243725    24A     -0.095740
      25A     -0.089636

  @DF-RHF Final Energy:  -554.31120533014007

   => Energetics <=

    Nuclear Repulsion Energy =            223.0343602251714969
    One-Electron Energy =               -1212.9193027050771434
    Two-Electron Energy =                 435.5737371497656341
    Total Energy =                       -554.3112053301400692
  Basis Set: (AUG-CC-PVTZ AUX)
    Blend: AUG-CC-PVTZ-RI
    Molecular point group: c1

    Geometry (in Angstrom), charge = -1, multiplicity = 1:

       Center              X                  Y                   Z               Mass
    ------------   -----------------  -----------------  -----------------  -----------------
         S           -1.871826454229    -0.022188717547    -0.088197058661    31.972071174400
         C            0.954187545771    -0.007996717547    -0.319164058661    12.000000000000
         C           -0.261410954229    -0.622018717547     0.392685541339    12.000000000000
         C            1.062604545771     1.441608282453     0.137857941339    12.000000000000
         C            2.261613545771    -0.757842717547    -0.055159058661    12.000000000000
         H            0.760273545771    -0.009639717547    -1.400430058661     1.007825032230
         H           -0.064597454229    -0.684784717547     1.431763941339     1.007825032230
         H           -0.182160454229    -1.777128717547     0.057284941339     1.007825032230
         H            1.294164545771     1.481846282453     1.210910941339     1.007825032230
         H            1.853977545771     1.981788282453    -0.399290058661     1.007825032230
         H            0.099356545771     1.930419282453    -0.024047058661     1.007825032230
         H            2.470562545771    -0.790304717547     1.021717941339     1.007825032230
         H            3.117508545771    -0.275905717547    -0.546324058661     1.007825032230
         H            2.202753545771    -1.792372717547    -0.413727058661     1.007825032230

  Basis Set: AUG-CC-PVTZ
    Blend: AUG-CC-PVTZ
  Basis Set: (AUG-CC-PVTZ AUX)
    Blend: AUG-CC-PVTZ-JKFIT
	 Reference Energy          =    -554.3112053301400692 [Eh]
	 Singles Energy            =      -0.0000000000000000 [Eh]
	 Same-Spin Energy          =      -0.2321738669355869 [Eh]
	 Opposite-Spin Energy      =      -0.8026015151698720 [Eh]
	 Correlation Energy        =      -1.0347753821054588 [Eh]
	 Total Energy              =    -555.3459807122454777 [Eh]

	 ================> DF-SCS-MP2 Energies <==================
	-----------------------------------------------------------
	 SCS Same-Spin Scale       =       0.3333333333333333 [-]
	 SCS Opposite-Spin Scale   =       1.2000000000000000 [-]
	 SCS Same-Spin Energy      =      -0.0773912889785290 [Eh]
	 SCS Opposite-Spin Energy  =      -0.9631218182038463 [Eh]
	 SCS Correlation Energy    =      -1.0405131071823752 [Eh]
	 SCS Total Energy          =    -555.3517184373224609 [Eh]
	-----------------------------------------------------------

  Dipole Moment: [D]
     X:     7.1778      Y:    -0.0257      Z:     0.3330     Total:     7.1856

*** Psi4 exiting successfully. Buy a developer a beer!
