                               Psi4 1.4a3.dev225

  ==> Input File <==

--------------------------------------------------------------------------
#psi4
#
memory 32 gb

molecule  {
-1 1
  S       -1.9908660    -0.0115680    -0.0914370
  C        0.8351480     0.0026240    -0.3224040
  C       -0.3590580    -0.7033670     0.3385660
  C        0.9435650     1.4522290     0.1346180
  C        2.1425740    -0.7472220    -0.0583990
  H        0.6412340     0.0009810    -1.4036700
  H       -0.1836370    -0.6741640     1.4285240
  H       -0.3012000    -1.7665080     0.0540450
  H        1.2403976     1.4553162     1.1922393
  H        1.7349380     1.9924090    -0.4025300
  H       -0.0196830     1.9410400    -0.0272870
  H        2.3515230    -0.7796840     1.0184780
  H        2.9984690    -0.2652850    -0.5495640
  H        2.0837140    -1.7817520    -0.4169670
units angstrom
no_reorient  #important for SAPT in psi4, default
symmetry c1  #important for SAPT in psi4, default
}

set PROPERTIES_ORIGIN ["COM"]
properties('MP2/aug-cc-pvtz', properties = ['dipole'])
--------------------------------------------------------------------------

    Molecular point group: c1
  Charge       = -1
  Multiplicity = 1
  Basis Set: AUG-CC-PVTZ
    Blend: AUG-CC-PVTZ
  Basis Set: (AUG-CC-PVTZ AUX)
    Blend: AUG-CC-PVTZ-JKFIT

    Orbital Energies [Eh]
    ---------------------

    Doubly Occupied:

       1A    -91.667966     2A    -11.084374     3A    -11.070691
       4A    -11.063110     5A    -11.060900     6A     -8.668065
       7A     -6.349702     8A     -6.348012     9A     -6.347965
      10A     -0.934479    11A     -0.792299    12A     -0.779627
      13A     -0.638063    14A     -0.575885    15A     -0.477322
      16A     -0.448009    17A     -0.425444    18A     -0.396866
      19A     -0.374230    20A     -0.341280    21A     -0.313646
      22A     -0.304557    23A     -0.232591    24A     -0.094056
      25A     -0.091538

  @DF-RHF Final Energy:  -554.32151978925287

   => Energetics <=

    Nuclear Repulsion Energy =            222.4591229073864440
    One-Electron Energy =               -1211.7999330187114992
    Two-Electron Energy =                 435.0192903220720950
    Total Energy =                       -554.3215197892529886
  Basis Set: (AUG-CC-PVTZ AUX)
    Blend: AUG-CC-PVTZ-RI
    Molecular point group: c1

    Geometry (in Angstrom), charge = -1, multiplicity = 1:

       Center              X                  Y                   Z               Mass
    ------------   -----------------  -----------------  -----------------  -----------------
         S           -1.875448245767    -0.009373830818    -0.081165498694    31.972071174400
         C            0.950565754233     0.004818169182    -0.312132498694    12.000000000000
         C           -0.243640245767    -0.701172830818     0.348837501306    12.000000000000
         C            1.058982754233     1.454423169182     0.144889501306    12.000000000000
         C            2.257991754233    -0.745027830818    -0.048127498694    12.000000000000
         H            0.756651754233     0.003175169182    -1.393398498694     1.007825032230
         H           -0.068219245767    -0.671969830818     1.438795501306     1.007825032230
         H           -0.185782245767    -1.764313830818     0.064316501306     1.007825032230
         H            1.355815354233     1.457510369182     1.202510801306     1.007825032230
         H            1.850355754233     1.994603169182    -0.392258498694     1.007825032230
         H            0.095734754233     1.943234169182    -0.017015498694     1.007825032230
         H            2.466940754233    -0.777489830818     1.028749501306     1.007825032230
         H            3.113886754233    -0.263090830818    -0.539292498694     1.007825032230
         H            2.199131754233    -1.779557830818    -0.406695498694     1.007825032230

  Basis Set: AUG-CC-PVTZ
    Blend: AUG-CC-PVTZ
  Basis Set: (AUG-CC-PVTZ AUX)
    Blend: AUG-CC-PVTZ-JKFIT
	 Reference Energy          =    -554.3215197892528749 [Eh]
	 Singles Energy            =      -0.0000000000000000 [Eh]
	 Same-Spin Energy          =      -0.2316266970019679 [Eh]
	 Opposite-Spin Energy      =      -0.8017501959749953 [Eh]
	 Correlation Energy        =      -1.0333768929769631 [Eh]
	 Total Energy              =    -555.3548966822298780 [Eh]

	 ================> DF-SCS-MP2 Energies <==================
	-----------------------------------------------------------
	 SCS Same-Spin Scale       =       0.3333333333333333 [-]
	 SCS Opposite-Spin Scale   =       1.2000000000000000 [-]
	 SCS Same-Spin Energy      =      -0.0772088990006560 [Eh]
	 SCS Opposite-Spin Energy  =      -0.9621002351699943 [Eh]
	 SCS Correlation Energy    =      -1.0393091341706502 [Eh]
	 SCS Total Energy          =    -555.3608289234234690 [Eh]
	-----------------------------------------------------------

  Dipole Moment: [D]
     X:     7.3269      Y:    -0.1493      Z:     0.3127     Total:     7.3351

*** Psi4 exiting successfully. Buy a developer a beer!
