                               Psi4 1.4a3.dev225

  ==> Input File <==

--------------------------------------------------------------------------
#psi4
#
memory 32 gb

molecule  {
-1 1
  S       -1.9908660    -0.0115680    -0.0914370
  C        0.8351480     0.0026240    -0.3224040
  C       -0.3143218    -0.7223328     0.3503546
  C        0.9435650     1.4522290     0.1346180
  C        2.1425740    -0.7472220    -0.0583990
  H        0.6412340     0.0009810    -1.4036700
  H       -0.1836370    -0.6741640     1.4285240
  H       -0.3012000    -1.7665080     0.0540450
  H        1.1751250     1.4924670     1.2076710
  H        1.7349380     1.9924090    -0.4025300
  H       -0.0196830     1.9410400    -0.0272870
  H        2.3515230    -0.7796840     1.0184780
  H        2.9984690    -0.2652850    -0.5495640
  H        2.0837140    -1.7817520    -0.4169670
units angstrom
no_reorient  #important for SAPT in psi4, default
symmetry c1  #important for SAPT in psi4, default
}

set PROPERTIES_ORIGIN ["COM"]
properties('MP2/aug-cc-pvtz', properties = ['dipole'])
--------------------------------------------------------------------------

    Molecular point group: c1
  Charge       = -1
  Multiplicity = 1
  Basis Set: AUG-CC-PVTZ
    Blend: AUG-CC-PVTZ
  Basis Set: (AUG-CC-PVTZ AUX)
    Blend: AUG-CC-PVTZ-JKFIT

    Orbital Energies [Eh]
    ---------------------

    Doubly Occupied:

       1A    -91.668682     2A    -11.083993     3A    -11.071241
       4A    -11.063581     5A    -11.058328     6A     -8.668010
       7A     -6.349518     8A     -6.347921     9A     -6.347880
      10A     -0.937083    11A     -0.791309    12A     -0.778579
      13A     -0.635987    14A     -0.578146    15A     -0.479250
      16A     -0.449669    17A     -0.425065    18A     -0.398827
      19A     -0.380103    20A     -0.339456    21A     -0.318962
      22A     -0.311020    23A     -0.219496    24A     -0.093563
      25A     -0.091366

  @DF-RHF Final Energy:  -554.32144032464737

   => Energetics <=

    Nuclear Repulsion Energy =            222.1382722374394803
    One-Electron Energy =               -1211.1453540270244957
    Two-Electron Energy =                 434.6856414649377029
    Total Energy =                       -554.3214403246473694
  Basis Set: (AUG-CC-PVTZ AUX)
    Blend: AUG-CC-PVTZ-RI
    Molecular point group: c1

    Geometry (in Angstrom), charge = -1, multiplicity = 1:

       Center              X                  Y                   Z               Mass
    ------------   -----------------  -----------------  -----------------  -----------------
         S           -1.880738428079    -0.007238355047    -0.082928877527    31.972071174400
         C            0.945275571921     0.006953644953    -0.313895877527    12.000000000000
         C           -0.204194228079    -0.718003155047     0.358862722473    12.000000000000
         C            1.053692571921     1.456558644953     0.143126122473    12.000000000000
         C            2.252701571921    -0.742892355047    -0.049890877527    12.000000000000
         H            0.751361571921     0.005310644953    -1.395161877527     1.007825032230
         H           -0.073509428079    -0.669834355047     1.437032122473     1.007825032230
         H           -0.191072428079    -1.762178355047     0.062553122473     1.007825032230
         H            1.285252571921     1.496796644953     1.216179122473     1.007825032230
         H            1.845065571921     1.996738644953    -0.394021877527     1.007825032230
         H            0.090444571921     1.945369644953    -0.018778877527     1.007825032230
         H            2.461650571921    -0.775354355047     1.026986122473     1.007825032230
         H            3.108596571921    -0.260955355047    -0.541055877527     1.007825032230
         H            2.193841571921    -1.777422355047    -0.408458877527     1.007825032230

  Basis Set: AUG-CC-PVTZ
    Blend: AUG-CC-PVTZ
  Basis Set: (AUG-CC-PVTZ AUX)
    Blend: AUG-CC-PVTZ-JKFIT
	 Reference Energy          =    -554.3214403246473694 [Eh]
	 Singles Energy            =      -0.0000000000000000 [Eh]
	 Same-Spin Energy          =      -0.2313333353176742 [Eh]
	 Opposite-Spin Energy      =      -0.8015899988909291 [Eh]
	 Correlation Energy        =      -1.0329233342086033 [Eh]
	 Total Energy              =    -555.3543636588559593 [Eh]

	 ================> DF-SCS-MP2 Energies <==================
	-----------------------------------------------------------
	 SCS Same-Spin Scale       =       0.3333333333333333 [-]
	 SCS Opposite-Spin Scale   =       1.2000000000000000 [-]
	 SCS Same-Spin Energy      =      -0.0771111117725581 [Eh]
	 SCS Opposite-Spin Energy  =      -0.9619079986691148 [Eh]
	 SCS Correlation Energy    =      -1.0390191104416728 [Eh]
	 SCS Total Energy          =    -555.3604594350890693 [Eh]
	-----------------------------------------------------------

  Dipole Moment: [D]
     X:     7.4512      Y:    -0.1558      Z:     0.3405     Total:     7.4606

*** Psi4 exiting successfully. Buy a developer a beer!
