                               Psi4 1.4a3.dev225

  ==> Input File <==

--------------------------------------------------------------------------
#psi4
#
memory 32 gb

molecule  {
-1 1
  S       -1.9908660    -0.0115680    -0.0914370
  C        0.8351480     0.0026240    -0.3224040
  C       -0.3590580    -0.7033670     0.3385660
  C        0.9435650     1.4522290     0.1346180
  C        2.1425740    -0.7472220    -0.0583990
  H        0.6412340     0.0009810    -1.4036700
  H       -0.1836370    -0.6741640     1.4285240
  H       -0.3012000    -1.7665080     0.0540450
  H        1.1751250     1.4924670     1.2076710
  H        1.7349380     1.9924090    -0.4025300
  H       -0.0196830     1.9410400    -0.0272870
  H        2.3498911    -0.6648483     1.0161296
  H        2.9984690    -0.2652850    -0.5495640
  H        2.0837140    -1.7817520    -0.4169670
units angstrom
no_reorient  #important for SAPT in psi4, default
symmetry c1  #important for SAPT in psi4, default
}

set PROPERTIES_ORIGIN ["COM"]
properties('MP2/aug-cc-pvtz', properties = ['dipole'])
--------------------------------------------------------------------------

    Molecular point group: c1
  Charge       = -1
  Multiplicity = 1
  Basis Set: AUG-CC-PVTZ
    Blend: AUG-CC-PVTZ
  Basis Set: (AUG-CC-PVTZ AUX)
    Blend: AUG-CC-PVTZ-JKFIT

    Orbital Energies [Eh]
    ---------------------

    Doubly Occupied:

       1A    -91.667883     2A    -11.084251     3A    -11.070453
       4A    -11.063005     5A    -11.060865     6A     -8.667981
       7A     -6.349619     8A     -6.347926     9A     -6.347881
      10A     -0.934668    11A     -0.792107    12A     -0.779391
      13A     -0.637717    14A     -0.575657    15A     -0.481035
      16A     -0.445944    17A     -0.423901    18A     -0.396549
      19A     -0.377146    20A     -0.337634    21A     -0.314496
      22A     -0.304691    23A     -0.232493    24A     -0.093883
      25A     -0.091467

  @DF-RHF Final Energy:  -554.32075364104912

   => Energetics <=

    Nuclear Repulsion Energy =            222.5187737480486589
    One-Electron Energy =               -1211.9217739591751979
    Two-Electron Energy =                 435.0822465700774160
    Total Energy =                       -554.3207536410491230
  Basis Set: (AUG-CC-PVTZ AUX)
    Blend: AUG-CC-PVTZ-RI
    Molecular point group: c1

    Geometry (in Angstrom), charge = -1, multiplicity = 1:

       Center              X                  Y                   Z               Mass
    ------------   -----------------  -----------------  -----------------  -----------------
         S           -1.874690989035    -0.011094085813    -0.081313581663    31.972071174400
         C            0.951323010965     0.003097914187    -0.312280581663    12.000000000000
         C           -0.242882989035    -0.702893085813     0.348689418337    12.000000000000
         C            1.059740010965     1.452702914187     0.144741418337    12.000000000000
         C            2.258749010965    -0.746748085813    -0.048275581663    12.000000000000
         H            0.757409010965     0.001454914187    -1.393546581663     1.007825032230
         H           -0.067461989035    -0.673690085813     1.438647418337     1.007825032230
         H           -0.185024989035    -1.766034085813     0.064168418337     1.007825032230
         H            1.291300010965     1.492940914187     1.217794418337     1.007825032230
         H            1.851113010965     1.992882914187    -0.392406581663     1.007825032230
         H            0.096492010965     1.941513914187    -0.017163581663     1.007825032230
         H            2.466066110965    -0.664374385813     1.026253018337     1.007825032230
         H            3.114644010965    -0.264811085813    -0.539440581663     1.007825032230
         H            2.199889010965    -1.781278085813    -0.406843581663     1.007825032230

  Basis Set: AUG-CC-PVTZ
    Blend: AUG-CC-PVTZ
  Basis Set: (AUG-CC-PVTZ AUX)
    Blend: AUG-CC-PVTZ-JKFIT
	 Reference Energy          =    -554.3207536410491230 [Eh]
	 Singles Energy            =      -0.0000000000000000 [Eh]
	 Same-Spin Energy          =      -0.2317017806322242 [Eh]
	 Opposite-Spin Energy      =      -0.8018441018623002 [Eh]
	 Correlation Energy        =      -1.0335458824945243 [Eh]
	 Total Energy              =    -555.3542995235436592 [Eh]

	 ================> DF-SCS-MP2 Energies <==================
	-----------------------------------------------------------
	 SCS Same-Spin Scale       =       0.3333333333333333 [-]
	 SCS Opposite-Spin Scale   =       1.2000000000000000 [-]
	 SCS Same-Spin Energy      =      -0.0772339268774081 [Eh]
	 SCS Opposite-Spin Energy  =      -0.9622129222347602 [Eh]
	 SCS Correlation Energy    =      -1.0394468491121682 [Eh]
	 SCS Total Energy          =    -555.3602004901613327 [Eh]
	-----------------------------------------------------------

  Dipole Moment: [D]
     X:     7.3110      Y:    -0.1076      Z:     0.3020     Total:     7.3180

*** Psi4 exiting successfully. Buy a developer a beer!
