                               Psi4 1.4a3.dev225

  ==> Input File <==

--------------------------------------------------------------------------
#psi4
#
memory 32 gb

molecule  {
-1 1
  S       -1.9908660    -0.0115680    -0.0914370
  C        0.8351480     0.0026240    -0.3224040
  C       -0.3590580    -0.7033670     0.3385660
  C        0.9435650     1.4522290     0.1346180
  C        2.1425740    -0.7472220    -0.0583990
  H        0.6412340     0.0009810    -1.4036700
  H       -0.1836370    -0.6741640     1.4285240
  H       -0.3012000    -1.7665080     0.0540450
  H        1.2686319     1.5529547     1.1790641
  H        1.7349380     1.9924090    -0.4025300
  H       -0.0196830     1.9410400    -0.0272870
  H        2.3515230    -0.7796840     1.0184780
  H        2.9984690    -0.2652850    -0.5495640
  H        2.0837140    -1.7817520    -0.4169670
units angstrom
no_reorient  #important for SAPT in psi4, default
symmetry c1  #important for SAPT in psi4, default
}

set PROPERTIES_ORIGIN ["COM"]
properties('MP2/aug-cc-pvtz', properties = ['dipole'])
--------------------------------------------------------------------------

    Molecular point group: c1
  Charge       = -1
  Multiplicity = 1
  Basis Set: AUG-CC-PVTZ
    Blend: AUG-CC-PVTZ
  Basis Set: (AUG-CC-PVTZ AUX)
    Blend: AUG-CC-PVTZ-JKFIT

    Orbital Energies [Eh]
    ---------------------

    Doubly Occupied:

       1A    -91.667914     2A    -11.084382     3A    -11.071877
       4A    -11.063126     5A    -11.060843     6A     -8.668017
       7A     -6.349655     8A     -6.347964     9A     -6.347917
      10A     -0.933931    11A     -0.792314    12A     -0.780178
      13A     -0.639469    14A     -0.576285    15A     -0.475121
      16A     -0.448090    17A     -0.427413    18A     -0.394090
      19A     -0.373898    20A     -0.341295    21A     -0.315334
      22A     -0.304405    23A     -0.232550    24A     -0.094018
      25A     -0.091495

  @DF-RHF Final Energy:  -554.32102867201979

   => Energetics <=

    Nuclear Repulsion Energy =            222.3060495631386289
    One-Electron Energy =               -1211.4909972531827407
    Two-Electron Energy =                 434.8639190180242622
    Total Energy =                       -554.3210286720197928
  Basis Set: (AUG-CC-PVTZ AUX)
    Blend: AUG-CC-PVTZ-RI
    Molecular point group: c1

    Geometry (in Angstrom), charge = -1, multiplicity = 1:

       Center              X                  Y                   Z               Mass
    ------------   -----------------  -----------------  -----------------  -----------------
         S           -1.875767814910    -0.010478949479    -0.081016375557    31.972071174400
         C            0.950246185090     0.003713050521    -0.311983375557    12.000000000000
         C           -0.243959814910    -0.702277949479     0.348986624443    12.000000000000
         C            1.058663185090     1.453318050521     0.145038624443    12.000000000000
         C            2.257672185090    -0.746132949479    -0.047978375557    12.000000000000
         H            0.756332185090     0.002070050521    -1.393249375557     1.007825032230
         H           -0.068538814910    -0.673074949479     1.438944624443     1.007825032230
         H           -0.186101814910    -1.765418949479     0.064465624443     1.007825032230
         H            1.383730085090     1.554043750521     1.189484724443     1.007825032230
         H            1.850036185090     1.993498050521    -0.392109375557     1.007825032230
         H            0.095415185090     1.942129050521    -0.016866375557     1.007825032230
         H            2.466621185090    -0.778594949479     1.028898624443     1.007825032230
         H            3.113567185090    -0.264195949479    -0.539143375557     1.007825032230
         H            2.198812185090    -1.780662949479    -0.406546375557     1.007825032230

  Basis Set: AUG-CC-PVTZ
    Blend: AUG-CC-PVTZ
  Basis Set: (AUG-CC-PVTZ AUX)
    Blend: AUG-CC-PVTZ-JKFIT
	 Reference Energy          =    -554.3210286720197928 [Eh]
	 Singles Energy            =      -0.0000000000000000 [Eh]
	 Same-Spin Energy          =      -0.2315180642351349 [Eh]
	 Opposite-Spin Energy      =      -0.8016068308720361 [Eh]
	 Correlation Energy        =      -1.0331248951071710 [Eh]
	 Total Energy              =    -555.3541535671270140 [Eh]

	 ================> DF-SCS-MP2 Energies <==================
	-----------------------------------------------------------
	 SCS Same-Spin Scale       =       0.3333333333333333 [-]
	 SCS Opposite-Spin Scale   =       1.2000000000000000 [-]
	 SCS Same-Spin Energy      =      -0.0771726880783783 [Eh]
	 SCS Opposite-Spin Energy  =      -0.9619281970464433 [Eh]
	 SCS Correlation Energy    =      -1.0391008851248216 [Eh]
	 SCS Total Energy          =    -555.3601295571446599 [Eh]
	-----------------------------------------------------------

  Dipole Moment: [D]
     X:     7.3408      Y:    -0.1312      Z:     0.3324     Total:     7.3495

*** Psi4 exiting successfully. Buy a developer a beer!
