                               Psi4 1.4a3.dev225

  ==> Input File <==

--------------------------------------------------------------------------
#psi4
#
memory 32 gb

molecule  {
-1 1
  S       -1.9908660    -0.0115680    -0.0914370
  C        0.8351480     0.0026240    -0.3224040
  C       -0.3590580    -0.7033670     0.3385660
  C        0.9293352     1.2619676     0.0746336
  C        2.1425740    -0.7472220    -0.0583990
  H        0.6412340     0.0009810    -1.4036700
  H       -0.1836370    -0.6741640     1.4285240
  H       -0.3012000    -1.7665080     0.0540450
  H        1.1751250     1.4924670     1.2076710
  H        1.7349380     1.9924090    -0.4025300
  H       -0.0196830     1.9410400    -0.0272870
  H        2.3515230    -0.7796840     1.0184780
  H        2.9984690    -0.2652850    -0.5495640
  H        2.0837140    -1.7817520    -0.4169670
units angstrom
no_reorient  #important for SAPT in psi4, default
symmetry c1  #important for SAPT in psi4, default
}

set PROPERTIES_ORIGIN ["COM"]
properties('MP2/aug-cc-pvtz', properties = ['dipole'])
--------------------------------------------------------------------------

    Molecular point group: c1
  Charge       = -1
  Multiplicity = 1
  Basis Set: AUG-CC-PVTZ
    Blend: AUG-CC-PVTZ
  Basis Set: (AUG-CC-PVTZ AUX)
    Blend: AUG-CC-PVTZ-JKFIT

    Orbital Energies [Eh]
    ---------------------

    Doubly Occupied:

       1A    -91.668800     2A    -11.085732     3A    -11.076966
       4A    -11.063297     5A    -11.059824     6A     -8.668906
       7A     -6.350540     8A     -6.348840     9A     -6.348788
      10A     -0.970077    11A     -0.796600    12A     -0.780281
      13A     -0.636118    14A     -0.581638    15A     -0.494270
      16A     -0.450632    17A     -0.430491    18A     -0.393217
      19A     -0.373524    20A     -0.348572    21A     -0.300483
      22A     -0.284132    23A     -0.233377    24A     -0.095046
      25A     -0.092029

  @DF-RHF Final Energy:  -554.27269777959975

   => Energetics <=

    Nuclear Repulsion Energy =            225.5973832131390111
    One-Electron Energy =               -1217.8758045062945712
    Two-Electron Energy =                 438.0057235135557789
    Total Energy =                       -554.2726977795998664
  Basis Set: (AUG-CC-PVTZ AUX)
    Blend: AUG-CC-PVTZ-RI
    Molecular point group: c1

    Geometry (in Angstrom), charge = -1, multiplicity = 1:

       Center              X                  Y                   Z               Mass
    ------------   -----------------  -----------------  -----------------  -----------------
         S           -1.872791750615     0.015846658083    -0.073256237673    31.972071174400
         C            0.953222249385     0.030038658083    -0.304223237673    12.000000000000
         C           -0.240983750615    -0.675952341917     0.356746762327    12.000000000000
         C            1.047409449385     1.289382258083     0.092814362327    12.000000000000
         C            2.260648249385    -0.719807341917    -0.040218237673    12.000000000000
         H            0.759308249385     0.028395658083    -1.385489237673     1.007825032230
         H           -0.065562750615    -0.646749341917     1.446704762327     1.007825032230
         H           -0.183125750615    -1.739093341917     0.072225762327     1.007825032230
         H            1.293199249385     1.519881658083     1.225851762327     1.007825032230
         H            1.853012249385     2.019823658083    -0.384349237673     1.007825032230
         H            0.098391249385     1.968454658083    -0.009106237673     1.007825032230
         H            2.469597249385    -0.752269341917     1.036658762327     1.007825032230
         H            3.116543249385    -0.237870341917    -0.531383237673     1.007825032230
         H            2.201788249385    -1.754337341917    -0.398786237673     1.007825032230

  Basis Set: AUG-CC-PVTZ
    Blend: AUG-CC-PVTZ
  Basis Set: (AUG-CC-PVTZ AUX)
    Blend: AUG-CC-PVTZ-JKFIT
	 Reference Energy          =    -554.2726977795997527 [Eh]
	 Singles Energy            =      -0.0000000000000000 [Eh]
	 Same-Spin Energy          =      -0.2348047889676295 [Eh]
	 Opposite-Spin Energy      =      -0.8058884677259233 [Eh]
	 Correlation Energy        =      -1.0406932566935527 [Eh]
	 Total Energy              =    -555.3133910362932966 [Eh]

	 ================> DF-SCS-MP2 Energies <==================
	-----------------------------------------------------------
	 SCS Same-Spin Scale       =       0.3333333333333333 [-]
	 SCS Opposite-Spin Scale   =       1.2000000000000000 [-]
	 SCS Same-Spin Energy      =      -0.0782682629892098 [Eh]
	 SCS Opposite-Spin Energy  =      -0.9670661612711079 [Eh]
	 SCS Correlation Energy    =      -1.0453344242603178 [Eh]
	 SCS Total Energy          =    -555.3180322038600707 [Eh]
	-----------------------------------------------------------

  Dipole Moment: [D]
     X:     7.1594      Y:    -0.3178      Z:     0.2398     Total:     7.1705

*** Psi4 exiting successfully. Buy a developer a beer!
