                               Psi4 1.4a3.dev225

  ==> Input File <==

--------------------------------------------------------------------------
#psi4
#
memory 32 gb

molecule  {
-1 1
  S       -1.9908660    -0.0115680    -0.0914370
  C        0.8351480     0.0026240    -0.3224040
  C       -0.3590580    -0.7033670     0.3385660
  C        0.9435650     1.4522290     0.1346180
  C        2.1425740    -0.7472220    -0.0583990
  H        0.6412340     0.0009810    -1.4036700
  H       -0.1836370    -0.6741640     1.4285240
  H       -0.3012000    -1.7665080     0.0540450
  H        1.1751250     1.4924670     1.2076710
  H        1.7349380     1.9924090    -0.4025300
  H       -0.0196830     1.9410400    -0.0272870
  H        2.3420032    -0.7782050     0.9694149
  H        2.9984690    -0.2652850    -0.5495640
  H        2.0837140    -1.7817520    -0.4169670
units angstrom
no_reorient  #important for SAPT in psi4, default
symmetry c1  #important for SAPT in psi4, default
}

set PROPERTIES_ORIGIN ["COM"]
properties('MP2/aug-cc-pvtz', properties = ['dipole'])
--------------------------------------------------------------------------

    Molecular point group: c1
  Charge       = -1
  Multiplicity = 1
  Basis Set: AUG-CC-PVTZ
    Blend: AUG-CC-PVTZ
  Basis Set: (AUG-CC-PVTZ AUX)
    Blend: AUG-CC-PVTZ-JKFIT

    Orbital Energies [Eh]
    ---------------------

    Doubly Occupied:

       1A    -91.667817     2A    -11.077598     3A    -11.070352
       4A    -11.062660     5A    -11.060793     6A     -8.667914
       7A     -6.349551     8A     -6.347859     9A     -6.347813
      10A     -0.934877    11A     -0.796046    12A     -0.779236
      13A     -0.639708    14A     -0.576401    15A     -0.477900
      16A     -0.448208    17A     -0.423068    18A     -0.404316
      19A     -0.375601    20A     -0.338523    21A     -0.313681
      22A     -0.306139    23A     -0.232318    24A     -0.093803
      25A     -0.091396

  @DF-RHF Final Energy:  -554.32112953054991

   => Energetics <=

    Nuclear Repulsion Energy =            222.6394688941703066
    One-Electron Energy =               -1212.1540385746548054
    Two-Electron Energy =                 435.1934401499345881
    Total Energy =                       -554.3211295305500244
  Basis Set: (AUG-CC-PVTZ AUX)
    Blend: AUG-CC-PVTZ-RI
    Molecular point group: c1

    Geometry (in Angstrom), charge = -1, multiplicity = 1:

       Center              X                  Y                   Z               Mass
    ------------   -----------------  -----------------  -----------------  -----------------
         S           -1.874601710057    -0.009811061141    -0.080784842624    31.972071174400
         C            0.951412289943     0.004380938859    -0.311751842624    12.000000000000
         C           -0.242793710057    -0.701610061141     0.349218157376    12.000000000000
         C            1.059829289943     1.453985938859     0.145270157376    12.000000000000
         C            2.258838289943    -0.745465061141    -0.047746842624    12.000000000000
         H            0.757498289943     0.002737938859    -1.393017842624     1.007825032230
         H           -0.067372710057    -0.672407061141     1.439176157376     1.007825032230
         H           -0.184935710057    -1.764751061141     0.064697157376     1.007825032230
         H            1.291389289943     1.494223938859     1.218323157376     1.007825032230
         H            1.851202289943     1.994165938859    -0.391877842624     1.007825032230
         H            0.096581289943     1.942796938859    -0.016634842624     1.007825032230
         H            2.458267489943    -0.776448061141     0.980067057376     1.007825032230
         H            3.114733289943    -0.263528061141    -0.538911842624     1.007825032230
         H            2.199978289943    -1.779995061141    -0.406314842624     1.007825032230

  Basis Set: AUG-CC-PVTZ
    Blend: AUG-CC-PVTZ
  Basis Set: (AUG-CC-PVTZ AUX)
    Blend: AUG-CC-PVTZ-JKFIT
	 Reference Energy          =    -554.3211295305499107 [Eh]
	 Singles Energy            =      -0.0000000000000000 [Eh]
	 Same-Spin Energy          =      -0.2315747409832376 [Eh]
	 Opposite-Spin Energy      =      -0.8013987058639416 [Eh]
	 Correlation Energy        =      -1.0329734468471792 [Eh]
	 Total Energy              =    -555.3541029773971331 [Eh]

	 ================> DF-SCS-MP2 Energies <==================
	-----------------------------------------------------------
	 SCS Same-Spin Scale       =       0.3333333333333333 [-]
	 SCS Opposite-Spin Scale   =       1.2000000000000000 [-]
	 SCS Same-Spin Energy      =      -0.0771915803277459 [Eh]
	 SCS Opposite-Spin Energy  =      -0.9616784470367299 [Eh]
	 SCS Correlation Energy    =      -1.0388700273644758 [Eh]
	 SCS Total Energy          =    -555.3599995579144206 [Eh]
	-----------------------------------------------------------

  Dipole Moment: [D]
     X:     7.3329      Y:    -0.1420      Z:     0.3538     Total:     7.3428

*** Psi4 exiting successfully. Buy a developer a beer!
