                               Psi4 1.4a3.dev225

  ==> Input File <==

--------------------------------------------------------------------------
#psi4
#
memory 32 gb

molecule  {
-1 1
  S       -1.9908660    -0.0115680    -0.0914370
  C        0.8351480     0.0026240    -0.3224040
  C       -0.3590580    -0.7033670     0.3385660
  C        0.9577948     1.6424904     0.1946024
  C        2.1425740    -0.7472220    -0.0583990
  H        0.6412340     0.0009810    -1.4036700
  H       -0.1836370    -0.6741640     1.4285240
  H       -0.3012000    -1.7665080     0.0540450
  H        1.1751250     1.4924670     1.2076710
  H        1.7349380     1.9924090    -0.4025300
  H       -0.0196830     1.9410400    -0.0272870
  H        2.3515230    -0.7796840     1.0184780
  H        2.9984690    -0.2652850    -0.5495640
  H        2.0837140    -1.7817520    -0.4169670
units angstrom
no_reorient  #important for SAPT in psi4, default
symmetry c1  #important for SAPT in psi4, default
}

set PROPERTIES_ORIGIN ["COM"]
properties('MP2/aug-cc-pvtz', properties = ['dipole'])
--------------------------------------------------------------------------

    Molecular point group: c1
  Charge       = -1
  Multiplicity = 1
  Basis Set: AUG-CC-PVTZ
    Blend: AUG-CC-PVTZ
  Basis Set: (AUG-CC-PVTZ AUX)
    Blend: AUG-CC-PVTZ-JKFIT

    Orbital Energies [Eh]
    ---------------------

    Doubly Occupied:

       1A    -91.668415     2A    -11.085496     3A    -11.081234
       4A    -11.061884     5A    -11.058931     6A     -8.668504
       7A     -6.350144     8A     -6.348451     9A     -6.348407
      10A     -0.917278    11A     -0.792228    12A     -0.782740
      13A     -0.638494    14A     -0.573754    15A     -0.470637
      16A     -0.454402    17A     -0.426090    18A     -0.415758
      19A     -0.380047    20A     -0.358627    21A     -0.313101
      22A     -0.260829    23A     -0.232149    24A     -0.094414
      25A     -0.092087

  @DF-RHF Final Energy:  -554.29618392196460

   => Energetics <=

    Nuclear Repulsion Energy =            219.6285971520846942
    One-Electron Energy =               -1206.1013651959801791
    Two-Electron Energy =                 432.1765841219309436
    Total Energy =                       -554.2961839219644844
  Basis Set: (AUG-CC-PVTZ AUX)
    Blend: AUG-CC-PVTZ-RI
    Molecular point group: c1

    Geometry (in Angstrom), charge = -1, multiplicity = 1:

       Center              X                  Y                   Z               Mass
    ------------   -----------------  -----------------  -----------------  -----------------
         S           -1.876627168685    -0.035435300323    -0.089424086253    31.972071174400
         C            0.949386831315    -0.021243300323    -0.320391086253    12.000000000000
         C           -0.244819168685    -0.727234300323     0.340578913747    12.000000000000
         C            1.072033631315     1.618623099677     0.196615313747    12.000000000000
         C            2.256812831315    -0.771089300323    -0.056386086253    12.000000000000
         H            0.755472831315    -0.022886300323    -1.401657086253     1.007825032230
         H           -0.069398168685    -0.698031300323     1.430536913747     1.007825032230
         H           -0.186961168685    -1.790375300323     0.056057913747     1.007825032230
         H            1.289363831315     1.468599699677     1.209683913747     1.007825032230
         H            1.849176831315     1.968541699677    -0.400517086253     1.007825032230
         H            0.094555831315     1.917172699677    -0.025274086253     1.007825032230
         H            2.465761831315    -0.803551300323     1.020490913747     1.007825032230
         H            3.112707831315    -0.289152300323    -0.547551086253     1.007825032230
         H            2.197952831315    -1.805619300323    -0.414954086253     1.007825032230

  Basis Set: AUG-CC-PVTZ
    Blend: AUG-CC-PVTZ
  Basis Set: (AUG-CC-PVTZ AUX)
    Blend: AUG-CC-PVTZ-JKFIT
	 Reference Energy          =    -554.2961839219645981 [Eh]
	 Singles Energy            =      -0.0000000000000000 [Eh]
	 Same-Spin Energy          =      -0.2316048967866227 [Eh]
	 Opposite-Spin Energy      =      -0.8029497094345204 [Eh]
	 Correlation Energy        =      -1.0345546062211430 [Eh]
	 Total Energy              =    -555.3307385281857478 [Eh]

	 ================> DF-SCS-MP2 Energies <==================
	-----------------------------------------------------------
	 SCS Same-Spin Scale       =       0.3333333333333333 [-]
	 SCS Opposite-Spin Scale   =       1.2000000000000000 [-]
	 SCS Same-Spin Energy      =      -0.0772016322622076 [Eh]
	 SCS Opposite-Spin Energy  =      -0.9635396513214244 [Eh]
	 SCS Correlation Energy    =      -1.0407412835836318 [Eh]
	 SCS Total Energy          =    -555.3369252055482548 [Eh]
	-----------------------------------------------------------

  Dipole Moment: [D]
     X:     7.3380      Y:    -0.2182      Z:     0.3259     Total:     7.3485

*** Psi4 exiting successfully. Buy a developer a beer!
