                               Psi4 1.4a3.dev225

  ==> Input File <==

--------------------------------------------------------------------------
#psi4
#
memory 32 gb

molecule  {
-1 1
  S       -1.9908660    -0.0115680    -0.0914370
  C        0.8351480     0.0026240    -0.3224040
  C       -0.3590580    -0.7033670     0.3385660
  C        0.9435650     1.4522290     0.1346180
  C        2.1425740    -0.7472220    -0.0583990
  H        0.6412340     0.0009810    -1.4036700
  H       -0.1836370    -0.6741640     1.4285240
  H       -0.3012000    -1.7665080     0.0540450
  H        1.1751250     1.4924670     1.2076710
  H        1.7349380     1.9924090    -0.4025300
  H       -0.0196830     1.9410400    -0.0272870
  H        2.3513392    -0.8561212     1.0134851
  H        2.9984690    -0.2652850    -0.5495640
  H        2.0837140    -1.7817520    -0.4169670
units angstrom
no_reorient  #important for SAPT in psi4, default
symmetry c1  #important for SAPT in psi4, default
}

set PROPERTIES_ORIGIN ["COM"]
properties('MP2/aug-cc-pvtz', properties = ['dipole'])
--------------------------------------------------------------------------

    Molecular point group: c1
  Charge       = -1
  Multiplicity = 1
  Basis Set: AUG-CC-PVTZ
    Blend: AUG-CC-PVTZ
  Basis Set: (AUG-CC-PVTZ AUX)
    Blend: AUG-CC-PVTZ-JKFIT

    Orbital Energies [Eh]
    ---------------------

    Doubly Occupied:

       1A    -91.667947     2A    -11.084191     3A    -11.071529
       4A    -11.062671     5A    -11.060982     6A     -8.668046
       7A     -6.349683     8A     -6.347992     9A     -6.347945
      10A     -0.933838    11A     -0.792796    12A     -0.779375
      13A     -0.638919    14A     -0.576483    15A     -0.473451
      16A     -0.450251    17A     -0.423711    18A     -0.398027
      19A     -0.373773    20A     -0.339723    21A     -0.313683
      22A     -0.306384    23A     -0.232593    24A     -0.093981
      25A     -0.091525

  @DF-RHF Final Energy:  -554.32167644355536

   => Energetics <=

    Nuclear Repulsion Energy =            222.3773678621226395
    One-Electron Energy =               -1211.6390912523547740
    Two-Electron Energy =                 434.9400469466768300
    Total Energy =                       -554.3216764435553614
  Basis Set: (AUG-CC-PVTZ AUX)
    Blend: AUG-CC-PVTZ-RI
    Molecular point group: c1

    Geometry (in Angstrom), charge = -1, multiplicity = 1:

       Center              X                  Y                   Z               Mass
    ------------   -----------------  -----------------  -----------------  -----------------
         S           -1.874707379315    -0.008929168787    -0.081283649963    31.972071174400
         C            0.951306620685     0.005262831213    -0.312250649963    12.000000000000
         C           -0.242899379315    -0.700728168787     0.348719350037    12.000000000000
         C            1.059723620685     1.454867831213     0.144771350037    12.000000000000
         C            2.258732620685    -0.744583168787    -0.048245649963    12.000000000000
         H            0.757392620685     0.003619831213    -1.393516649963     1.007825032230
         H           -0.067478379315    -0.671525168787     1.438677350037     1.007825032230
         H           -0.185041379315    -1.763869168787     0.064198350037     1.007825032230
         H            1.291283620685     1.495105831213     1.217824350037     1.007825032230
         H            1.851096620685     1.995047831213    -0.392376649963     1.007825032230
         H            0.096475620685     1.943678831213    -0.017133649963     1.007825032230
         H            2.467497820685    -0.853482368787     1.023638450037     1.007825032230
         H            3.114627620685    -0.262646168787    -0.539410649963     1.007825032230
         H            2.199872620685    -1.779113168787    -0.406813649963     1.007825032230

  Basis Set: AUG-CC-PVTZ
    Blend: AUG-CC-PVTZ
  Basis Set: (AUG-CC-PVTZ AUX)
    Blend: AUG-CC-PVTZ-JKFIT
	 Reference Energy          =    -554.3216764435553614 [Eh]
	 Singles Energy            =      -0.0000000000000000 [Eh]
	 Same-Spin Energy          =      -0.2315431199786306 [Eh]
	 Opposite-Spin Energy      =      -0.8016281942803051 [Eh]
	 Correlation Energy        =      -1.0331713142589356 [Eh]
	 Total Energy              =    -555.3548477578142410 [Eh]

	 ================> DF-SCS-MP2 Energies <==================
	-----------------------------------------------------------
	 SCS Same-Spin Scale       =       0.3333333333333333 [-]
	 SCS Opposite-Spin Scale   =       1.2000000000000000 [-]
	 SCS Same-Spin Energy      =      -0.0771810399928768 [Eh]
	 SCS Opposite-Spin Energy  =      -0.9619538331363661 [Eh]
	 SCS Correlation Energy    =      -1.0391348731292429 [Eh]
	 SCS Total Energy          =    -555.3608113166845897 [Eh]
	-----------------------------------------------------------

  Dipole Moment: [D]
     X:     7.3095      Y:    -0.1543      Z:     0.3293     Total:     7.3186

*** Psi4 exiting successfully. Buy a developer a beer!
