                               Psi4 1.4a3.dev225

  ==> Input File <==

--------------------------------------------------------------------------
#psi4
#
memory 32 gb

molecule  {
-1 1
  S       -1.9908660    -0.0115680    -0.0914370
  C        0.8351480     0.0026240    -0.3224040
  C       -0.3318475    -0.7918964     0.2844662
  C        0.9435650     1.4522290     0.1346180
  C        2.1425740    -0.7472220    -0.0583990
  H        0.6412340     0.0009810    -1.4036700
  H       -0.1836370    -0.6741640     1.4285240
  H       -0.3012000    -1.7665080     0.0540450
  H        1.1751250     1.4924670     1.2076710
  H        1.7349380     1.9924090    -0.4025300
  H       -0.0196830     1.9410400    -0.0272870
  H        2.3515230    -0.7796840     1.0184780
  H        2.9984690    -0.2652850    -0.5495640
  H        2.0837140    -1.7817520    -0.4169670
units angstrom
no_reorient  #important for SAPT in psi4, default
symmetry c1  #important for SAPT in psi4, default
}

set PROPERTIES_ORIGIN ["COM"]
properties('MP2/aug-cc-pvtz', properties = ['dipole'])
--------------------------------------------------------------------------

    Molecular point group: c1
  Charge       = -1
  Multiplicity = 1
  Basis Set: AUG-CC-PVTZ
    Blend: AUG-CC-PVTZ
  Basis Set: (AUG-CC-PVTZ AUX)
    Blend: AUG-CC-PVTZ-JKFIT

    Orbital Energies [Eh]
    ---------------------

    Doubly Occupied:

       1A    -91.669192     2A    -11.083685     3A    -11.072501
       4A    -11.064782     5A    -11.059280     6A     -8.668528
       7A     -6.350037     8A     -6.348436     9A     -6.348401
      10A     -0.934468    11A     -0.790149    12A     -0.782399
      13A     -0.635491    14A     -0.579571    15A     -0.484590
      16A     -0.451327    17A     -0.421868    18A     -0.398370
      19A     -0.376836    20A     -0.342724    21A     -0.328496
      22A     -0.295798    23A     -0.220699    24A     -0.094677
      25A     -0.090525

  @DF-RHF Final Energy:  -554.31101211431769

   => Energetics <=

    Nuclear Repulsion Energy =            221.7936120572330765
    One-Electron Energy =               -1210.4235905730479317
    Two-Electron Energy =                 434.3189664014971640
    Total Energy =                       -554.3110121143176912
  Basis Set: (AUG-CC-PVTZ AUX)
    Blend: AUG-CC-PVTZ-RI
    Molecular point group: c1

    Geometry (in Angstrom), charge = -1, multiplicity = 1:

       Center              X                  Y                   Z               Mass
    ------------   -----------------  -----------------  -----------------  -----------------
         S           -1.878376540123     0.002136530352    -0.074049288214    31.972071174400
         C            0.947637459877     0.016328530352    -0.305016288214    12.000000000000
         C           -0.219358040123    -0.778191869648     0.301853911786    12.000000000000
         C            1.056054459877     1.465933530352     0.152005711786    12.000000000000
         C            2.255063459877    -0.733517469648    -0.041011288214    12.000000000000
         H            0.753723459877     0.014685530352    -1.386282288214     1.007825032230
         H           -0.071147540123    -0.660459469648     1.445911711786     1.007825032230
         H           -0.188710540123    -1.752803469648     0.071432711786     1.007825032230
         H            1.287614459877     1.506171530352     1.225058711786     1.007825032230
         H            1.847427459877     2.006113530352    -0.385142288214     1.007825032230
         H            0.092806459877     1.954744530352    -0.009899288214     1.007825032230
         H            2.464012459877    -0.765979469648     1.035865711786     1.007825032230
         H            3.110958459877    -0.251580469648    -0.532176288214     1.007825032230
         H            2.196203459877    -1.768047469648    -0.399579288214     1.007825032230

  Basis Set: AUG-CC-PVTZ
    Blend: AUG-CC-PVTZ
  Basis Set: (AUG-CC-PVTZ AUX)
    Blend: AUG-CC-PVTZ-JKFIT
	 Reference Energy          =    -554.3110121143176912 [Eh]
	 Singles Energy            =      -0.0000000000000000 [Eh]
	 Same-Spin Energy          =      -0.2313484540082515 [Eh]
	 Opposite-Spin Energy      =      -0.8018783199510366 [Eh]
	 Correlation Energy        =      -1.0332267739592882 [Eh]
	 Total Energy              =    -555.3442388882770047 [Eh]

	 ================> DF-SCS-MP2 Energies <==================
	-----------------------------------------------------------
	 SCS Same-Spin Scale       =       0.3333333333333333 [-]
	 SCS Opposite-Spin Scale   =       1.2000000000000000 [-]
	 SCS Same-Spin Energy      =      -0.0771161513360838 [Eh]
	 SCS Opposite-Spin Energy  =      -0.9622539839412440 [Eh]
	 SCS Correlation Energy    =      -1.0393701352773277 [Eh]
	 SCS Total Energy          =    -555.3503822495949862 [Eh]
	-----------------------------------------------------------

  Dipole Moment: [D]
     X:     7.4127      Y:    -0.1703      Z:     0.2868     Total:     7.4202

*** Psi4 exiting successfully. Buy a developer a beer!
