                               Psi4 1.4a3.dev225

  ==> Input File <==

--------------------------------------------------------------------------
#psi4
#
memory 32 gb

molecule  {
-1 1
  S       -1.9908660    -0.0115680    -0.0914370
  C        0.8351480     0.0026240    -0.3224040
  C       -0.3590580    -0.7033670     0.3385660
  C        0.9435650     1.4522290     0.1346180
  C        2.1425740    -0.7472220    -0.0583990
  H        0.6412340     0.0009810    -1.4036700
  H       -0.1756949    -0.6728418     1.4778715
  H       -0.3012000    -1.7665080     0.0540450
  H        1.1751250     1.4924670     1.2076710
  H        1.7349380     1.9924090    -0.4025300
  H       -0.0196830     1.9410400    -0.0272870
  H        2.3515230    -0.7796840     1.0184780
  H        2.9984690    -0.2652850    -0.5495640
  H        2.0837140    -1.7817520    -0.4169670
units angstrom
no_reorient  #important for SAPT in psi4, default
symmetry c1  #important for SAPT in psi4, default
}

set PROPERTIES_ORIGIN ["COM"]
properties('MP2/aug-cc-pvtz', properties = ['dipole'])
--------------------------------------------------------------------------

    Molecular point group: c1
  Charge       = -1
  Multiplicity = 1
  Basis Set: AUG-CC-PVTZ
    Blend: AUG-CC-PVTZ
  Basis Set: (AUG-CC-PVTZ AUX)
    Blend: AUG-CC-PVTZ-JKFIT

    Orbital Energies [Eh]
    ---------------------

    Doubly Occupied:

       1A    -91.668632     2A    -11.084123     3A    -11.071749
       4A    -11.067410     5A    -11.062798     6A     -8.668727
       7A     -6.350361     8A     -6.348665     9A     -6.348619
      10A     -0.933732    11A     -0.791803    12A     -0.777578
      13A     -0.638799    14A     -0.572771    15A     -0.476278
      16A     -0.447587    17A     -0.422716    18A     -0.397700
      19A     -0.370765    20A     -0.339184    21A     -0.314135
      22A     -0.304369    23A     -0.233084    24A     -0.094494
      25A     -0.091822

  @DF-RHF Final Energy:  -554.32009337933164

   => Energetics <=

    Nuclear Repulsion Energy =            222.2000239478099672
    One-Electron Energy =               -1211.2844294942267425
    Two-Electron Energy =                 434.7643121670851087
    Total Energy =                       -554.3200933793316381
  Basis Set: (AUG-CC-PVTZ AUX)
    Blend: AUG-CC-PVTZ-RI
    Molecular point group: c1

    Geometry (in Angstrom), charge = -1, multiplicity = 1:

       Center              X                  Y                   Z               Mass
    ------------   -----------------  -----------------  -----------------  -----------------
         S           -1.874799352089    -0.009809286404    -0.081898700276    31.972071174400
         C            0.951214647911     0.004382713596    -0.312865700276    12.000000000000
         C           -0.242991352089    -0.701608286404     0.348104299724    12.000000000000
         C            1.059631647911     1.453987713596     0.144156299724    12.000000000000
         C            2.258640647911    -0.745463286404    -0.048860700276    12.000000000000
         H            0.757300647911     0.002739713596    -1.394131700276     1.007825032230
         H           -0.059628252089    -0.671083086404     1.487409799724     1.007825032230
         H           -0.185133352089    -1.764749286404     0.063583299724     1.007825032230
         H            1.291191647911     1.494225713596     1.217209299724     1.007825032230
         H            1.851004647911     1.994167713596    -0.392991700276     1.007825032230
         H            0.096383647911     1.942798713596    -0.017748700276     1.007825032230
         H            2.467589647911    -0.777925286404     1.028016299724     1.007825032230
         H            3.114535647911    -0.263526286404    -0.540025700276     1.007825032230
         H            2.199780647911    -1.779993286404    -0.407428700276     1.007825032230

  Basis Set: AUG-CC-PVTZ
    Blend: AUG-CC-PVTZ
  Basis Set: (AUG-CC-PVTZ AUX)
    Blend: AUG-CC-PVTZ-JKFIT
	 Reference Energy          =    -554.3200933793316381 [Eh]
	 Singles Energy            =      -0.0000000000000000 [Eh]
	 Same-Spin Energy          =      -0.2316235205414414 [Eh]
	 Opposite-Spin Energy      =      -0.8020175748958911 [Eh]
	 Correlation Energy        =      -1.0336410954373325 [Eh]
	 Total Energy              =    -555.3537344747689986 [Eh]

	 ================> DF-SCS-MP2 Energies <==================
	-----------------------------------------------------------
	 SCS Same-Spin Scale       =       0.3333333333333333 [-]
	 SCS Opposite-Spin Scale   =       1.2000000000000000 [-]
	 SCS Same-Spin Energy      =      -0.0772078401804805 [Eh]
	 SCS Opposite-Spin Energy  =      -0.9624210898750692 [Eh]
	 SCS Correlation Energy    =      -1.0396289300555497 [Eh]
	 SCS Total Energy          =    -555.3597223093871662 [Eh]
	-----------------------------------------------------------

  Dipole Moment: [D]
     X:     7.2664      Y:    -0.1145      Z:     0.2650     Total:     7.2721

*** Psi4 exiting successfully. Buy a developer a beer!
