                               Psi4 1.4a3.dev225

  ==> Input File <==

--------------------------------------------------------------------------
#psi4
#
memory 32 gb

molecule  {
-1 1
  S       -1.9908660    -0.0115680    -0.0914370
  C        0.8351480     0.0026240    -0.3224040
  C       -0.3590580    -0.7033670     0.3385660
  C        0.9435650     1.4522290     0.1346180
  C        2.1425740    -0.7472220    -0.0583990
  H        0.6412340     0.0009810    -1.4036700
  H       -0.1836370    -0.6741640     1.4285240
  H       -0.3012000    -1.7665080     0.0540450
  H        1.0752018     1.5477693     1.2209999
  H        1.7349380     1.9924090    -0.4025300
  H       -0.0196830     1.9410400    -0.0272870
  H        2.3515230    -0.7796840     1.0184780
  H        2.9984690    -0.2652850    -0.5495640
  H        2.0837140    -1.7817520    -0.4169670
units angstrom
no_reorient  #important for SAPT in psi4, default
symmetry c1  #important for SAPT in psi4, default
}

set PROPERTIES_ORIGIN ["COM"]
properties('MP2/aug-cc-pvtz', properties = ['dipole'])
--------------------------------------------------------------------------

    Molecular point group: c1
  Charge       = -1
  Multiplicity = 1
  Basis Set: AUG-CC-PVTZ
    Blend: AUG-CC-PVTZ
  Basis Set: (AUG-CC-PVTZ AUX)
    Blend: AUG-CC-PVTZ-JKFIT

    Orbital Energies [Eh]
    ---------------------

    Doubly Occupied:

       1A    -91.667899     2A    -11.083990     3A    -11.071685
       4A    -11.062288     5A    -11.060986     6A     -8.667998
       7A     -6.349635     8A     -6.347942     9A     -6.347898
      10A     -0.933666    11A     -0.792673    12A     -0.779181
      13A     -0.639006    14A     -0.576554    15A     -0.474944
      16A     -0.449499    17A     -0.421052    18A     -0.398963
      19A     -0.376880    20A     -0.334697    21A     -0.314666
      22A     -0.307075    23A     -0.232518    24A     -0.093810
      25A     -0.091491

  @DF-RHF Final Energy:  -554.32105338928841

   => Energetics <=

    Nuclear Repulsion Energy =            222.3975326128461916
    One-Electron Energy =               -1211.6831757028519405
    Two-Electron Energy =                 434.9645897007173403
    Total Energy =                       -554.3210533892884087
  Basis Set: (AUG-CC-PVTZ AUX)
    Blend: AUG-CC-PVTZ-RI
    Molecular point group: c1

    Geometry (in Angstrom), charge = -1, multiplicity = 1:

       Center              X                  Y                   Z               Mass
    ------------   -----------------  -----------------  -----------------  -----------------
         S           -1.873578481676    -0.010420258672    -0.081491024749    31.972071174400
         C            0.952435518324     0.003771741328    -0.312458024749    12.000000000000
         C           -0.241770481676    -0.702219258672     0.348511975251    12.000000000000
         C            1.060852518324     1.453376741328     0.144563975251    12.000000000000
         C            2.259861518324    -0.746074258672    -0.048453024749    12.000000000000
         H            0.758521518324     0.002128741328    -1.393724024749     1.007825032230
         H           -0.066349481676    -0.673016258672     1.438469975251     1.007825032230
         H           -0.183912481676    -1.765360258672     0.063990975251     1.007825032230
         H            1.192489318324     1.548917041328     1.230945875251     1.007825032230
         H            1.852225518324     1.993556741328    -0.392584024749     1.007825032230
         H            0.097604518324     1.942187741328    -0.017341024749     1.007825032230
         H            2.468810518324    -0.778536258672     1.028423975251     1.007825032230
         H            3.115756518324    -0.264137258672    -0.539618024749     1.007825032230
         H            2.201001518324    -1.780604258672    -0.407021024749     1.007825032230

  Basis Set: AUG-CC-PVTZ
    Blend: AUG-CC-PVTZ
  Basis Set: (AUG-CC-PVTZ AUX)
    Blend: AUG-CC-PVTZ-JKFIT
	 Reference Energy          =    -554.3210533892884087 [Eh]
	 Singles Energy            =      -0.0000000000000000 [Eh]
	 Same-Spin Energy          =      -0.2315814732134642 [Eh]
	 Opposite-Spin Energy      =      -0.8016641838003822 [Eh]
	 Correlation Energy        =      -1.0332456570138464 [Eh]
	 Total Energy              =    -555.3542990463022306 [Eh]

	 ================> DF-SCS-MP2 Energies <==================
	-----------------------------------------------------------
	 SCS Same-Spin Scale       =       0.3333333333333333 [-]
	 SCS Opposite-Spin Scale   =       1.2000000000000000 [-]
	 SCS Same-Spin Energy      =      -0.0771938244044880 [Eh]
	 SCS Opposite-Spin Energy  =      -0.9619970205604585 [Eh]
	 SCS Correlation Energy    =      -1.0391908449649465 [Eh]
	 SCS Total Energy          =    -555.3602442342534005 [Eh]
	-----------------------------------------------------------

  Dipole Moment: [D]
     X:     7.2814      Y:    -0.1155      Z:     0.3263     Total:     7.2896

*** Psi4 exiting successfully. Buy a developer a beer!
