                               Psi4 1.4a3.dev225

  ==> Input File <==

--------------------------------------------------------------------------
#psi4
#
memory 32 gb

molecule  {
-1 1
  S       -1.9908660    -0.0115680    -0.0914370
  C        0.8351480     0.0026240    -0.3224040
  C       -0.3590580    -0.7033670     0.3385660
  C        0.9435650     1.4522290     0.1346180
  C        2.1425740    -0.7472220    -0.0583990
  H        0.6412340     0.0009810    -1.4036700
  H       -0.1836370    -0.6741640     1.4285240
  H       -0.3012000    -1.7665080     0.0540450
  H        1.2378088     1.5328822     1.1898893
  H        1.7349380     1.9924090    -0.4025300
  H       -0.0196830     1.9410400    -0.0272870
  H        2.3515230    -0.7796840     1.0184780
  H        2.9984690    -0.2652850    -0.5495640
  H        2.0837140    -1.7817520    -0.4169670
units angstrom
no_reorient  #important for SAPT in psi4, default
symmetry c1  #important for SAPT in psi4, default
}

set PROPERTIES_ORIGIN ["COM"]
properties('MP2/aug-cc-pvtz', properties = ['dipole'])
--------------------------------------------------------------------------

    Molecular point group: c1
  Charge       = -1
  Multiplicity = 1
  Basis Set: AUG-CC-PVTZ
    Blend: AUG-CC-PVTZ
  Basis Set: (AUG-CC-PVTZ AUX)
    Blend: AUG-CC-PVTZ-JKFIT

    Orbital Energies [Eh]
    ---------------------

    Doubly Occupied:

       1A    -91.667910     2A    -11.084322     3A    -11.071599
       4A    -11.063010     5A    -11.060865     6A     -8.668011
       7A     -6.349648     8A     -6.347957     9A     -6.347911
      10A     -0.933969    11A     -0.792330    12A     -0.779875
      13A     -0.639097    14A     -0.576227    15A     -0.475437
      16A     -0.447890    17A     -0.426204    18A     -0.395431
      19A     -0.374566    20A     -0.340517    21A     -0.314874
      22A     -0.305078    23A     -0.232544    24A     -0.093986
      25A     -0.091490

  @DF-RHF Final Energy:  -554.32168351704331

   => Energetics <=

    Nuclear Repulsion Energy =            222.3454056988839511
    One-Electron Energy =               -1211.5726783437055474
    Two-Electron Energy =                 434.9055891277782848
    Total Energy =                       -554.3216835170433114
  Basis Set: (AUG-CC-PVTZ AUX)
    Blend: AUG-CC-PVTZ-RI
    Molecular point group: c1

    Geometry (in Angstrom), charge = -1, multiplicity = 1:

       Center              X                  Y                   Z               Mass
    ------------   -----------------  -----------------  -----------------  -----------------
         S           -1.875418944506    -0.010251759443    -0.081138900284    31.972071174400
         C            0.950595055494     0.003940240557    -0.312105900284    12.000000000000
         C           -0.243610944506    -0.702050759443     0.348864099716    12.000000000000
         C            1.059012055494     1.453545240557     0.144916099716    12.000000000000
         C            2.258021055494    -0.745905759443    -0.048100900284    12.000000000000
         H            0.756681055494     0.002297240557    -1.393371900284     1.007825032230
         H           -0.068189944506    -0.672847759443     1.438822099716     1.007825032230
         H           -0.185752944506    -1.765191759443     0.064343099716     1.007825032230
         H            1.353255855494     1.534198440557     1.200187399716     1.007825032230
         H            1.850385055494     1.993725240557    -0.392231900284     1.007825032230
         H            0.095764055494     1.942356240557    -0.016988900284     1.007825032230
         H            2.466970055494    -0.778367759443     1.028776099716     1.007825032230
         H            3.113916055494    -0.263968759443    -0.539265900284     1.007825032230
         H            2.199161055494    -1.780435759443    -0.406668900284     1.007825032230

  Basis Set: AUG-CC-PVTZ
    Blend: AUG-CC-PVTZ
  Basis Set: (AUG-CC-PVTZ AUX)
    Blend: AUG-CC-PVTZ-JKFIT
	 Reference Energy          =    -554.3216835170433114 [Eh]
	 Singles Energy            =      -0.0000000000000000 [Eh]
	 Same-Spin Energy          =      -0.2315182187348087 [Eh]
	 Opposite-Spin Energy      =      -0.8016011198980075 [Eh]
	 Correlation Energy        =      -1.0331193386328161 [Eh]
	 Total Energy              =    -555.3548028556760983 [Eh]

	 ================> DF-SCS-MP2 Energies <==================
	-----------------------------------------------------------
	 SCS Same-Spin Scale       =       0.3333333333333333 [-]
	 SCS Opposite-Spin Scale   =       1.2000000000000000 [-]
	 SCS Same-Spin Energy      =      -0.0771727395782695 [Eh]
	 SCS Opposite-Spin Energy  =      -0.9619213438776090 [Eh]
	 SCS Correlation Energy    =      -1.0390940834558786 [Eh]
	 SCS Total Energy          =    -555.3607776004992047 [Eh]
	-----------------------------------------------------------

  Dipole Moment: [D]
     X:     7.3312      Y:    -0.1325      Z:     0.3292     Total:     7.3397

*** Psi4 exiting successfully. Buy a developer a beer!
