                               Psi4 1.4a3.dev225

  ==> Input File <==

--------------------------------------------------------------------------
#psi4
#
memory 32 gb

molecule  {
-1 1
  S       -1.9908660    -0.0115680    -0.0914370
  C        0.8351480     0.0026240    -0.3224040
  C       -0.3590580    -0.7033670     0.3385660
  C        0.9506799     1.5473597     0.1646102
  C        2.1425740    -0.7472220    -0.0583990
  H        0.6412340     0.0009810    -1.4036700
  H       -0.1836370    -0.6741640     1.4285240
  H       -0.3012000    -1.7665080     0.0540450
  H        1.1751250     1.4924670     1.2076710
  H        1.7349380     1.9924090    -0.4025300
  H       -0.0196830     1.9410400    -0.0272870
  H        2.3515230    -0.7796840     1.0184780
  H        2.9984690    -0.2652850    -0.5495640
  H        2.0837140    -1.7817520    -0.4169670
units angstrom
no_reorient  #important for SAPT in psi4, default
symmetry c1  #important for SAPT in psi4, default
}

set PROPERTIES_ORIGIN ["COM"]
properties('MP2/aug-cc-pvtz', properties = ['dipole'])
--------------------------------------------------------------------------

    Molecular point group: c1
  Charge       = -1
  Multiplicity = 1
  Basis Set: AUG-CC-PVTZ
    Blend: AUG-CC-PVTZ
  Basis Set: (AUG-CC-PVTZ AUX)
    Blend: AUG-CC-PVTZ-JKFIT

    Orbital Energies [Eh]
    ---------------------

    Doubly Occupied:

       1A    -91.668003     2A    -11.084526     3A    -11.076106
       4A    -11.061047     5A    -11.059426     6A     -8.668097
       7A     -6.349735     8A     -6.348045     9A     -6.348000
      10A     -0.923913    11A     -0.791927    12A     -0.780950
      13A     -0.638299    14A     -0.574496    15A     -0.471962
      16A     -0.450560    17A     -0.424249    18A     -0.406716
      19A     -0.378278    20A     -0.350550    21A     -0.310519
      22A     -0.287883    23A     -0.232375    24A     -0.093989
      25A     -0.091648

  @DF-RHF Final Energy:  -554.31512593620482

   => Energetics <=

    Nuclear Repulsion Energy =            221.0013956195585365
    One-Electron Energy =               -1208.8904439648460993
    Two-Electron Energy =                 433.5739224090827975
    Total Energy =                       -554.3151259362048222
  Basis Set: (AUG-CC-PVTZ AUX)
    Blend: AUG-CC-PVTZ-RI
    Molecular point group: c1

    Geometry (in Angstrom), charge = -1, multiplicity = 1:

       Center              X                  Y                   Z               Mass
    ------------   -----------------  -----------------  -----------------  -----------------
         S           -1.875668314168    -0.022614810721    -0.085382124108    31.972071174400
         C            0.950345685832    -0.008422810721    -0.316349124108    12.000000000000
         C           -0.243860314168    -0.714413810721     0.344620875892    12.000000000000
         C            1.065877585832     1.536312889279     0.170665075892    12.000000000000
         C            2.257771685832    -0.758268810721    -0.052344124108    12.000000000000
         H            0.756431685832    -0.010065810721    -1.397615124108     1.007825032230
         H           -0.068439314168    -0.685210810721     1.434578875892     1.007825032230
         H           -0.186002314168    -1.777554810721     0.060099875892     1.007825032230
         H            1.290322685832     1.481420189279     1.213725875892     1.007825032230
         H            1.850135685832     1.981362189279    -0.396475124108     1.007825032230
         H            0.095514685832     1.929993189279    -0.021232124108     1.007825032230
         H            2.466720685832    -0.790730810721     1.024532875892     1.007825032230
         H            3.113666685832    -0.276331810721    -0.543509124108     1.007825032230
         H            2.198911685832    -1.792798810721    -0.410912124108     1.007825032230

  Basis Set: AUG-CC-PVTZ
    Blend: AUG-CC-PVTZ
  Basis Set: (AUG-CC-PVTZ AUX)
    Blend: AUG-CC-PVTZ-JKFIT
	 Reference Energy          =    -554.3151259362048222 [Eh]
	 Singles Energy            =      -0.0000000000000000 [Eh]
	 Same-Spin Energy          =      -0.2312411722029654 [Eh]
	 Opposite-Spin Energy      =      -0.8016834153612866 [Eh]
	 Correlation Energy        =      -1.0329245875642519 [Eh]
	 Total Energy              =    -555.3480505237690750 [Eh]

	 ================> DF-SCS-MP2 Energies <==================
	-----------------------------------------------------------
	 SCS Same-Spin Scale       =       0.3333333333333333 [-]
	 SCS Opposite-Spin Scale   =       1.2000000000000000 [-]
	 SCS Same-Spin Energy      =      -0.0770803907343218 [Eh]
	 SCS Opposite-Spin Energy  =      -0.9620200984335439 [Eh]
	 SCS Correlation Energy    =      -1.0391004891678657 [Eh]
	 SCS Total Energy          =    -555.3542264253726444 [Eh]
	-----------------------------------------------------------

  Dipole Moment: [D]
     X:     7.3387      Y:    -0.1417      Z:     0.3326     Total:     7.3476

*** Psi4 exiting successfully. Buy a developer a beer!
