                               Psi4 1.4a3.dev225

  ==> Input File <==

--------------------------------------------------------------------------
#psi4
#
memory 32 gb

molecule  {
-1 1
  S       -1.9908660    -0.0115680    -0.0914370
  C        0.8351480     0.0026240    -0.3224040
  C       -0.2695856    -0.7412985     0.3621432
  C        0.9435650     1.4522290     0.1346180
  C        2.1425740    -0.7472220    -0.0583990
  H        0.6412340     0.0009810    -1.4036700
  H       -0.1836370    -0.6741640     1.4285240
  H       -0.3012000    -1.7665080     0.0540450
  H        1.1751250     1.4924670     1.2076710
  H        1.7349380     1.9924090    -0.4025300
  H       -0.0196830     1.9410400    -0.0272870
  H        2.3515230    -0.7796840     1.0184780
  H        2.9984690    -0.2652850    -0.5495640
  H        2.0837140    -1.7817520    -0.4169670
units angstrom
no_reorient  #important for SAPT in psi4, default
symmetry c1  #important for SAPT in psi4, default
}

set PROPERTIES_ORIGIN ["COM"]
properties('MP2/aug-cc-pvtz', properties = ['dipole'])
--------------------------------------------------------------------------

    Molecular point group: c1
  Charge       = -1
  Multiplicity = 1
  Basis Set: AUG-CC-PVTZ
    Blend: AUG-CC-PVTZ
  Basis Set: (AUG-CC-PVTZ AUX)
    Blend: AUG-CC-PVTZ-JKFIT

    Orbital Energies [Eh]
    ---------------------

    Doubly Occupied:

       1A    -91.669370     2A    -11.083786     3A    -11.071537
       4A    -11.064403     5A    -11.056544     6A     -8.668086
       7A     -6.349484     8A     -6.347952     9A     -6.347915
      10A     -0.940249    11A     -0.790892    12A     -0.778087
      13A     -0.634089    14A     -0.579600    15A     -0.482645
      16A     -0.451311    17A     -0.426754    18A     -0.399655
      19A     -0.384360    20A     -0.339920    21A     -0.325002
      22A     -0.314567    23A     -0.206221    24A     -0.093170
      25A     -0.091207

  @DF-RHF Final Energy:  -554.31742330287011

   => Energetics <=

    Nuclear Repulsion Energy =            221.8697684324410204
    One-Electron Energy =               -1210.5807753518877234
    Two-Electron Energy =                 434.3935836165766204
    Total Energy =                       -554.3174233028701110
  Basis Set: (AUG-CC-PVTZ AUX)
    Blend: AUG-CC-PVTZ-RI
    Molecular point group: c1

    Geometry (in Angstrom), charge = -1, multiplicity = 1:

       Center              X                  Y                   Z               Mass
    ------------   -----------------  -----------------  -----------------  -----------------
         S           -1.886767396508    -0.004682402451    -0.084517593092    31.972071174400
         C            0.939246603492     0.009509597549    -0.315484593092    12.000000000000
         C           -0.165486996508    -0.734412902451     0.369062606908    12.000000000000
         C            1.047663603492     1.459114597549     0.141537406908    12.000000000000
         C            2.246672603492    -0.740336402451    -0.051479593092    12.000000000000
         H            0.745332603492     0.007866597549    -1.396750593092     1.007825032230
         H           -0.079538396508    -0.667278402451     1.435443406908     1.007825032230
         H           -0.197101396508    -1.759622402451     0.060964406908     1.007825032230
         H            1.279223603492     1.499352597549     1.214590406908     1.007825032230
         H            1.839036603492     1.999294597549    -0.395610593092     1.007825032230
         H            0.084415603492     1.947925597549    -0.020367593092     1.007825032230
         H            2.455621603492    -0.772798402451     1.025397406908     1.007825032230
         H            3.102567603492    -0.258399402451    -0.542644593092     1.007825032230
         H            2.187812603492    -1.774866402451    -0.410047593092     1.007825032230

  Basis Set: AUG-CC-PVTZ
    Blend: AUG-CC-PVTZ
  Basis Set: (AUG-CC-PVTZ AUX)
    Blend: AUG-CC-PVTZ-JKFIT
	 Reference Energy          =    -554.3174233028701110 [Eh]
	 Singles Energy            =      -0.0000000000000000 [Eh]
	 Same-Spin Energy          =      -0.2313316490855016 [Eh]
	 Opposite-Spin Energy      =      -0.8018631548166490 [Eh]
	 Correlation Energy        =      -1.0331948039021506 [Eh]
	 Total Energy              =    -555.3506181067722309 [Eh]

	 ================> DF-SCS-MP2 Energies <==================
	-----------------------------------------------------------
	 SCS Same-Spin Scale       =       0.3333333333333333 [-]
	 SCS Opposite-Spin Scale   =       1.2000000000000000 [-]
	 SCS Same-Spin Energy      =      -0.0771105496951672 [Eh]
	 SCS Opposite-Spin Energy  =      -0.9622357857799788 [Eh]
	 SCS Correlation Energy    =      -1.0393463354751460 [Eh]
	 SCS Total Energy          =    -555.3567696383452130 [Eh]
	-----------------------------------------------------------

  Dipole Moment: [D]
     X:     7.5660      Y:    -0.1653      Z:     0.3532     Total:     7.5760

*** Psi4 exiting successfully. Buy a developer a beer!
