                               Psi4 1.4a3.dev225

  ==> Input File <==

--------------------------------------------------------------------------
#psi4
#
memory 32 gb

molecule  {
-1 1
  S       -1.9908660    -0.0115680    -0.0914370
  C        0.8419591    -0.0058148    -0.3747007
  C       -0.3590580    -0.7033670     0.3385660
  C        0.9435650     1.4522290     0.1346180
  C        2.1425740    -0.7472220    -0.0583990
  H        0.6412340     0.0009810    -1.4036700
  H       -0.1836370    -0.6741640     1.4285240
  H       -0.3012000    -1.7665080     0.0540450
  H        1.1751250     1.4924670     1.2076710
  H        1.7349380     1.9924090    -0.4025300
  H       -0.0196830     1.9410400    -0.0272870
  H        2.3515230    -0.7796840     1.0184780
  H        2.9984690    -0.2652850    -0.5495640
  H        2.0837140    -1.7817520    -0.4169670
units angstrom
no_reorient  #important for SAPT in psi4, default
symmetry c1  #important for SAPT in psi4, default
}

set PROPERTIES_ORIGIN ["COM"]
properties('MP2/aug-cc-pvtz', properties = ['dipole'])
--------------------------------------------------------------------------

    Molecular point group: c1
  Charge       = -1
  Multiplicity = 1
  Basis Set: AUG-CC-PVTZ
    Blend: AUG-CC-PVTZ
  Basis Set: (AUG-CC-PVTZ AUX)
    Blend: AUG-CC-PVTZ-JKFIT

    Orbital Energies [Eh]
    ---------------------

    Doubly Occupied:

       1A    -91.667539     2A    -11.084207     3A    -11.069142
       4A    -11.063064     5A    -11.061767     6A     -8.667639
       7A     -6.349274     8A     -6.347597     9A     -6.347548
      10A     -0.930449    11A     -0.790571    12A     -0.775596
      13A     -0.643029    14A     -0.579227    15A     -0.473405
      16A     -0.446308    17A     -0.421358    18A     -0.398860
      19A     -0.376163    20A     -0.340349    21A     -0.318824
      22A     -0.301705    23A     -0.231564    24A     -0.093107
      25A     -0.091115

  @DF-RHF Final Energy:  -554.31961581938219

   => Energetics <=

    Nuclear Repulsion Energy =            222.0292658797675358
    One-Electron Energy =               -1210.9589458012674186
    Two-Electron Energy =                 434.6100641021176898
    Total Energy =                       -554.3196158193821930
  Basis Set: (AUG-CC-PVTZ AUX)
    Blend: AUG-CC-PVTZ-RI
    Molecular point group: c1

    Geometry (in Angstrom), charge = -1, multiplicity = 1:

       Center              X                  Y                   Z               Mass
    ------------   -----------------  -----------------  -----------------  -----------------
         S           -1.875627371919    -0.008657048424    -0.074292286792    31.972071174400
         C            0.957197728081    -0.002903848424    -0.357555986792    12.000000000000
         C           -0.243819371919    -0.700456048424     0.355710713208    12.000000000000
         C            1.058803628081     1.455139951576     0.151762713208    12.000000000000
         C            2.257812628081    -0.744311048424    -0.041254286792    12.000000000000
         H            0.756472628081     0.003891951576    -1.386525286792     1.007825032230
         H           -0.068398371919    -0.671253048424     1.445668713208     1.007825032230
         H           -0.185961371919    -1.763597048424     0.071189713208     1.007825032230
         H            1.290363628081     1.495377951576     1.224815713208     1.007825032230
         H            1.850176628081     1.995319951576    -0.385385286792     1.007825032230
         H            0.095555628081     1.943950951576    -0.010142286792     1.007825032230
         H            2.466761628081    -0.776773048424     1.035622713208     1.007825032230
         H            3.113707628081    -0.262374048424    -0.532419286792     1.007825032230
         H            2.198952628081    -1.778841048424    -0.399822286792     1.007825032230

  Basis Set: AUG-CC-PVTZ
    Blend: AUG-CC-PVTZ
  Basis Set: (AUG-CC-PVTZ AUX)
    Blend: AUG-CC-PVTZ-JKFIT
	 Reference Energy          =    -554.3196158193821930 [Eh]
	 Singles Energy            =      -0.0000000000000000 [Eh]
	 Same-Spin Energy          =      -0.2313216865773444 [Eh]
	 Opposite-Spin Energy      =      -0.8014919303898101 [Eh]
	 Correlation Energy        =      -1.0328136169671547 [Eh]
	 Total Energy              =    -555.3524294363493254 [Eh]

	 ================> DF-SCS-MP2 Energies <==================
	-----------------------------------------------------------
	 SCS Same-Spin Scale       =       0.3333333333333333 [-]
	 SCS Opposite-Spin Scale   =       1.2000000000000000 [-]
	 SCS Same-Spin Energy      =      -0.0771072288591148 [Eh]
	 SCS Opposite-Spin Energy  =      -0.9617903164677721 [Eh]
	 SCS Correlation Energy    =      -1.0388975453268869 [Eh]
	 SCS Total Energy          =    -555.3585133647090970 [Eh]
	-----------------------------------------------------------

  Dipole Moment: [D]
     X:     7.3269      Y:    -0.1562      Z:     0.2863     Total:     7.3342

*** Psi4 exiting successfully. Buy a developer a beer!
