                               Psi4 1.4a3.dev225

  ==> Input File <==

--------------------------------------------------------------------------
#psi4
#
memory 32 gb

molecule  {
-1 1
  S       -1.9908660    -0.0115680    -0.0914370
  C        0.8351480     0.0026240    -0.3224040
  C       -0.3590580    -0.7033670     0.3385660
  C        0.9471224     1.4997943     0.1496141
  C        2.1425740    -0.7472220    -0.0583990
  H        0.6412340     0.0009810    -1.4036700
  H       -0.1836370    -0.6741640     1.4285240
  H       -0.3012000    -1.7665080     0.0540450
  H        1.1751250     1.4924670     1.2076710
  H        1.7349380     1.9924090    -0.4025300
  H       -0.0196830     1.9410400    -0.0272870
  H        2.3515230    -0.7796840     1.0184780
  H        2.9984690    -0.2652850    -0.5495640
  H        2.0837140    -1.7817520    -0.4169670
units angstrom
no_reorient  #important for SAPT in psi4, default
symmetry c1  #important for SAPT in psi4, default
}

set PROPERTIES_ORIGIN ["COM"]
properties('MP2/aug-cc-pvtz', properties = ['dipole'])
--------------------------------------------------------------------------

    Molecular point group: c1
  Charge       = -1
  Multiplicity = 1
  Basis Set: AUG-CC-PVTZ
    Blend: AUG-CC-PVTZ
  Basis Set: (AUG-CC-PVTZ AUX)
    Blend: AUG-CC-PVTZ-JKFIT

    Orbital Energies [Eh]
    ---------------------

    Doubly Occupied:

       1A    -91.667919     2A    -11.084290     3A    -11.073608
       4A    -11.060897     5A    -11.060745     6A     -8.668016
       7A     -6.349653     8A     -6.347963     9A     -6.347917
      10A     -0.928498    11A     -0.792055    12A     -0.780088
      13A     -0.638349    14A     -0.575214    15A     -0.473687
      16A     -0.449037    17A     -0.423729    18A     -0.402052
      19A     -0.377053    20A     -0.345194    21A     -0.308965
      22A     -0.301012    23A     -0.232439    24A     -0.093916
      25A     -0.091538

  @DF-RHF Final Energy:  -554.32052397537814

   => Energetics <=

    Nuclear Repulsion Energy =            221.7066039848154446
    One-Electron Energy =               -1210.3065886842280179
    Two-Electron Energy =                 434.2794607240343225
    Total Energy =                       -554.3205239753781370
  Basis Set: (AUG-CC-PVTZ AUX)
    Blend: AUG-CC-PVTZ-RI
    Molecular point group: c1

    Geometry (in Angstrom), charge = -1, multiplicity = 1:

       Center              X                  Y                   Z               Mass
    ------------   -----------------  -----------------  -----------------  -----------------
         S           -1.875188880171    -0.016204559182    -0.083361143036    31.972071174400
         C            0.950825119829    -0.002012559182    -0.314328143036    12.000000000000
         C           -0.243380880171    -0.708003559182     0.346641856964    12.000000000000
         C            1.062799519829     1.495157740818     0.157689956964    12.000000000000
         C            2.258251119829    -0.751858559182    -0.050323143036    12.000000000000
         H            0.756911119829    -0.003655559182    -1.395594143036     1.007825032230
         H           -0.067959880171    -0.678800559182     1.436599856964     1.007825032230
         H           -0.185522880171    -1.771144559182     0.062120856964     1.007825032230
         H            1.290802119829     1.487830440818     1.215746856964     1.007825032230
         H            1.850615119829     1.987772440818    -0.394454143036     1.007825032230
         H            0.095994119829     1.936403440818    -0.019211143036     1.007825032230
         H            2.467200119829    -0.784320559182     1.026553856964     1.007825032230
         H            3.114146119829    -0.269921559182    -0.541488143036     1.007825032230
         H            2.199391119829    -1.786388559182    -0.408891143036     1.007825032230

  Basis Set: AUG-CC-PVTZ
    Blend: AUG-CC-PVTZ
  Basis Set: (AUG-CC-PVTZ AUX)
    Blend: AUG-CC-PVTZ-JKFIT
	 Reference Energy          =    -554.3205239753781370 [Eh]
	 Singles Energy            =      -0.0000000000000000 [Eh]
	 Same-Spin Energy          =      -0.2313086967702761 [Eh]
	 Opposite-Spin Energy      =      -0.8015067395966550 [Eh]
	 Correlation Energy        =      -1.0328154363669311 [Eh]
	 Total Energy              =    -555.3533394117450825 [Eh]

	 ================> DF-SCS-MP2 Energies <==================
	-----------------------------------------------------------
	 SCS Same-Spin Scale       =       0.3333333333333333 [-]
	 SCS Opposite-Spin Scale   =       1.2000000000000000 [-]
	 SCS Same-Spin Energy      =      -0.0771028989234254 [Eh]
	 SCS Opposite-Spin Energy  =      -0.9618080875159859 [Eh]
	 SCS Correlation Energy    =      -1.0389109864394113 [Eh]
	 SCS Total Energy          =    -555.3594349618175556 [Eh]
	-----------------------------------------------------------

  Dipole Moment: [D]
     X:     7.3288      Y:    -0.1303      Z:     0.3287     Total:     7.3373

*** Psi4 exiting successfully. Buy a developer a beer!
