                               Psi4 1.4a3.dev225

  ==> Input File <==

--------------------------------------------------------------------------
#psi4
#
memory 32 gb

molecule  {
-1 1
  S       -1.9908660    -0.0115680    -0.0914370
  C        0.8299298     0.0101493    -0.2697856
  C       -0.3590580    -0.7033670     0.3385660
  C        0.9435650     1.4522290     0.1346180
  C        2.1425740    -0.7472220    -0.0583990
  H        0.6412340     0.0009810    -1.4036700
  H       -0.1836370    -0.6741640     1.4285240
  H       -0.3012000    -1.7665080     0.0540450
  H        1.1751250     1.4924670     1.2076710
  H        1.7349380     1.9924090    -0.4025300
  H       -0.0196830     1.9410400    -0.0272870
  H        2.3515230    -0.7796840     1.0184780
  H        2.9984690    -0.2652850    -0.5495640
  H        2.0837140    -1.7817520    -0.4169670
units angstrom
no_reorient  #important for SAPT in psi4, default
symmetry c1  #important for SAPT in psi4, default
}

set PROPERTIES_ORIGIN ["COM"]
properties('MP2/aug-cc-pvtz', properties = ['dipole'])
--------------------------------------------------------------------------

    Molecular point group: c1
  Charge       = -1
  Multiplicity = 1
  Basis Set: AUG-CC-PVTZ
    Blend: AUG-CC-PVTZ
  Basis Set: (AUG-CC-PVTZ AUX)
    Blend: AUG-CC-PVTZ-JKFIT

    Orbital Energies [Eh]
    ---------------------

    Doubly Occupied:

       1A    -91.668403     2A    -11.084682     3A    -11.073697
       4A    -11.062861     5A    -11.060470     6A     -8.668492
       7A     -6.350131     8A     -6.348425     9A     -6.348382
      10A     -0.938127    11A     -0.794402    12A     -0.783354
      13A     -0.635791    14A     -0.572566    15A     -0.479059
      16A     -0.450199    17A     -0.426350    18A     -0.397541
      19A     -0.374952    20A     -0.340026    21A     -0.324543
      22A     -0.290505    23A     -0.233161    24A     -0.094810
      25A     -0.091897

  @DF-RHF Final Energy:  -554.31835006340668

   => Energetics <=

    Nuclear Repulsion Energy =            222.8001843123467722
    One-Electron Energy =               -1212.4514148965256481
    Two-Electron Energy =                 435.3328805207721075
    Total Energy =                       -554.3183500634067968
  Basis Set: (AUG-CC-PVTZ AUX)
    Blend: AUG-CC-PVTZ-RI
    Molecular point group: c1

    Geometry (in Angstrom), charge = -1, multiplicity = 1:

       Center              X                  Y                   Z               Mass
    ------------   -----------------  -----------------  -----------------  -----------------
         S           -1.874006217912    -0.010808484060    -0.088431391714    31.972071174400
         C            0.946789582088     0.010908815940    -0.266779991714    12.000000000000
         C           -0.242198217912    -0.702607484060     0.341571608286    12.000000000000
         C            1.060424782088     1.452988515940     0.137623608286    12.000000000000
         C            2.259433782088    -0.746462484060    -0.055393391714    12.000000000000
         H            0.758093782088     0.001740515940    -1.400664391714     1.007825032230
         H           -0.066777217912    -0.673404484060     1.431529608286     1.007825032230
         H           -0.184340217912    -1.765748484060     0.057050608286     1.007825032230
         H            1.291984782088     1.493226515940     1.210676608286     1.007825032230
         H            1.851797782088     1.993168515940    -0.399524391714     1.007825032230
         H            0.097176782088     1.941799515940    -0.024281391714     1.007825032230
         H            2.468382782088    -0.778924484060     1.021483608286     1.007825032230
         H            3.115328782088    -0.264525484060    -0.546558391714     1.007825032230
         H            2.200573782088    -1.780992484060    -0.413961391714     1.007825032230

  Basis Set: AUG-CC-PVTZ
    Blend: AUG-CC-PVTZ
  Basis Set: (AUG-CC-PVTZ AUX)
    Blend: AUG-CC-PVTZ-JKFIT
	 Reference Energy          =    -554.3183500634066831 [Eh]
	 Singles Energy            =      -0.0000000000000000 [Eh]
	 Same-Spin Energy          =      -0.2319484158330814 [Eh]
	 Opposite-Spin Energy      =      -0.8021855623826614 [Eh]
	 Correlation Energy        =      -1.0341339782157428 [Eh]
	 Total Energy              =    -555.3524840416224606 [Eh]

	 ================> DF-SCS-MP2 Energies <==================
	-----------------------------------------------------------
	 SCS Same-Spin Scale       =       0.3333333333333333 [-]
	 SCS Opposite-Spin Scale   =       1.2000000000000000 [-]
	 SCS Same-Spin Energy      =      -0.0773161386110271 [Eh]
	 SCS Opposite-Spin Energy  =      -0.9626226748591936 [Eh]
	 SCS Correlation Energy    =      -1.0399388134702208 [Eh]
	 SCS Total Energy          =    -555.3582888768769408 [Eh]
	-----------------------------------------------------------

  Dipole Moment: [D]
     X:     7.2921      Y:    -0.1161      Z:     0.3626     Total:     7.3020

*** Psi4 exiting successfully. Buy a developer a beer!
