                               Psi4 1.4a3.dev225

  ==> Input File <==

--------------------------------------------------------------------------
#psi4
#
memory 32 gb

molecule  {
-1 1
  S       -1.9908660    -0.0115680    -0.0914370
  C        0.8351480     0.0026240    -0.3224040
  C       -0.3704887    -0.6577848     0.3644242
  C        0.9435650     1.4522290     0.1346180
  C        2.1425740    -0.7472220    -0.0583990
  H        0.6412340     0.0009810    -1.4036700
  H       -0.1836370    -0.6741640     1.4285240
  H       -0.3012000    -1.7665080     0.0540450
  H        1.1751250     1.4924670     1.2076710
  H        1.7349380     1.9924090    -0.4025300
  H       -0.0196830     1.9410400    -0.0272870
  H        2.3515230    -0.7796840     1.0184780
  H        2.9984690    -0.2652850    -0.5495640
  H        2.0837140    -1.7817520    -0.4169670
units angstrom
no_reorient  #important for SAPT in psi4, default
symmetry c1  #important for SAPT in psi4, default
}

set PROPERTIES_ORIGIN ["COM"]
properties('MP2/aug-cc-pvtz', properties = ['dipole'])
--------------------------------------------------------------------------

    Molecular point group: c1
  Charge       = -1
  Multiplicity = 1
  Basis Set: AUG-CC-PVTZ
    Blend: AUG-CC-PVTZ
  Basis Set: (AUG-CC-PVTZ AUX)
    Blend: AUG-CC-PVTZ-JKFIT

    Orbital Energies [Eh]
    ---------------------

    Doubly Occupied:

       1A    -91.667785     2A    -11.084496     3A    -11.070994
       4A    -11.062741     5A    -11.062089     6A     -8.668237
       7A     -6.349936     8A     -6.348187     9A     -6.348138
      10A     -0.934352    11A     -0.794054    12A     -0.778559
      13A     -0.639996    14A     -0.576959    15A     -0.472879
      16A     -0.447521    17A     -0.424335    18A     -0.397841
      19A     -0.374397    20A     -0.338293    21A     -0.310607
      22A     -0.303694    23A     -0.238244    24A     -0.094549
      25A     -0.090905

  @DF-RHF Final Energy:  -554.31895829866858

   => Energetics <=

    Nuclear Repulsion Energy =            222.7386584985220281
    One-Electron Energy =               -1212.3556568333563064
    Two-Electron Energy =                 435.2980400361657303
    Total Energy =                       -554.3189582986685764
  Basis Set: (AUG-CC-PVTZ AUX)
    Blend: AUG-CC-PVTZ-RI
    Molecular point group: c1

    Geometry (in Angstrom), charge = -1, multiplicity = 1:

       Center              X                  Y                   Z               Mass
    ------------   -----------------  -----------------  -----------------  -----------------
         S           -1.873168977235    -0.015937302525    -0.084824996872    31.972071174400
         C            0.952845022765    -0.001745302525    -0.315791996872    12.000000000000
         C           -0.252791677235    -0.662154102525     0.371036203128    12.000000000000
         C            1.061262022765     1.447859697475     0.141230003128    12.000000000000
         C            2.260271022765    -0.751591302525    -0.051786996872    12.000000000000
         H            0.758931022765    -0.003388302525    -1.397057996872     1.007825032230
         H           -0.065939977235    -0.678533302525     1.435136003128     1.007825032230
         H           -0.183502977235    -1.770877302525     0.060657003128     1.007825032230
         H            1.292822022765     1.488097697475     1.214283003128     1.007825032230
         H            1.852635022765     1.988039697475    -0.395917996872     1.007825032230
         H            0.098014022765     1.936670697475    -0.020674996872     1.007825032230
         H            2.469220022765    -0.784053302525     1.025090003128     1.007825032230
         H            3.116166022765    -0.269654302525    -0.542951996872     1.007825032230
         H            2.201411022765    -1.786121302525    -0.410354996872     1.007825032230

  Basis Set: AUG-CC-PVTZ
    Blend: AUG-CC-PVTZ
  Basis Set: (AUG-CC-PVTZ AUX)
    Blend: AUG-CC-PVTZ-JKFIT
	 Reference Energy          =    -554.3189582986685764 [Eh]
	 Singles Energy            =      -0.0000000000000000 [Eh]
	 Same-Spin Energy          =      -0.2318228816401765 [Eh]
	 Opposite-Spin Energy      =      -0.8019939162247820 [Eh]
	 Correlation Energy        =      -1.0338167978649584 [Eh]
	 Total Energy              =    -555.3527750965334917 [Eh]

	 ================> DF-SCS-MP2 Energies <==================
	-----------------------------------------------------------
	 SCS Same-Spin Scale       =       0.3333333333333333 [-]
	 SCS Opposite-Spin Scale   =       1.2000000000000000 [-]
	 SCS Same-Spin Energy      =      -0.0772742938800588 [Eh]
	 SCS Opposite-Spin Energy  =      -0.9623926994697384 [Eh]
	 SCS Correlation Energy    =      -1.0396669933497973 [Eh]
	 SCS Total Energy          =    -555.3586252920183597 [Eh]
	-----------------------------------------------------------

  Dipole Moment: [D]
     X:     7.2495      Y:    -0.0905      Z:     0.3291     Total:     7.2575

*** Psi4 exiting successfully. Buy a developer a beer!
