                               Psi4 1.4a3.dev225

  ==> Input File <==

--------------------------------------------------------------------------
#psi4
#
memory 32 gb

molecule  {
-1 1
  S       -1.9908660    -0.0115680    -0.0914370
  C        0.8351480     0.0026240    -0.3224040
  C       -0.5380029    -0.6275040     0.2914117
  C        0.9435650     1.4522290     0.1346180
  C        2.1425740    -0.7472220    -0.0583990
  H        0.6412340     0.0009810    -1.4036700
  H       -0.1836370    -0.6741640     1.4285240
  H       -0.3012000    -1.7665080     0.0540450
  H        1.1751250     1.4924670     1.2076710
  H        1.7349380     1.9924090    -0.4025300
  H       -0.0196830     1.9410400    -0.0272870
  H        2.3515230    -0.7796840     1.0184780
  H        2.9984690    -0.2652850    -0.5495640
  H        2.0837140    -1.7817520    -0.4169670
units angstrom
no_reorient  #important for SAPT in psi4, default
symmetry c1  #important for SAPT in psi4, default
}

set PROPERTIES_ORIGIN ["COM"]
properties('MP2/aug-cc-pvtz', properties = ['dipole'])
--------------------------------------------------------------------------

    Molecular point group: c1
  Charge       = -1
  Multiplicity = 1
  Basis Set: AUG-CC-PVTZ
    Blend: AUG-CC-PVTZ
  Basis Set: (AUG-CC-PVTZ AUX)
    Blend: AUG-CC-PVTZ-JKFIT

    Orbital Energies [Eh]
    ---------------------

    Doubly Occupied:

       1A    -91.665302     2A    -11.084135     3A    -11.076945
       4A    -11.070403     5A    -11.059630     6A     -8.670650
       7A     -6.353051     8A     -6.350502     9A     -6.350427
      10A     -0.923993    11A     -0.813506    12A     -0.782260
      13A     -0.647504    14A     -0.562059    15A     -0.467117
      16A     -0.441095    17A     -0.419771    18A     -0.394512
      19A     -0.357050    20A     -0.336283    21A     -0.299637
      22A     -0.283181    23A     -0.277633    24A     -0.094228
      25A     -0.091046

  @DF-RHF Final Energy:  -554.28316640180037

   => Energetics <=

    Nuclear Repulsion Energy =            223.9452259895415409
    One-Electron Energy =               -1214.7129454306355001
    Two-Electron Energy =                 436.4845530392935871
    Total Energy =                       -554.2831664018003721
  Basis Set: (AUG-CC-PVTZ AUX)
    Blend: AUG-CC-PVTZ-RI
    Molecular point group: c1

    Geometry (in Angstrom), charge = -1, multiplicity = 1:

       Center              X                  Y                   Z               Mass
    ------------   -----------------  -----------------  -----------------  -----------------
         S           -1.850593572458    -0.020018158458    -0.074985313184    31.972071174400
         C            0.975420427542    -0.005826158458    -0.305952313184    12.000000000000
         C           -0.397730472458    -0.635954158458     0.307863386816    12.000000000000
         C            1.083837427542     1.443778841542     0.151069686816    12.000000000000
         C            2.282846427542    -0.755672158458    -0.041947313184    12.000000000000
         H            0.781506427542    -0.007469158458    -1.387218313184     1.007825032230
         H           -0.043364572458    -0.682614158458     1.444975686816     1.007825032230
         H           -0.160927572458    -1.774958158458     0.070496686816     1.007825032230
         H            1.315397427542     1.484016841542     1.224122686816     1.007825032230
         H            1.875210427542     1.983958841542    -0.386078313184     1.007825032230
         H            0.120589427542     1.932589841542    -0.010835313184     1.007825032230
         H            2.491795427542    -0.788134158458     1.034929686816     1.007825032230
         H            3.138741427542    -0.273735158458    -0.533112313184     1.007825032230
         H            2.223986427542    -1.790202158458    -0.400515313184     1.007825032230

  Basis Set: AUG-CC-PVTZ
    Blend: AUG-CC-PVTZ
  Basis Set: (AUG-CC-PVTZ AUX)
    Blend: AUG-CC-PVTZ-JKFIT
	 Reference Energy          =    -554.2831664018003721 [Eh]
	 Singles Energy            =      -0.0000000000000000 [Eh]
	 Same-Spin Energy          =      -0.2350859858287653 [Eh]
	 Opposite-Spin Energy      =      -0.8055296447015563 [Eh]
	 Correlation Energy        =      -1.0406156305303216 [Eh]
	 Total Energy              =    -555.3237820323306551 [Eh]

	 ================> DF-SCS-MP2 Energies <==================
	-----------------------------------------------------------
	 SCS Same-Spin Scale       =       0.3333333333333333 [-]
	 SCS Opposite-Spin Scale   =       1.2000000000000000 [-]
	 SCS Same-Spin Energy      =      -0.0783619952762551 [Eh]
	 SCS Opposite-Spin Energy  =      -0.9666355736418675 [Eh]
	 SCS Correlation Energy    =      -1.0449975689181226 [Eh]
	 SCS Total Energy          =    -555.3281639707184922 [Eh]
	-----------------------------------------------------------

  Dipole Moment: [D]
     X:     6.3892      Y:     0.1204      Z:     0.1205     Total:     6.3915

*** Psi4 exiting successfully. Buy a developer a beer!
