                               Psi4 1.4a3.dev225

  ==> Input File <==

--------------------------------------------------------------------------
#psi4
#
memory 32 gb

molecule  {
-1 1
  S       -1.9908660    -0.0115680    -0.0914370
  C        0.8351480     0.0026240    -0.3224040
  C       -0.3590580    -0.7033670     0.3385660
  C        0.9435650     1.4522290     0.1346180
  C        2.1425740    -0.7472220    -0.0583990
  H        0.6412340     0.0009810    -1.4036700
  H       -0.1836370    -0.6741640     1.4285240
  H       -0.3012000    -1.7665080     0.0540450
  H        1.1592657     1.4823248     1.2113024
  H        1.7349380     1.9924090    -0.4025300
  H       -0.0196830     1.9410400    -0.0272870
  H        2.3515230    -0.7796840     1.0184780
  H        2.9984690    -0.2652850    -0.5495640
  H        2.0837140    -1.7817520    -0.4169670
units angstrom
no_reorient  #important for SAPT in psi4, default
symmetry c1  #important for SAPT in psi4, default
}

set PROPERTIES_ORIGIN ["COM"]
properties('MP2/aug-cc-pvtz', properties = ['dipole'])
--------------------------------------------------------------------------

    Molecular point group: c1
  Charge       = -1
  Multiplicity = 1
  Basis Set: AUG-CC-PVTZ
    Blend: AUG-CC-PVTZ
  Basis Set: (AUG-CC-PVTZ AUX)
    Blend: AUG-CC-PVTZ-JKFIT

    Orbital Energies [Eh]
    ---------------------

    Doubly Occupied:

       1A    -91.667918     2A    -11.084182     3A    -11.070938
       4A    -11.062726     5A    -11.060941     6A     -8.668016
       7A     -6.349654     8A     -6.347962     9A     -6.347916
      10A     -0.934139    11A     -0.792439    12A     -0.779251
      13A     -0.638225    14A     -0.576129    15A     -0.476445
      16A     -0.448192    17A     -0.423060    18A     -0.398620
      19A     -0.375552    20A     -0.338546    21A     -0.313759
      22A     -0.306105    23A     -0.232551    24A     -0.093925
      25A     -0.091500

  @DF-RHF Final Energy:  -554.32209296391920

   => Energetics <=

    Nuclear Repulsion Energy =            222.4520630064084514
    One-Electron Energy =               -1211.7909284284012301
    Two-Electron Energy =                 435.0167724580734898
    Total Energy =                       -554.3220929639192036
  Basis Set: (AUG-CC-PVTZ AUX)
    Blend: AUG-CC-PVTZ-RI
    Molecular point group: c1

    Geometry (in Angstrom), charge = -1, multiplicity = 1:

       Center              X                  Y                   Z               Mass
    ------------   -----------------  -----------------  -----------------  -----------------
         S           -1.874529956602    -0.009679526910    -0.081381263864    31.972071174400
         C            0.951484043398     0.004512473090    -0.312348263864    12.000000000000
         C           -0.242721956602    -0.701478526910     0.348621736136    12.000000000000
         C            1.059901043398     1.454117473090     0.144673736136    12.000000000000
         C            2.258910043398    -0.745333526910    -0.048343263864    12.000000000000
         H            0.757570043398     0.002869473090    -1.393614263864     1.007825032230
         H           -0.067300956602    -0.672275526910     1.438579736136     1.007825032230
         H           -0.184863956602    -1.764619526910     0.064100736136     1.007825032230
         H            1.275601743398     1.484213273090     1.221358136136     1.007825032230
         H            1.851274043398     1.994297473090    -0.392474263864     1.007825032230
         H            0.096653043398     1.942928473090    -0.017231263864     1.007825032230
         H            2.467859043398    -0.777795526910     1.028533736136     1.007825032230
         H            3.114805043398    -0.263396526910    -0.539508263864     1.007825032230
         H            2.200050043398    -1.779863526910    -0.406911263864     1.007825032230

  Basis Set: AUG-CC-PVTZ
    Blend: AUG-CC-PVTZ
  Basis Set: (AUG-CC-PVTZ AUX)
    Blend: AUG-CC-PVTZ-JKFIT
	 Reference Energy          =    -554.3220929639192036 [Eh]
	 Singles Energy            =      -0.0000000000000000 [Eh]
	 Same-Spin Energy          =      -0.2315839278997725 [Eh]
	 Opposite-Spin Energy      =      -0.8016794503774447 [Eh]
	 Correlation Energy        =      -1.0332633782772171 [Eh]
	 Total Energy              =    -555.3553563421963872 [Eh]

	 ================> DF-SCS-MP2 Energies <==================
	-----------------------------------------------------------
	 SCS Same-Spin Scale       =       0.3333333333333333 [-]
	 SCS Opposite-Spin Scale   =       1.2000000000000000 [-]
	 SCS Same-Spin Energy      =      -0.0771946426332575 [Eh]
	 SCS Opposite-Spin Energy  =      -0.9620153404529336 [Eh]
	 SCS Correlation Energy    =      -1.0392099830861912 [Eh]
	 SCS Total Energy          =    -555.3613029470053561 [Eh]
	-----------------------------------------------------------

  Dipole Moment: [D]
     X:     7.3068      Y:    -0.1356      Z:     0.3176     Total:     7.3149

*** Psi4 exiting successfully. Buy a developer a beer!
