                               Psi4 1.4a3.dev225

  ==> Input File <==

--------------------------------------------------------------------------
#psi4
#
memory 32 gb

molecule  {
-1 1
  S       -1.9908660    -0.0115680    -0.0914370
  C        0.8351480     0.0026240    -0.3224040
  C       -0.3649561    -0.6806800     0.3515978
  C        0.9435650     1.4522290     0.1346180
  C        2.1425740    -0.7472220    -0.0583990
  H        0.6412340     0.0009810    -1.4036700
  H       -0.1836370    -0.6741640     1.4285240
  H       -0.3012000    -1.7665080     0.0540450
  H        1.1751250     1.4924670     1.2076710
  H        1.7349380     1.9924090    -0.4025300
  H       -0.0196830     1.9410400    -0.0272870
  H        2.3515230    -0.7796840     1.0184780
  H        2.9984690    -0.2652850    -0.5495640
  H        2.0837140    -1.7817520    -0.4169670
units angstrom
no_reorient  #important for SAPT in psi4, default
symmetry c1  #important for SAPT in psi4, default
}

set PROPERTIES_ORIGIN ["COM"]
properties('MP2/aug-cc-pvtz', properties = ['dipole'])
--------------------------------------------------------------------------

    Molecular point group: c1
  Charge       = -1
  Multiplicity = 1
  Basis Set: AUG-CC-PVTZ
    Blend: AUG-CC-PVTZ
  Basis Set: (AUG-CC-PVTZ AUX)
    Blend: AUG-CC-PVTZ-JKFIT

    Orbital Energies [Eh]
    ---------------------

    Doubly Occupied:

       1A    -91.667802     2A    -11.084351     3A    -11.070977
       4A    -11.062409     5A    -11.061746     6A     -8.668081
       7A     -6.349749     8A     -6.348030     9A     -6.347982
      10A     -0.934186    11A     -0.793194    12A     -0.778910
      13A     -0.639188    14A     -0.576375    15A     -0.474456
      16A     -0.447670    17A     -0.424030    18A     -0.397933
      19A     -0.374946    20A     -0.338550    21A     -0.309855
      22A     -0.307490    23A     -0.235418    24A     -0.094141
      25A     -0.091312

  @DF-RHF Final Energy:  -554.32118324378064

   => Energetics <=

    Nuclear Repulsion Energy =            222.5855309116573437
    One-Electron Energy =               -1212.0558701172785732
    Two-Electron Energy =                 435.1491559618406200
    Total Energy =                       -554.3211832437806379
  Basis Set: (AUG-CC-PVTZ AUX)
    Blend: AUG-CC-PVTZ-RI
    Molecular point group: c1

    Geometry (in Angstrom), charge = -1, multiplicity = 1:

       Center              X                  Y                   Z               Mass
    ------------   -----------------  -----------------  -----------------  -----------------
         S           -1.873914589753    -0.012851782566    -0.083096420000    31.972071174400
         C            0.952099410247     0.001340217434    -0.314063420000    12.000000000000
         C           -0.248004689753    -0.681963782566     0.359938380000    12.000000000000
         C            1.060516410247     1.450945217434     0.142958580000    12.000000000000
         C            2.259525410247    -0.748505782566    -0.050058420000    12.000000000000
         H            0.758185410247    -0.000302782566    -1.395329420000     1.007825032230
         H           -0.066685589753    -0.675447782566     1.436864580000     1.007825032230
         H           -0.184248589753    -1.767791782566     0.062385580000     1.007825032230
         H            1.292076410247     1.491183217434     1.216011580000     1.007825032230
         H            1.851889410247     1.991125217434    -0.394189420000     1.007825032230
         H            0.097268410247     1.939756217434    -0.018946420000     1.007825032230
         H            2.468474410247    -0.780967782566     1.026818580000     1.007825032230
         H            3.115420410247    -0.266568782566    -0.541223420000     1.007825032230
         H            2.200665410247    -1.783035782566    -0.408626420000     1.007825032230

  Basis Set: AUG-CC-PVTZ
    Blend: AUG-CC-PVTZ
  Basis Set: (AUG-CC-PVTZ AUX)
    Blend: AUG-CC-PVTZ-JKFIT
	 Reference Energy          =    -554.3211832437806379 [Eh]
	 Singles Energy            =      -0.0000000000000000 [Eh]
	 Same-Spin Energy          =      -0.2316812342187205 [Eh]
	 Opposite-Spin Energy      =      -0.8017887473346261 [Eh]
	 Correlation Energy        =      -1.0334699815533466 [Eh]
	 Total Energy              =    -555.3546532253340047 [Eh]

	 ================> DF-SCS-MP2 Energies <==================
	-----------------------------------------------------------
	 SCS Same-Spin Scale       =       0.3333333333333333 [-]
	 SCS Opposite-Spin Scale   =       1.2000000000000000 [-]
	 SCS Same-Spin Energy      =      -0.0772270780729068 [Eh]
	 SCS Opposite-Spin Energy  =      -0.9621464968015513 [Eh]
	 SCS Correlation Energy    =      -1.0393735748744581 [Eh]
	 SCS Total Energy          =    -555.3605568186551409 [Eh]
	-----------------------------------------------------------

  Dipole Moment: [D]
     X:     7.2817      Y:    -0.1152      Z:     0.3254     Total:     7.2899

*** Psi4 exiting successfully. Buy a developer a beer!
