                               Psi4 1.4a3.dev225

  ==> Input File <==

--------------------------------------------------------------------------
#psi4
#
memory 32 gb

molecule  {
-1 1
  S       -1.9908660    -0.0115680    -0.0914370
  C        0.8351480     0.0026240    -0.3224040
  C       -0.3590580    -0.7033670     0.3385660
  C        0.9435650     1.4522290     0.1346180
  C        2.1425740    -0.7472220    -0.0583990
  H        0.6412340     0.0009810    -1.4036700
  H       -0.1836370    -0.6741640     1.4285240
  H       -0.3022500    -1.7472146     0.0592084
  H        1.1751250     1.4924670     1.2076710
  H        1.7349380     1.9924090    -0.4025300
  H       -0.0196830     1.9410400    -0.0272870
  H        2.3515230    -0.7796840     1.0184780
  H        2.9984690    -0.2652850    -0.5495640
  H        2.0837140    -1.7817520    -0.4169670
units angstrom
no_reorient  #important for SAPT in psi4, default
symmetry c1  #important for SAPT in psi4, default
}

set PROPERTIES_ORIGIN ["COM"]
properties('MP2/aug-cc-pvtz', properties = ['dipole'])
--------------------------------------------------------------------------

    Molecular point group: c1
  Charge       = -1
  Multiplicity = 1
  Basis Set: AUG-CC-PVTZ
    Blend: AUG-CC-PVTZ
  Basis Set: (AUG-CC-PVTZ AUX)
    Blend: AUG-CC-PVTZ-JKFIT

    Orbital Energies [Eh]
    ---------------------

    Doubly Occupied:

       1A    -91.667690     2A    -11.084295     3A    -11.070856
       4A    -11.062605     5A    -11.058301     6A     -8.667790
       7A     -6.349428     8A     -6.347739     9A     -6.347691
      10A     -0.934247    11A     -0.792673    12A     -0.780327
      13A     -0.638258    14A     -0.577110    15A     -0.477125
      16A     -0.448533    17A     -0.423703    18A     -0.398149
      19A     -0.376389    20A     -0.339088    21A     -0.314891
      22A     -0.305783    23A     -0.232370    24A     -0.093785
      25A     -0.091402

  @DF-RHF Final Energy:  -554.32226492954783

   => Energetics <=

    Nuclear Repulsion Energy =            222.5270259384555231
    One-Electron Energy =               -1211.9381300231566456
    Two-Electron Energy =                 435.0888391551533232
    Total Energy =                       -554.3222649295478277
  Basis Set: (AUG-CC-PVTZ AUX)
    Blend: AUG-CC-PVTZ-RI
    Molecular point group: c1

    Geometry (in Angstrom), charge = -1, multiplicity = 1:

       Center              X                  Y                   Z               Mass
    ------------   -----------------  -----------------  -----------------  -----------------
         S           -1.874697575254    -0.010012692934    -0.081398603763    31.972071174400
         C            0.951316424746     0.004179307066    -0.312365603763    12.000000000000
         C           -0.242889575254    -0.701811692934     0.348604396237    12.000000000000
         C            1.059733424746     1.453784307066     0.144656396237    12.000000000000
         C            2.258742424746    -0.745666692934    -0.048360603763    12.000000000000
         H            0.757402424746     0.002536307066    -1.393631603763     1.007825032230
         H           -0.067468575254    -0.672608692934     1.438562396237     1.007825032230
         H           -0.186081575254    -1.745659292934     0.069246796237     1.007825032230
         H            1.291293424746     1.494022307066     1.217709396237     1.007825032230
         H            1.851106424746     1.993964307066    -0.392491603763     1.007825032230
         H            0.096485424746     1.942595307066    -0.017248603763     1.007825032230
         H            2.467691424746    -0.778128692934     1.028516396237     1.007825032230
         H            3.114637424746    -0.263729692934    -0.539525603763     1.007825032230
         H            2.199882424746    -1.780196692934    -0.406928603763     1.007825032230

  Basis Set: AUG-CC-PVTZ
    Blend: AUG-CC-PVTZ
  Basis Set: (AUG-CC-PVTZ AUX)
    Blend: AUG-CC-PVTZ-JKFIT
	 Reference Energy          =    -554.3222649295478277 [Eh]
	 Singles Energy            =      -0.0000000000000000 [Eh]
	 Same-Spin Energy          =      -0.2315399447450445 [Eh]
	 Opposite-Spin Energy      =      -0.8015127073312094 [Eh]
	 Correlation Energy        =      -1.0330526520762540 [Eh]
	 Total Energy              =    -555.3553175816240355 [Eh]

	 ================> DF-SCS-MP2 Energies <==================
	-----------------------------------------------------------
	 SCS Same-Spin Scale       =       0.3333333333333333 [-]
	 SCS Opposite-Spin Scale   =       1.2000000000000000 [-]
	 SCS Same-Spin Energy      =      -0.0771799815816815 [Eh]
	 SCS Opposite-Spin Energy  =      -0.9618152487974512 [Eh]
	 SCS Correlation Energy    =      -1.0389952303791328 [Eh]
	 SCS Total Energy          =    -555.3612601599269283 [Eh]
	-----------------------------------------------------------

  Dipole Moment: [D]
     X:     7.3260      Y:    -0.1571      Z:     0.3227     Total:     7.3348

*** Psi4 exiting successfully. Buy a developer a beer!
