                               Psi4 1.4a3.dev225

  ==> Input File <==

--------------------------------------------------------------------------
#psi4
#
memory 32 gb

molecule  {
-1 1
  S       -1.9908660    -0.0115680    -0.0914370
  C        0.8323393     0.0065014    -0.2961310
  C       -0.3590580    -0.7033670     0.3385660
  C        0.9435650     1.4522290     0.1346180
  C        2.1425740    -0.7472220    -0.0583990
  H        0.6412340     0.0009810    -1.4036700
  H       -0.1836370    -0.6741640     1.4285240
  H       -0.3012000    -1.7665080     0.0540450
  H        1.1751250     1.4924670     1.2076710
  H        1.7349380     1.9924090    -0.4025300
  H       -0.0196830     1.9410400    -0.0272870
  H        2.3515230    -0.7796840     1.0184780
  H        2.9984690    -0.2652850    -0.5495640
  H        2.0837140    -1.7817520    -0.4169670
units angstrom
no_reorient  #important for SAPT in psi4, default
symmetry c1  #important for SAPT in psi4, default
}

set PROPERTIES_ORIGIN ["COM"]
properties('MP2/aug-cc-pvtz', properties = ['dipole'])
--------------------------------------------------------------------------

    Molecular point group: c1
  Charge       = -1
  Multiplicity = 1
  Basis Set: AUG-CC-PVTZ
    Blend: AUG-CC-PVTZ
  Basis Set: (AUG-CC-PVTZ AUX)
    Blend: AUG-CC-PVTZ-JKFIT

    Orbital Energies [Eh]
    ---------------------

    Doubly Occupied:

       1A    -91.668143     2A    -11.084387     3A    -11.072290
       4A    -11.062774     5A    -11.060645     6A     -8.668239
       7A     -6.349877     8A     -6.348178     9A     -6.348133
      10A     -0.936067    11A     -0.793386    12A     -0.781331
      13A     -0.636862    14A     -0.574392    15A     -0.477637
      16A     -0.449072    17A     -0.424985    18A     -0.397740
      19A     -0.375159    20A     -0.339377    21A     -0.319147
      22A     -0.298642    23A     -0.232918    24A     -0.094367
      25A     -0.091692

  @DF-RHF Final Energy:  -554.32098938586455

   => Energetics <=

    Nuclear Repulsion Energy =            222.6191329795674960
    One-Electron Energy =               -1212.1093657032720330
    Two-Electron Energy =                 435.1692433378400438
    Total Energy =                       -554.3209893858645501
  Basis Set: (AUG-CC-PVTZ AUX)
    Blend: AUG-CC-PVTZ-RI
    Molecular point group: c1

    Geometry (in Angstrom), charge = -1, multiplicity = 1:

       Center              X                  Y                   Z               Mass
    ------------   -----------------  -----------------  -----------------  -----------------
         S           -1.874330939266    -0.010316867116    -0.084880898269    31.972071174400
         C            0.948874360734     0.007752532884    -0.289574898269    12.000000000000
         C           -0.242522939266    -0.702115867116     0.345122101731    12.000000000000
         C            1.060100060734     1.453480132884     0.141174101731    12.000000000000
         C            2.259109060734    -0.745970867116    -0.051842898269    12.000000000000
         H            0.757769060734     0.002232132884    -1.397113898269     1.007825032230
         H           -0.067101939266    -0.672912867116     1.435080101731     1.007825032230
         H           -0.184664939266    -1.765256867116     0.060601101731     1.007825032230
         H            1.291660060734     1.493718132884     1.214227101731     1.007825032230
         H            1.851473060734     1.993660132884    -0.395973898269     1.007825032230
         H            0.096852060734     1.942291132884    -0.020730898269     1.007825032230
         H            2.468058060734    -0.778432867116     1.025034101731     1.007825032230
         H            3.115004060734    -0.264033867116    -0.543007898269     1.007825032230
         H            2.200249060734    -1.780500867116    -0.410410898269     1.007825032230

  Basis Set: AUG-CC-PVTZ
    Blend: AUG-CC-PVTZ
  Basis Set: (AUG-CC-PVTZ AUX)
    Blend: AUG-CC-PVTZ-JKFIT
	 Reference Energy          =    -554.3209893858645501 [Eh]
	 Singles Energy            =      -0.0000000000000000 [Eh]
	 Same-Spin Energy          =      -0.2317386964921146 [Eh]
	 Opposite-Spin Energy      =      -0.8018759540948082 [Eh]
	 Correlation Energy        =      -1.0336146505869228 [Eh]
	 Total Energy              =    -555.3546040364515193 [Eh]

	 ================> DF-SCS-MP2 Energies <==================
	-----------------------------------------------------------
	 SCS Same-Spin Scale       =       0.3333333333333333 [-]
	 SCS Opposite-Spin Scale   =       1.2000000000000000 [-]
	 SCS Same-Spin Energy      =      -0.0772462321640382 [Eh]
	 SCS Opposite-Spin Energy  =      -0.9622511449137697 [Eh]
	 SCS Correlation Energy    =      -1.0394973770778080 [Eh]
	 SCS Total Energy          =    -555.3604867629424007 [Eh]
	-----------------------------------------------------------

  Dipole Moment: [D]
     X:     7.3025      Y:    -0.1252      Z:     0.3403     Total:     7.3115

*** Psi4 exiting successfully. Buy a developer a beer!
