                               Psi4 1.4a3.dev225

  ==> Input File <==

--------------------------------------------------------------------------
#psi4
#
memory 32 gb

molecule  {
-1 1
  S       -1.9908660    -0.0115680    -0.0914370
  C        0.8503549    -0.0151569    -0.4266120
  C       -0.3590580    -0.7033670     0.3385660
  C        0.9435650     1.4522290     0.1346180
  C        2.1425740    -0.7472220    -0.0583990
  H        0.6412340     0.0009810    -1.4036700
  H       -0.1836370    -0.6741640     1.4285240
  H       -0.3012000    -1.7665080     0.0540450
  H        1.1751250     1.4924670     1.2076710
  H        1.7349380     1.9924090    -0.4025300
  H       -0.0196830     1.9410400    -0.0272870
  H        2.3515230    -0.7796840     1.0184780
  H        2.9984690    -0.2652850    -0.5495640
  H        2.0837140    -1.7817520    -0.4169670
units angstrom
no_reorient  #important for SAPT in psi4, default
symmetry c1  #important for SAPT in psi4, default
}

set PROPERTIES_ORIGIN ["COM"]
properties('MP2/aug-cc-pvtz', properties = ['dipole'])
--------------------------------------------------------------------------

    Molecular point group: c1
  Charge       = -1
  Multiplicity = 1
  Basis Set: AUG-CC-PVTZ
    Blend: AUG-CC-PVTZ
  Basis Set: (AUG-CC-PVTZ AUX)
    Blend: AUG-CC-PVTZ-JKFIT

    Orbital Energies [Eh]
    ---------------------

    Doubly Occupied:

       1A    -91.667273     2A    -11.084677     3A    -11.067880
       4A    -11.063653     5A    -11.062959     6A     -8.667368
       7A     -6.349000     8A     -6.347335     9A     -6.347283
      10A     -0.927241    11A     -0.788891    12A     -0.772074
      13A     -0.649964    14A     -0.581521    15A     -0.470679
      16A     -0.444917    17A     -0.419805    18A     -0.399934
      19A     -0.377370    20A     -0.347666    21A     -0.322137
      22A     -0.290402    23A     -0.230365    24A     -0.092353
      25A     -0.090716

  @DF-RHF Final Energy:  -554.30987643705316

   => Energetics <=

    Nuclear Repulsion Energy =            221.6047665209790694
    One-Electron Energy =               -1210.1023647678496218
    Two-Electron Energy =                 434.1877218098174467
    Total Energy =                       -554.3098764370531626
  Basis Set: (AUG-CC-PVTZ AUX)
    Blend: AUG-CC-PVTZ-RI
    Molecular point group: c1

    Geometry (in Angstrom), charge = -1, multiplicity = 1:

       Center              X                  Y                   Z               Mass
    ------------   -----------------  -----------------  -----------------  -----------------
         S           -1.876758849630    -0.007398040597    -0.067296350866    31.972071174400
         C            0.964462050370    -0.010986940597    -0.402471350866    12.000000000000
         C           -0.244950849630    -0.699197040597     0.362706649134    12.000000000000
         C            1.057672150370     1.456398959403     0.158758649134    12.000000000000
         C            2.256681150370    -0.743052040597    -0.034258350866    12.000000000000
         H            0.755341150370     0.005150959403    -1.379529350866     1.007825032230
         H           -0.069529849630    -0.669994040597     1.452664649134     1.007825032230
         H           -0.187092849630    -1.762338040597     0.078185649134     1.007825032230
         H            1.289232150370     1.496636959403     1.231811649134     1.007825032230
         H            1.849045150370     1.996578959403    -0.378389350866     1.007825032230
         H            0.094424150370     1.945209959403    -0.003146350866     1.007825032230
         H            2.465630150370    -0.775514040597     1.042618649134     1.007825032230
         H            3.112576150370    -0.261115040597    -0.525423350866     1.007825032230
         H            2.197821150370    -1.777582040597    -0.392826350866     1.007825032230

  Basis Set: AUG-CC-PVTZ
    Blend: AUG-CC-PVTZ
  Basis Set: (AUG-CC-PVTZ AUX)
    Blend: AUG-CC-PVTZ-JKFIT
	 Reference Energy          =    -554.3098764370531626 [Eh]
	 Singles Energy            =      -0.0000000000000000 [Eh]
	 Same-Spin Energy          =      -0.2312347479844286 [Eh]
	 Opposite-Spin Energy      =      -0.8017436522991019 [Eh]
	 Correlation Energy        =      -1.0329784002835305 [Eh]
	 Total Energy              =    -555.3428548373367448 [Eh]

	 ================> DF-SCS-MP2 Energies <==================
	-----------------------------------------------------------
	 SCS Same-Spin Scale       =       0.3333333333333333 [-]
	 SCS Opposite-Spin Scale   =       1.2000000000000000 [-]
	 SCS Same-Spin Energy      =      -0.0770782493281428 [Eh]
	 SCS Opposite-Spin Energy  =      -0.9620923827589223 [Eh]
	 SCS Correlation Energy    =      -1.0391706320870651 [Eh]
	 SCS Total Energy          =    -555.3490470691402834 [Eh]
	-----------------------------------------------------------

  Dipole Moment: [D]
     X:     7.3382      Y:    -0.1798      Z:     0.2598     Total:     7.3450

*** Psi4 exiting successfully. Buy a developer a beer!
