                               Psi4 1.4a3.dev225

  ==> Input File <==

--------------------------------------------------------------------------
#psi4
#
memory 32 gb

molecule  {
-1 1
  S       -1.9908660    -0.0115680    -0.0914370
  C        0.8383549    -0.0014818    -0.3485966
  C       -0.3590580    -0.7033670     0.3385660
  C        0.9435650     1.4522290     0.1346180
  C        2.1425740    -0.7472220    -0.0583990
  H        0.6412340     0.0009810    -1.4036700
  H       -0.1836370    -0.6741640     1.4285240
  H       -0.3012000    -1.7665080     0.0540450
  H        1.1751250     1.4924670     1.2076710
  H        1.7349380     1.9924090    -0.4025300
  H       -0.0196830     1.9410400    -0.0272870
  H        2.3515230    -0.7796840     1.0184780
  H        2.9984690    -0.2652850    -0.5495640
  H        2.0837140    -1.7817520    -0.4169670
units angstrom
no_reorient  #important for SAPT in psi4, default
symmetry c1  #important for SAPT in psi4, default
}

set PROPERTIES_ORIGIN ["COM"]
properties('MP2/aug-cc-pvtz', properties = ['dipole'])
--------------------------------------------------------------------------

    Molecular point group: c1
  Charge       = -1
  Multiplicity = 1
  Basis Set: AUG-CC-PVTZ
    Blend: AUG-CC-PVTZ
  Basis Set: (AUG-CC-PVTZ AUX)
    Blend: AUG-CC-PVTZ-JKFIT

    Orbital Energies [Eh]
    ---------------------

    Doubly Occupied:

       1A    -91.667712     2A    -11.084149     3A    -11.070019
       4A    -11.062882     5A    -11.061299     6A     -8.667813
       7A     -6.349449     8A     -6.347765     9A     -6.347717
      10A     -0.932221    11A     -0.791471    12A     -0.777449
      13A     -0.640434    14A     -0.577770    15A     -0.474804
      16A     -0.447132    17A     -0.422454    18A     -0.398407
      19A     -0.375751    20A     -0.339063    21A     -0.314145
      22A     -0.306954    23A     -0.232088    24A     -0.093514
      25A     -0.091304

  @DF-RHF Final Energy:  -554.32172940857674

   => Energetics <=

    Nuclear Repulsion Energy =            222.2328972029287115
    One-Electron Energy =               -1211.3617207778065676
    Two-Electron Energy =                 434.8070941663011695
    Total Energy =                       -554.3217294085766298
  Basis Set: (AUG-CC-PVTZ AUX)
    Blend: AUG-CC-PVTZ-RI
    Molecular point group: c1

    Geometry (in Angstrom), charge = -1, multiplicity = 1:

       Center              X                  Y                   Z               Mass
    ------------   -----------------  -----------------  -----------------  -----------------
         S           -1.875141644298    -0.009240994316    -0.077810260933    31.972071174400
         C            0.954079255702     0.000845205684    -0.334969860933    12.000000000000
         C           -0.243333644298    -0.701039994316     0.352192739067    12.000000000000
         C            1.059289355702     1.454556005684     0.148244739067    12.000000000000
         C            2.258298355702    -0.744894994316    -0.044772260933    12.000000000000
         H            0.756958355702     0.003308005684    -1.390043260933     1.007825032230
         H           -0.067912644298    -0.671836994316     1.442150739067     1.007825032230
         H           -0.185475644298    -1.764180994316     0.067671739067     1.007825032230
         H            1.290849355702     1.494794005684     1.221297739067     1.007825032230
         H            1.850662355702     1.994736005684    -0.388903260933     1.007825032230
         H            0.096041355702     1.943367005684    -0.013660260933     1.007825032230
         H            2.467247355702    -0.777356994316     1.032104739067     1.007825032230
         H            3.114193355702    -0.262957994316    -0.535937260933     1.007825032230
         H            2.199438355702    -1.779424994316    -0.403340260933     1.007825032230

  Basis Set: AUG-CC-PVTZ
    Blend: AUG-CC-PVTZ
  Basis Set: (AUG-CC-PVTZ AUX)
    Blend: AUG-CC-PVTZ-JKFIT
	 Reference Energy          =    -554.3217294085767435 [Eh]
	 Singles Energy            =      -0.0000000000000000 [Eh]
	 Same-Spin Energy          =      -0.2314238667709437 [Eh]
	 Opposite-Spin Energy      =      -0.8015236143231903 [Eh]
	 Correlation Energy        =      -1.0329474810941339 [Eh]
	 Total Energy              =    -555.3546768896708272 [Eh]

	 ================> DF-SCS-MP2 Energies <==================
	-----------------------------------------------------------
	 SCS Same-Spin Scale       =       0.3333333333333333 [-]
	 SCS Opposite-Spin Scale   =       1.2000000000000000 [-]
	 SCS Same-Spin Energy      =      -0.0771412889236479 [Eh]
	 SCS Opposite-Spin Energy  =      -0.9618283371878283 [Eh]
	 SCS Correlation Energy    =      -1.0389696261114763 [Eh]
	 SCS Total Energy          =    -555.3606990346881958 [Eh]
	-----------------------------------------------------------

  Dipole Moment: [D]
     X:     7.3198      Y:    -0.1453      Z:     0.3023     Total:     7.3275

*** Psi4 exiting successfully. Buy a developer a beer!
