                               Psi4 1.4a3.dev225

  ==> Input File <==

--------------------------------------------------------------------------
#psi4
#
memory 32 gb

molecule  {
-1 1
  S       -1.9908660    -0.0115680    -0.0914370
  C        0.8351480     0.0026240    -0.3224040
  C       -0.3590580    -0.7033670     0.3385660
  C        0.9435650     1.4522290     0.1346180
  C        2.1425740    -0.7472220    -0.0583990
  H        0.6412340     0.0009810    -1.4036700
  H       -0.1836370    -0.6741640     1.4285240
  H       -0.3012000    -1.7665080     0.0540450
  H        1.1751250     1.4924670     1.2076710
  H        1.7349380     1.9924090    -0.4025300
  H       -0.0196830     1.9410400    -0.0272870
  H        2.3553309    -0.7802756     1.0381032
  H        2.9984690    -0.2652850    -0.5495640
  H        2.0837140    -1.7817520    -0.4169670
units angstrom
no_reorient  #important for SAPT in psi4, default
symmetry c1  #important for SAPT in psi4, default
}

set PROPERTIES_ORIGIN ["COM"]
properties('MP2/aug-cc-pvtz', properties = ['dipole'])
--------------------------------------------------------------------------

    Molecular point group: c1
  Charge       = -1
  Multiplicity = 1
  Basis Set: AUG-CC-PVTZ
    Blend: AUG-CC-PVTZ
  Basis Set: (AUG-CC-PVTZ AUX)
    Blend: AUG-CC-PVTZ-JKFIT

    Orbital Energies [Eh]
    ---------------------

    Doubly Occupied:

       1A    -91.667958     2A    -11.086822     3A    -11.071373
       4A    -11.062839     5A    -11.060981     6A     -8.668058
       7A     -6.349695     8A     -6.348004     9A     -6.347957
      10A     -0.933866    11A     -0.791152    12A     -0.779418
      13A     -0.637936    14A     -0.576058    15A     -0.475667
      16A     -0.448033    17A     -0.423947    18A     -0.395484
      19A     -0.375272    20A     -0.339121    21A     -0.314094
      22A     -0.305900    23A     -0.232647    24A     -0.093993
      25A     -0.091540

  @DF-RHF Final Energy:  -554.32167624181579

   => Energetics <=

    Nuclear Repulsion Energy =            222.3494779867559714
    One-Electron Energy =               -1211.5866789726478601
    Two-Electron Energy =                 434.9155247440760377
    Total Energy =                       -554.3216762418157941
  Basis Set: (AUG-CC-PVTZ AUX)
    Blend: AUG-CC-PVTZ-RI
    Molecular point group: c1

    Geometry (in Angstrom), charge = -1, multiplicity = 1:

       Center              X                  Y                   Z               Mass
    ------------   -----------------  -----------------  -----------------  -----------------
         S           -1.874752559261    -0.009787625112    -0.081562289246    31.972071174400
         C            0.951261440739     0.004404374888    -0.312529289246    12.000000000000
         C           -0.242944559261    -0.701586625112     0.348440710754    12.000000000000
         C            1.059678440739     1.454009374888     0.144492710754    12.000000000000
         C            2.258687440739    -0.745441625112    -0.048524289246    12.000000000000
         H            0.757347440739     0.002761374888    -1.393795289246     1.007825032230
         H           -0.067523559261    -0.672383625112     1.438398710754     1.007825032230
         H           -0.185086559261    -1.764727625112     0.063919710754     1.007825032230
         H            1.291238440739     1.494247374888     1.217545710754     1.007825032230
         H            1.851051440739     1.994189374888    -0.392655289246     1.007825032230
         H            0.096430440739     1.942820374888    -0.017412289246     1.007825032230
         H            2.471444340739    -0.778495225112     1.047977910754     1.007825032230
         H            3.114582440739    -0.263504625112    -0.539689289246     1.007825032230
         H            2.199827440739    -1.779971625112    -0.407092289246     1.007825032230

  Basis Set: AUG-CC-PVTZ
    Blend: AUG-CC-PVTZ
  Basis Set: (AUG-CC-PVTZ AUX)
    Blend: AUG-CC-PVTZ-JKFIT
	 Reference Energy          =    -554.3216762418157941 [Eh]
	 Singles Energy            =      -0.0000000000000000 [Eh]
	 Same-Spin Energy          =      -0.2315594715545737 [Eh]
	 Opposite-Spin Energy      =      -0.8017709431078405 [Eh]
	 Correlation Energy        =      -1.0333304146624143 [Eh]
	 Total Energy              =    -555.3550066564781673 [Eh]

	 ================> DF-SCS-MP2 Energies <==================
	-----------------------------------------------------------
	 SCS Same-Spin Scale       =       0.3333333333333333 [-]
	 SCS Opposite-Spin Scale   =       1.2000000000000000 [-]
	 SCS Same-Spin Energy      =      -0.0771864905181912 [Eh]
	 SCS Opposite-Spin Energy  =      -0.9621251317294085 [Eh]
	 SCS Correlation Energy    =      -1.0393116222475998 [Eh]
	 SCS Total Energy          =    -555.3609878640634179 [Eh]
	-----------------------------------------------------------

  Dipole Moment: [D]
     X:     7.3026      Y:    -0.1319      Z:     0.3057     Total:     7.3101

*** Psi4 exiting successfully. Buy a developer a beer!
