                               Psi4 1.4a3.dev225

  ==> Input File <==

--------------------------------------------------------------------------
#psi4
#
memory 32 gb

molecule  {
-1 1
  S       -1.9908660    -0.0115680    -0.0914370
  C        0.8351480     0.0026240    -0.3224040
  C       -0.3590580    -0.7033670     0.3385660
  C        0.9435650     1.4522290     0.1346180
  C        2.1425740    -0.7472220    -0.0583990
  H        0.6412340     0.0009810    -1.4036700
  H       -0.1836370    -0.6741640     1.4285240
  H       -0.3038250    -1.7182744     0.0669534
  H        1.1751250     1.4924670     1.2076710
  H        1.7349380     1.9924090    -0.4025300
  H       -0.0196830     1.9410400    -0.0272870
  H        2.3515230    -0.7796840     1.0184780
  H        2.9984690    -0.2652850    -0.5495640
  H        2.0837140    -1.7817520    -0.4169670
units angstrom
no_reorient  #important for SAPT in psi4, default
symmetry c1  #important for SAPT in psi4, default
}

set PROPERTIES_ORIGIN ["COM"]
properties('MP2/aug-cc-pvtz', properties = ['dipole'])
--------------------------------------------------------------------------

    Molecular point group: c1
  Charge       = -1
  Multiplicity = 1
  Basis Set: AUG-CC-PVTZ
    Blend: AUG-CC-PVTZ
  Basis Set: (AUG-CC-PVTZ AUX)
    Blend: AUG-CC-PVTZ-JKFIT

    Orbital Energies [Eh]
    ---------------------

    Doubly Occupied:

       1A    -91.667391     2A    -11.084422     3A    -11.070566
       4A    -11.062361     5A    -11.054335     6A     -8.667490
       7A     -6.349129     8A     -6.347444     9A     -6.347395
      10A     -0.934531    11A     -0.793237    12A     -0.781824
      13A     -0.638078    14A     -0.578729    15A     -0.478604
      16A     -0.449265    17A     -0.423745    18A     -0.398362
      19A     -0.377826    20A     -0.339304    21A     -0.316142
      22A     -0.305506    23A     -0.232129    24A     -0.093594
      25A     -0.091281

  @DF-RHF Final Energy:  -554.32146705405057

   => Energetics <=

    Nuclear Repulsion Energy =            222.6770961961749720
    One-Electron Energy =               -1212.2317466068250269
    Two-Electron Energy =                 435.2331833565995112
    Total Energy =                       -554.3214670540505722
  Basis Set: (AUG-CC-PVTZ AUX)
    Blend: AUG-CC-PVTZ-RI
    Molecular point group: c1

    Geometry (in Angstrom), charge = -1, multiplicity = 1:

       Center              X                  Y                   Z               Mass
    ------------   -----------------  -----------------  -----------------  -----------------
         S           -1.874679748660    -0.010340251787    -0.081486265331    31.972071174400
         C            0.951334251340     0.003851748213    -0.312453265331    12.000000000000
         C           -0.242871748660    -0.702139251787     0.348516734669    12.000000000000
         C            1.059751251340     1.453456748213     0.144568734669    12.000000000000
         C            2.258760251340    -0.745994251787    -0.048448265331    12.000000000000
         H            0.757420251340     0.002208748213    -1.393719265331     1.007825032230
         H           -0.067450748660    -0.672936251787     1.438474734669     1.007825032230
         H           -0.187638748660    -1.717046651787     0.076904134669     1.007825032230
         H            1.291311251340     1.493694748213     1.217621734669     1.007825032230
         H            1.851124251340     1.993636748213    -0.392579265331     1.007825032230
         H            0.096503251340     1.942267748213    -0.017336265331     1.007825032230
         H            2.467709251340    -0.778456251787     1.028428734669     1.007825032230
         H            3.114655251340    -0.264057251787    -0.539613265331     1.007825032230
         H            2.199900251340    -1.780524251787    -0.407016265331     1.007825032230

  Basis Set: AUG-CC-PVTZ
    Blend: AUG-CC-PVTZ
  Basis Set: (AUG-CC-PVTZ AUX)
    Blend: AUG-CC-PVTZ-JKFIT
	 Reference Energy          =    -554.3214670540505722 [Eh]
	 Singles Energy            =      -0.0000000000000000 [Eh]
	 Same-Spin Energy          =      -0.2315071208160010 [Eh]
	 Opposite-Spin Energy      =      -0.8013219595746935 [Eh]
	 Correlation Energy        =      -1.0328290803906945 [Eh]
	 Total Energy              =    -555.3542961344412561 [Eh]

	 ================> DF-SCS-MP2 Energies <==================
	-----------------------------------------------------------
	 SCS Same-Spin Scale       =       0.3333333333333333 [-]
	 SCS Opposite-Spin Scale   =       1.2000000000000000 [-]
	 SCS Same-Spin Energy      =      -0.0771690402720003 [Eh]
	 SCS Opposite-Spin Energy  =      -0.9615863514896322 [Eh]
	 SCS Correlation Energy    =      -1.0387553917616326 [Eh]
	 SCS Total Energy          =    -555.3602224458121555 [Eh]
	-----------------------------------------------------------

  Dipole Moment: [D]
     X:     7.3461      Y:    -0.1869      Z:     0.3264     Total:     7.3558

*** Psi4 exiting successfully. Buy a developer a beer!
