                               Psi4 1.4a3.dev225

  ==> Input File <==

--------------------------------------------------------------------------
#psi4
#
memory 32 gb

molecule  {
-1 1
  S       -1.9908660    -0.0115680    -0.0914370
  C        0.8351480     0.0026240    -0.3224040
  C       -0.3590580    -0.7033670     0.3385660
  C        0.9435650     1.4522290     0.1346180
  C        2.1425740    -0.7472220    -0.0583990
  H        0.6412340     0.0009810    -1.4036700
  H       -0.1836370    -0.6741640     1.4285240
  H       -0.3012000    -1.7665080     0.0540450
  H        1.1751250     1.4924670     1.2076710
  H        1.7349380     1.9924090    -0.4025300
  H       -0.0196830     1.9410400    -0.0272870
  H        2.3514098    -0.7605354     1.0189068
  H        2.9984690    -0.2652850    -0.5495640
  H        2.0837140    -1.7817520    -0.4169670
units angstrom
no_reorient  #important for SAPT in psi4, default
symmetry c1  #important for SAPT in psi4, default
}

set PROPERTIES_ORIGIN ["COM"]
properties('MP2/aug-cc-pvtz', properties = ['dipole'])
--------------------------------------------------------------------------

    Molecular point group: c1
  Charge       = -1
  Multiplicity = 1
  Basis Set: AUG-CC-PVTZ
    Blend: AUG-CC-PVTZ
  Basis Set: (AUG-CC-PVTZ AUX)
    Blend: AUG-CC-PVTZ-JKFIT

    Orbital Energies [Eh]
    ---------------------

    Doubly Occupied:

       1A    -91.667907     2A    -11.084215     3A    -11.070957
       4A    -11.062815     5A    -11.060910     6A     -8.668006
       7A     -6.349643     8A     -6.347951     9A     -6.347905
      10A     -0.934175    11A     -0.792337    12A     -0.779362
      13A     -0.638271    14A     -0.576060    15A     -0.476965
      16A     -0.447601    17A     -0.423692    18A     -0.397911
      19A     -0.375767    20A     -0.338734    21A     -0.314051
      22A     -0.305822    23A     -0.232536    24A     -0.093924
      25A     -0.091489

  @DF-RHF Final Energy:  -554.32209439450719

   => Energetics <=

    Nuclear Repulsion Energy =            222.4437422342389539
    One-Electron Energy =               -1211.7736612341702767
    Two-Electron Energy =                 435.0078246054241617
    Total Energy =                       -554.3220943945071895
  Basis Set: (AUG-CC-PVTZ AUX)
    Blend: AUG-CC-PVTZ-RI
    Molecular point group: c1

    Geometry (in Angstrom), charge = -1, multiplicity = 1:

       Center              X                  Y                   Z               Mass
    ------------   -----------------  -----------------  -----------------  -----------------
         S           -1.874708178399    -0.010011054019    -0.081345015324    31.972071174400
         C            0.951305821601     0.004180945981    -0.312312015324    12.000000000000
         C           -0.242900178399    -0.701810054019     0.348657984676    12.000000000000
         C            1.059722821601     1.453785945981     0.144709984676    12.000000000000
         C            2.258731821601    -0.745665054019    -0.048307015324    12.000000000000
         H            0.757391821601     0.002537945981    -1.393578015324     1.007825032230
         H           -0.067479178399    -0.672607054019     1.438615984676     1.007825032230
         H           -0.185042178399    -1.764951054019     0.064136984676     1.007825032230
         H            1.291282821601     1.494023945981     1.217762984676     1.007825032230
         H            1.851095821601     1.993965945981    -0.392438015324     1.007825032230
         H            0.096474821601     1.942596945981    -0.017195015324     1.007825032230
         H            2.467567621601    -0.758978454019     1.028998784676     1.007825032230
         H            3.114626821601    -0.263728054019    -0.539472015324     1.007825032230
         H            2.199871821601    -1.780195054019    -0.406875015324     1.007825032230

  Basis Set: AUG-CC-PVTZ
    Blend: AUG-CC-PVTZ
  Basis Set: (AUG-CC-PVTZ AUX)
    Blend: AUG-CC-PVTZ-JKFIT
	 Reference Energy          =    -554.3220943945071895 [Eh]
	 Singles Energy            =      -0.0000000000000000 [Eh]
	 Same-Spin Energy          =      -0.2315774260047387 [Eh]
	 Opposite-Spin Energy      =      -0.8016727157945673 [Eh]
	 Correlation Energy        =      -1.0332501417993061 [Eh]
	 Total Energy              =    -555.3553445363064611 [Eh]

	 ================> DF-SCS-MP2 Energies <==================
	-----------------------------------------------------------
	 SCS Same-Spin Scale       =       0.3333333333333333 [-]
	 SCS Opposite-Spin Scale   =       1.2000000000000000 [-]
	 SCS Same-Spin Energy      =      -0.0771924753349129 [Eh]
	 SCS Opposite-Spin Energy  =      -0.9620072589534807 [Eh]
	 SCS Correlation Energy    =      -1.0391997342883936 [Eh]
	 SCS Total Energy          =    -555.3612941287956346 [Eh]
	-----------------------------------------------------------

  Dipole Moment: [D]
     X:     7.3119      Y:    -0.1303      Z:     0.3176     Total:     7.3200

*** Psi4 exiting successfully. Buy a developer a beer!
