                               Psi4 1.4a3.dev225

  ==> Input File <==

--------------------------------------------------------------------------
#psi4
#
memory 32 gb

molecule  {
-1 1
  S       -1.9908660    -0.0115680    -0.0914370
  C        0.8351480     0.0026240    -0.3224040
  C       -0.3411635    -0.7109533     0.3432814
  C        0.9435650     1.4522290     0.1346180
  C        2.1425740    -0.7472220    -0.0583990
  H        0.6412340     0.0009810    -1.4036700
  H       -0.1836370    -0.6741640     1.4285240
  H       -0.3012000    -1.7665080     0.0540450
  H        1.1751250     1.4924670     1.2076710
  H        1.7349380     1.9924090    -0.4025300
  H       -0.0196830     1.9410400    -0.0272870
  H        2.3515230    -0.7796840     1.0184780
  H        2.9984690    -0.2652850    -0.5495640
  H        2.0837140    -1.7817520    -0.4169670
units angstrom
no_reorient  #important for SAPT in psi4, default
symmetry c1  #important for SAPT in psi4, default
}

set PROPERTIES_ORIGIN ["COM"]
properties('MP2/aug-cc-pvtz', properties = ['dipole'])
--------------------------------------------------------------------------

    Molecular point group: c1
  Charge       = -1
  Multiplicity = 1
  Basis Set: AUG-CC-PVTZ
    Blend: AUG-CC-PVTZ
  Basis Set: (AUG-CC-PVTZ AUX)
    Blend: AUG-CC-PVTZ-JKFIT

    Orbital Energies [Eh]
    ---------------------

    Doubly Occupied:

       1A    -91.668228     2A    -11.084124     3A    -11.071124
       4A    -11.063100     5A    -11.059793     6A     -8.667998
       7A     -6.349581     8A     -6.347932     9A     -6.347888
      10A     -0.935270    11A     -0.791868    12A     -0.779013
      13A     -0.637381    14A     -0.577013    15A     -0.477386
      16A     -0.448699    17A     -0.424199    18A     -0.398347
      19A     -0.377331    20A     -0.339154    21A     -0.315812
      22A     -0.308192    23A     -0.227365    24A     -0.093790
      25A     -0.091449

  @DF-RHF Final Energy:  -554.32229155227833

   => Energetics <=

    Nuclear Repulsion Energy =            222.3100566737296049
    One-Electron Energy =               -1211.5006198702585607
    Two-Electron Energy =                 434.8682716442506830
    Total Energy =                       -554.3222915522783296
  Basis Set: (AUG-CC-PVTZ AUX)
    Blend: AUG-CC-PVTZ-RI
    Molecular point group: c1

    Geometry (in Angstrom), charge = -1, multiplicity = 1:

       Center              X                  Y                   Z               Mass
    ------------   -----------------  -----------------  -----------------  -----------------
         S           -1.877121049717    -0.008771937386    -0.081975642798    31.972071174400
         C            0.948892950283     0.005420062614    -0.312942642798    12.000000000000
         C           -0.227418549717    -0.708157237386     0.352742757202    12.000000000000
         C            1.057309950283     1.455025062614     0.144079357202    12.000000000000
         C            2.256318950283    -0.744425937386    -0.048937642798    12.000000000000
         H            0.754978950283     0.003777062614    -1.394208642798     1.007825032230
         H           -0.069892049717    -0.671367937386     1.437985357202     1.007825032230
         H           -0.187455049717    -1.763711937386     0.063506357202     1.007825032230
         H            1.288869950283     1.495263062614     1.217132357202     1.007825032230
         H            1.848682950283     1.995205062614    -0.393068642798     1.007825032230
         H            0.094061950283     1.943836062614    -0.017825642798     1.007825032230
         H            2.465267950283    -0.776887937386     1.027939357202     1.007825032230
         H            3.112213950283    -0.262488937386    -0.540102642798     1.007825032230
         H            2.197458950283    -1.778955937386    -0.407505642798     1.007825032230

  Basis Set: AUG-CC-PVTZ
    Blend: AUG-CC-PVTZ
  Basis Set: (AUG-CC-PVTZ AUX)
    Blend: AUG-CC-PVTZ-JKFIT
	 Reference Energy          =    -554.3222915522783296 [Eh]
	 Singles Energy            =      -0.0000000000000000 [Eh]
	 Same-Spin Energy          =      -0.2314429054032739 [Eh]
	 Opposite-Spin Energy      =      -0.8015874029955943 [Eh]
	 Correlation Energy        =      -1.0330303083988681 [Eh]
	 Total Energy              =    -555.3553218606772361 [Eh]

	 ================> DF-SCS-MP2 Energies <==================
	-----------------------------------------------------------
	 SCS Same-Spin Scale       =       0.3333333333333333 [-]
	 SCS Opposite-Spin Scale   =       1.2000000000000000 [-]
	 SCS Same-Spin Energy      =      -0.0771476351344246 [Eh]
	 SCS Opposite-Spin Energy  =      -0.9619048835947130 [Eh]
	 SCS Correlation Energy    =      -1.0390525187291377 [Eh]
	 SCS Total Energy          =    -555.3613440710074656 [Eh]
	-----------------------------------------------------------

  Dipole Moment: [D]
     X:     7.3708      Y:    -0.1448      Z:     0.3294     Total:     7.3795

*** Psi4 exiting successfully. Buy a developer a beer!
