                               Psi4 1.4a3.dev225

  ==> Input File <==

--------------------------------------------------------------------------
#psi4
#
memory 32 gb

molecule  {
-1 1
  S       -1.9908660    -0.0115680    -0.0914370
  C        0.8351480     0.0026240    -0.3224040
  C       -0.3590580    -0.7033670     0.3385660
  C        0.9435650     1.4522290     0.1346180
  C        2.1425740    -0.7472220    -0.0583990
  H        0.6412340     0.0009810    -1.4036700
  H       -0.1836370    -0.6741640     1.4285240
  H       -0.2959501    -1.8629752     0.0282281
  H        1.1751250     1.4924670     1.2076710
  H        1.7349380     1.9924090    -0.4025300
  H       -0.0196830     1.9410400    -0.0272870
  H        2.3515230    -0.7796840     1.0184780
  H        2.9984690    -0.2652850    -0.5495640
  H        2.0837140    -1.7817520    -0.4169670
units angstrom
no_reorient  #important for SAPT in psi4, default
symmetry c1  #important for SAPT in psi4, default
}

set PROPERTIES_ORIGIN ["COM"]
properties('MP2/aug-cc-pvtz', properties = ['dipole'])
--------------------------------------------------------------------------

    Molecular point group: c1
  Charge       = -1
  Multiplicity = 1
  Basis Set: AUG-CC-PVTZ
    Blend: AUG-CC-PVTZ
  Basis Set: (AUG-CC-PVTZ AUX)
    Blend: AUG-CC-PVTZ-JKFIT

    Orbital Energies [Eh]
    ---------------------

    Doubly Occupied:

       1A    -91.669347     2A    -11.083786     3A    -11.073769
       4A    -11.072230     5A    -11.063866     6A     -8.669433
       7A     -6.351063     8A     -6.349360     9A     -6.349322
      10A     -0.933759    11A     -0.791843    12A     -0.775375
      13A     -0.639242    14A     -0.572574    15A     -0.472608
      16A     -0.445889    17A     -0.423581    18A     -0.397710
      19A     -0.370831    20A     -0.338220    21A     -0.308284
      22A     -0.307034    23A     -0.233603    24A     -0.094974
      25A     -0.092118

  @DF-RHF Final Energy:  -554.31579452869585

   => Energetics <=

    Nuclear Repulsion Energy =            221.9734504805271342
    One-Electron Energy =               -1210.8188469724730112
    Two-Electron Energy =                 434.5296019632499451
    Total Energy =                       -554.3157945286959603
  Basis Set: (AUG-CC-PVTZ AUX)
    Blend: AUG-CC-PVTZ-RI
    Molecular point group: c1

    Geometry (in Angstrom), charge = -1, multiplicity = 1:

       Center              X                  Y                   Z               Mass
    ------------   -----------------  -----------------  -----------------  -----------------
         S           -1.874768880498    -0.008702459786    -0.081047954095    31.972071174400
         C            0.951245119502     0.005489540214    -0.312014954095    12.000000000000
         C           -0.242960880498    -0.700501459786     0.348955045905    12.000000000000
         C            1.059662119502     1.455094540214     0.145007045905    12.000000000000
         C            2.258671119502    -0.744356459786    -0.048009954095    12.000000000000
         H            0.757331119502     0.003846540214    -1.393280954095     1.007825032230
         H           -0.067539880498    -0.671298459786     1.438913045905     1.007825032230
         H           -0.179852980498    -1.860109659786     0.038617145905     1.007825032230
         H            1.291222119502     1.495332540214     1.218060045905     1.007825032230
         H            1.851035119502     1.995274540214    -0.392140954095     1.007825032230
         H            0.096414119502     1.943905540214    -0.016897954095     1.007825032230
         H            2.467620119502    -0.776818459786     1.028867045905     1.007825032230
         H            3.114566119502    -0.262419459786    -0.539174954095     1.007825032230
         H            2.199811119502    -1.778886459786    -0.406577954095     1.007825032230

  Basis Set: AUG-CC-PVTZ
    Blend: AUG-CC-PVTZ
  Basis Set: (AUG-CC-PVTZ AUX)
    Blend: AUG-CC-PVTZ-JKFIT
	 Reference Energy          =    -554.3157945286958466 [Eh]
	 Singles Energy            =      -0.0000000000000000 [Eh]
	 Same-Spin Energy          =      -0.2316879151110832 [Eh]
	 Opposite-Spin Energy      =      -0.8024802347142941 [Eh]
	 Correlation Energy        =      -1.0341681498253772 [Eh]
	 Total Energy              =    -555.3499626785212513 [Eh]

	 ================> DF-SCS-MP2 Energies <==================
	-----------------------------------------------------------
	 SCS Same-Spin Scale       =       0.3333333333333333 [-]
	 SCS Opposite-Spin Scale   =       1.2000000000000000 [-]
	 SCS Same-Spin Energy      =      -0.0772293050370277 [Eh]
	 SCS Opposite-Spin Energy  =      -0.9629762816571529 [Eh]
	 SCS Correlation Energy    =      -1.0402055866941806 [Eh]
	 SCS Total Energy          =    -555.3560001153899748 [Eh]
	-----------------------------------------------------------

  Dipole Moment: [D]
     X:     7.2286      Y:     0.0062      Z:     0.3095     Total:     7.2352

*** Psi4 exiting successfully. Buy a developer a beer!
