                               Psi4 1.4a3.dev225

  ==> Input File <==

--------------------------------------------------------------------------
#psi4
#
memory 32 gb

molecule  {
-1 1
  S       -1.9908660    -0.0115680    -0.0914370
  C        0.8351480     0.0026240    -0.3224040
  C       -0.3590580    -0.7033670     0.3385660
  C        0.9435650     1.4522290     0.1346180
  C        2.1425740    -0.7472220    -0.0583990
  H        0.6412340     0.0009810    -1.4036700
  H       -0.1836370    -0.6741640     1.4285240
  H       -0.3012000    -1.7665080     0.0540450
  H        1.1586180     1.5017311     1.2107145
  H        1.7349380     1.9924090    -0.4025300
  H       -0.0196830     1.9410400    -0.0272870
  H        2.3515230    -0.7796840     1.0184780
  H        2.9984690    -0.2652850    -0.5495640
  H        2.0837140    -1.7817520    -0.4169670
units angstrom
no_reorient  #important for SAPT in psi4, default
symmetry c1  #important for SAPT in psi4, default
}

set PROPERTIES_ORIGIN ["COM"]
properties('MP2/aug-cc-pvtz', properties = ['dipole'])
--------------------------------------------------------------------------

    Molecular point group: c1
  Charge       = -1
  Multiplicity = 1
  Basis Set: AUG-CC-PVTZ
    Blend: AUG-CC-PVTZ
  Basis Set: (AUG-CC-PVTZ AUX)
    Blend: AUG-CC-PVTZ-JKFIT

    Orbital Energies [Eh]
    ---------------------

    Doubly Occupied:

       1A    -91.667906     2A    -11.084171     3A    -11.071165
       4A    -11.062701     5A    -11.060931     6A     -8.668005
       7A     -6.349642     8A     -6.347950     9A     -6.347904
      10A     -0.934013    11A     -0.792445    12A     -0.779313
      13A     -0.638485    14A     -0.576210    15A     -0.475975
      16A     -0.448183    17A     -0.423217    18A     -0.398267
      19A     -0.375690    20A     -0.338294    21A     -0.314068
      22A     -0.306256    23A     -0.232539    24A     -0.093909
      25A     -0.091489

  @DF-RHF Final Energy:  -554.32213806490824

   => Energetics <=

    Nuclear Repulsion Energy =            222.4234249557185024
    One-Electron Energy =               -1211.7336763673813493
    Two-Electron Energy =                 434.9881133467545737
    Total Energy =                       -554.3221380649083585
  Basis Set: (AUG-CC-PVTZ AUX)
    Blend: AUG-CC-PVTZ-RI
    Molecular point group: c1

    Geometry (in Angstrom), charge = -1, multiplicity = 1:

       Center              X                  Y                   Z               Mass
    ------------   -----------------  -----------------  -----------------  -----------------
         S           -1.874522625627    -0.009899176579    -0.081374609734    31.972071174400
         C            0.951491374373     0.004292823421    -0.312341609734    12.000000000000
         C           -0.242714625627    -0.701698176579     0.348628390266    12.000000000000
         C            1.059908374373     1.453897823421     0.144680390266    12.000000000000
         C            2.258917374373    -0.745553176579    -0.048336609734    12.000000000000
         H            0.757577374373     0.002649823421    -1.393607609734     1.007825032230
         H           -0.067293625627    -0.672495176579     1.438586390266     1.007825032230
         H           -0.184856625627    -1.764839176579     0.064107390266     1.007825032230
         H            1.274961374373     1.503399923421     1.220776890266     1.007825032230
         H            1.851281374373     1.994077823421    -0.392467609734     1.007825032230
         H            0.096660374373     1.942708823421    -0.017224609734     1.007825032230
         H            2.467866374373    -0.778015176579     1.028540390266     1.007825032230
         H            3.114812374373    -0.263616176579    -0.539501609734     1.007825032230
         H            2.200057374373    -1.780083176579    -0.406904609734     1.007825032230

  Basis Set: AUG-CC-PVTZ
    Blend: AUG-CC-PVTZ
  Basis Set: (AUG-CC-PVTZ AUX)
    Blend: AUG-CC-PVTZ-JKFIT
	 Reference Energy          =    -554.3221380649082448 [Eh]
	 Singles Energy            =      -0.0000000000000000 [Eh]
	 Same-Spin Energy          =      -0.2315569081042380 [Eh]
	 Opposite-Spin Energy      =      -0.8016419552603293 [Eh]
	 Correlation Energy        =      -1.0331988633645675 [Eh]
	 Total Energy              =    -555.3553369282727772 [Eh]

	 ================> DF-SCS-MP2 Energies <==================
	-----------------------------------------------------------
	 SCS Same-Spin Scale       =       0.3333333333333333 [-]
	 SCS Opposite-Spin Scale   =       1.2000000000000000 [-]
	 SCS Same-Spin Energy      =      -0.0771856360347460 [Eh]
	 SCS Opposite-Spin Energy  =      -0.9619703463123952 [Eh]
	 SCS Correlation Energy    =      -1.0391559823471412 [Eh]
	 SCS Total Energy          =    -555.3612940472553419 [Eh]
	-----------------------------------------------------------

  Dipole Moment: [D]
     X:     7.3073      Y:    -0.1315      Z:     0.3217     Total:     7.3156

*** Psi4 exiting successfully. Buy a developer a beer!
