                               Psi4 1.4a3.dev225

  ==> Input File <==

--------------------------------------------------------------------------
#psi4
#
memory 32 gb

molecule  {
-1 1
  S       -1.9908660    -0.0115680    -0.0914370
  C        0.8351480     0.0026240    -0.3224040
  C       -0.3527961    -0.7258390     0.3253329
  C        0.9435650     1.4522290     0.1346180
  C        2.1425740    -0.7472220    -0.0583990
  H        0.6412340     0.0009810    -1.4036700
  H       -0.1836370    -0.6741640     1.4285240
  H       -0.3012000    -1.7665080     0.0540450
  H        1.1751250     1.4924670     1.2076710
  H        1.7349380     1.9924090    -0.4025300
  H       -0.0196830     1.9410400    -0.0272870
  H        2.3515230    -0.7796840     1.0184780
  H        2.9984690    -0.2652850    -0.5495640
  H        2.0837140    -1.7817520    -0.4169670
units angstrom
no_reorient  #important for SAPT in psi4, default
symmetry c1  #important for SAPT in psi4, default
}

set PROPERTIES_ORIGIN ["COM"]
properties('MP2/aug-cc-pvtz', properties = ['dipole'])
--------------------------------------------------------------------------

    Molecular point group: c1
  Charge       = -1
  Multiplicity = 1
  Basis Set: AUG-CC-PVTZ
    Blend: AUG-CC-PVTZ
  Basis Set: (AUG-CC-PVTZ AUX)
    Blend: AUG-CC-PVTZ-JKFIT

    Orbital Energies [Eh]
    ---------------------

    Doubly Occupied:

       1A    -91.668115     2A    -11.084071     3A    -11.071262
       4A    -11.063209     5A    -11.060268     6A     -8.668029
       7A     -6.349634     8A     -6.347969     9A     -6.347925
      10A     -0.934080    11A     -0.791705    12A     -0.779926
      13A     -0.637616    14A     -0.576310    15A     -0.478145
      16A     -0.448641    17A     -0.423274    18A     -0.398127
      19A     -0.375833    20A     -0.339504    21A     -0.318333
      22A     -0.303706    23A     -0.229636    24A     -0.093958
      25A     -0.091431

  @DF-RHF Final Energy:  -554.32174216934891

   => Energetics <=

    Nuclear Repulsion Energy =            222.2720605650581547
    One-Electron Energy =               -1211.4261941702986860
    Two-Electron Energy =                 434.8323914358915658
    Total Energy =                       -554.3217421693489086
  Basis Set: (AUG-CC-PVTZ AUX)
    Blend: AUG-CC-PVTZ-RI
    Molecular point group: c1

    Geometry (in Angstrom), charge = -1, multiplicity = 1:

       Center              X                  Y                   Z               Mass
    ------------   -----------------  -----------------  -----------------  -----------------
         S           -1.875553357822    -0.006765834603    -0.079556775307    31.972071174400
         C            0.950460642178     0.007426165397    -0.310523775307    12.000000000000
         C           -0.237483457822    -0.721036834603     0.337213124693    12.000000000000
         C            1.058877642178     1.457031165397     0.146498224693    12.000000000000
         C            2.257886642178    -0.742419834603    -0.046518775307    12.000000000000
         H            0.756546642178     0.005783165397    -1.391789775307     1.007825032230
         H           -0.068324357822    -0.669361834603     1.440404224693     1.007825032230
         H           -0.185887357822    -1.761705834603     0.065925224693     1.007825032230
         H            1.290437642178     1.497269165397     1.219551224693     1.007825032230
         H            1.850250642178     1.997211165397    -0.390649775307     1.007825032230
         H            0.095629642178     1.945842165397    -0.015406775307     1.007825032230
         H            2.466835642178    -0.774881834603     1.030358224693     1.007825032230
         H            3.113781642178    -0.260482834603    -0.537683775307     1.007825032230
         H            2.199026642178    -1.776949834603    -0.405086775307     1.007825032230

  Basis Set: AUG-CC-PVTZ
    Blend: AUG-CC-PVTZ
  Basis Set: (AUG-CC-PVTZ AUX)
    Blend: AUG-CC-PVTZ-JKFIT
	 Reference Energy          =    -554.3217421693489086 [Eh]
	 Singles Energy            =      -0.0000000000000000 [Eh]
	 Same-Spin Energy          =      -0.2314701864283200 [Eh]
	 Opposite-Spin Energy      =      -0.8015913009440655 [Eh]
	 Correlation Energy        =      -1.0330614873723856 [Eh]
	 Total Energy              =    -555.3548036567212876 [Eh]

	 ================> DF-SCS-MP2 Energies <==================
	-----------------------------------------------------------
	 SCS Same-Spin Scale       =       0.3333333333333333 [-]
	 SCS Opposite-Spin Scale   =       1.2000000000000000 [-]
	 SCS Same-Spin Energy      =      -0.0771567288094400 [Eh]
	 SCS Opposite-Spin Energy  =      -0.9619095611328785 [Eh]
	 SCS Correlation Energy    =      -1.0390662899423184 [Eh]
	 SCS Total Energy          =    -555.3608084592912064 [Eh]
	-----------------------------------------------------------

  Dipole Moment: [D]
     X:     7.3396      Y:    -0.1500      Z:     0.3139     Total:     7.3479

*** Psi4 exiting successfully. Buy a developer a beer!
