                               Psi4 1.4a3.dev225

  ==> Input File <==

--------------------------------------------------------------------------
#psi4
#
memory 32 gb

molecule  {
-1 1
  S       -1.9908660    -0.0115680    -0.0914370
  C        0.8351480     0.0026240    -0.3224040
  C       -0.3161008    -0.8347358     0.2562905
  C        0.9435650     1.4522290     0.1346180
  C        2.1425740    -0.7472220    -0.0583990
  H        0.6412340     0.0009810    -1.4036700
  H       -0.1836370    -0.6741640     1.4285240
  H       -0.3012000    -1.7665080     0.0540450
  H        1.1751250     1.4924670     1.2076710
  H        1.7349380     1.9924090    -0.4025300
  H       -0.0196830     1.9410400    -0.0272870
  H        2.3515230    -0.7796840     1.0184780
  H        2.9984690    -0.2652850    -0.5495640
  H        2.0837140    -1.7817520    -0.4169670
units angstrom
no_reorient  #important for SAPT in psi4, default
symmetry c1  #important for SAPT in psi4, default
}

set PROPERTIES_ORIGIN ["COM"]
properties('MP2/aug-cc-pvtz', properties = ['dipole'])
--------------------------------------------------------------------------

    Molecular point group: c1
  Charge       = -1
  Multiplicity = 1
  Basis Set: AUG-CC-PVTZ
    Blend: AUG-CC-PVTZ
  Basis Set: (AUG-CC-PVTZ AUX)
    Blend: AUG-CC-PVTZ-JKFIT

    Orbital Energies [Eh]
    ---------------------

    Doubly Occupied:

       1A    -91.670235     2A    -11.083463     3A    -11.073880
       4A    -11.066054     5A    -11.059435     6A     -8.669184
       7A     -6.350628     8A     -6.349058     9A     -6.349030
      10A     -0.935077    11A     -0.789730    12A     -0.784719
      13A     -0.634440    14A     -0.584169    15A     -0.488903
      16A     -0.453538    17A     -0.420953    18A     -0.398489
      19A     -0.377533    20A     -0.346234    21A     -0.332338
      22A     -0.289765    23A     -0.214589    24A     -0.095224
      25A     -0.089841

  @DF-RHF Final Energy:  -554.29466861548872

   => Energetics <=

    Nuclear Repulsion Energy =            221.4763308777216082
    One-Electron Energy =               -1209.7289815967599225
    Two-Electron Energy =                 433.9579821035496252
    Total Energy =                       -554.2946686154887175
  Basis Set: (AUG-CC-PVTZ AUX)
    Blend: AUG-CC-PVTZ-RI
    Molecular point group: c1

    Geometry (in Angstrom), charge = -1, multiplicity = 1:

       Center              X                  Y                   Z               Mass
    ------------   -----------------  -----------------  -----------------  -----------------
         S           -1.880498677388     0.007909872525    -0.070252130527    31.972071174400
         C            0.945515322612     0.022101872525    -0.301219130527    12.000000000000
         C           -0.205733477388    -0.815257927475     0.277475369473    12.000000000000
         C            1.053932322612     1.471706872525     0.155802869473    12.000000000000
         C            2.252941322612    -0.727744127475    -0.037214130527    12.000000000000
         H            0.751601322612     0.020458872525    -1.382485130527     1.007825032230
         H           -0.073269677388    -0.654686127475     1.449708869473     1.007825032230
         H           -0.190832677388    -1.747030127475     0.075229869473     1.007825032230
         H            1.285492322612     1.511944872525     1.228855869473     1.007825032230
         H            1.845305322612     2.011886872525    -0.381345130527     1.007825032230
         H            0.090684322612     1.960517872525    -0.006102130527     1.007825032230
         H            2.461890322612    -0.760206127475     1.039662869473     1.007825032230
         H            3.108836322612    -0.245807127475    -0.528379130527     1.007825032230
         H            2.194081322612    -1.762274127475    -0.395782130527     1.007825032230

  Basis Set: AUG-CC-PVTZ
    Blend: AUG-CC-PVTZ
  Basis Set: (AUG-CC-PVTZ AUX)
    Blend: AUG-CC-PVTZ-JKFIT
	 Reference Energy          =    -554.2946686154887175 [Eh]
	 Singles Energy            =      -0.0000000000000000 [Eh]
	 Same-Spin Energy          =      -0.2314077125530023 [Eh]
	 Opposite-Spin Energy      =      -0.8024982426728253 [Eh]
	 Correlation Energy        =      -1.0339059552258276 [Eh]
	 Total Energy              =    -555.3285745707145225 [Eh]

	 ================> DF-SCS-MP2 Energies <==================
	-----------------------------------------------------------
	 SCS Same-Spin Scale       =       0.3333333333333333 [-]
	 SCS Opposite-Spin Scale   =       1.2000000000000000 [-]
	 SCS Same-Spin Energy      =      -0.0771359041843341 [Eh]
	 SCS Opposite-Spin Energy  =      -0.9629978912073903 [Eh]
	 SCS Correlation Energy    =      -1.0401337953917245 [Eh]
	 SCS Total Energy          =    -555.3348024108804566 [Eh]
	-----------------------------------------------------------

  Dipole Moment: [D]
     X:     7.4543      Y:    -0.1656      Z:     0.2621     Total:     7.4607

*** Psi4 exiting successfully. Buy a developer a beer!
