                               Psi4 1.4a3.dev225

  ==> Input File <==

--------------------------------------------------------------------------
#psi4
#
memory 32 gb

molecule  {
-1 1
  S       -1.9908660    -0.0115680    -0.0914370
  C        0.8351480     0.0026240    -0.3224040
  C       -0.3590580    -0.7033670     0.3385660
  C        0.9435650     1.4522290     0.1346180
  C        2.1425740    -0.7472220    -0.0583990
  H        0.6412340     0.0009810    -1.4036700
  H       -0.1836370    -0.6741640     1.4285240
  H       -0.3012000    -1.7665080     0.0540450
  H        1.1751250     1.4924670     1.2076710
  H        1.7349380     1.9924090    -0.4025300
  H       -0.0196830     1.9410400    -0.0272870
  H        2.3508656    -0.8941640     1.0090279
  H        2.9984690    -0.2652850    -0.5495640
  H        2.0837140    -1.7817520    -0.4169670
units angstrom
no_reorient  #important for SAPT in psi4, default
symmetry c1  #important for SAPT in psi4, default
}

set PROPERTIES_ORIGIN ["COM"]
properties('MP2/aug-cc-pvtz', properties = ['dipole'])
--------------------------------------------------------------------------

    Molecular point group: c1
  Charge       = -1
  Multiplicity = 1
  Basis Set: AUG-CC-PVTZ
    Blend: AUG-CC-PVTZ
  Basis Set: (AUG-CC-PVTZ AUX)
    Blend: AUG-CC-PVTZ-JKFIT

    Orbital Energies [Eh]
    ---------------------

    Doubly Occupied:

       1A    -91.667966     2A    -11.084187     3A    -11.071773
       4A    -11.062622     5A    -11.061018     6A     -8.668065
       7A     -6.349702     8A     -6.348012     9A     -6.347964
      10A     -0.933743    11A     -0.793051    12A     -0.779389
      13A     -0.639207    14A     -0.576657    15A     -0.472205
      16A     -0.451581    17A     -0.423778    18A     -0.397772
      19A     -0.372773    20A     -0.340083    21A     -0.313582
      22A     -0.306414    23A     -0.232618    24A     -0.094007
      25A     -0.091542

  @DF-RHF Final Energy:  -554.32101812472104

   => Energetics <=

    Nuclear Repulsion Energy =            222.3532241354617156
    One-Electron Energy =               -1211.5890620256511738
    Two-Electron Energy =                 434.9148197654683941
    Total Energy =                       -554.3210181247211494
  Basis Set: (AUG-CC-PVTZ AUX)
    Blend: AUG-CC-PVTZ-RI
    Molecular point group: c1

    Geometry (in Angstrom), charge = -1, multiplicity = 1:

       Center              X                  Y                   Z               Mass
    ------------   -----------------  -----------------  -----------------  -----------------
         S           -1.874702018886    -0.008498582408    -0.081233201268    31.972071174400
         C            0.951311981114     0.005693417592    -0.312200201268    12.000000000000
         C           -0.242894018886    -0.700297582408     0.348769798732    12.000000000000
         C            1.059728981114     1.455298417592     0.144821798732    12.000000000000
         C            2.258737981114    -0.744152582408    -0.048195201268    12.000000000000
         H            0.757397981114     0.004050417592    -1.393466201268     1.007825032230
         H           -0.067473018886    -0.671094582408     1.438727798732     1.007825032230
         H           -0.185036018886    -1.763438582408     0.064248798732     1.007825032230
         H            1.291288981114     1.495536417592     1.217874798732     1.007825032230
         H            1.851101981114     1.995478417592    -0.392326201268     1.007825032230
         H            0.096480981114     1.944109417592    -0.017083201268     1.007825032230
         H            2.467029581114    -0.891094582408     1.019231698732     1.007825032230
         H            3.114632981114    -0.262215582408    -0.539360201268     1.007825032230
         H            2.199877981114    -1.778682582408    -0.406763201268     1.007825032230

  Basis Set: AUG-CC-PVTZ
    Blend: AUG-CC-PVTZ
  Basis Set: (AUG-CC-PVTZ AUX)
    Blend: AUG-CC-PVTZ-JKFIT
	 Reference Energy          =    -554.3210181247210357 [Eh]
	 Singles Energy            =      -0.0000000000000000 [Eh]
	 Same-Spin Energy          =      -0.2315547767200572 [Eh]
	 Opposite-Spin Energy      =      -0.8016476339110833 [Eh]
	 Correlation Energy        =      -1.0332024106311404 [Eh]
	 Total Energy              =    -555.3542205353521695 [Eh]

	 ================> DF-SCS-MP2 Energies <==================
	-----------------------------------------------------------
	 SCS Same-Spin Scale       =       0.3333333333333333 [-]
	 SCS Opposite-Spin Scale   =       1.2000000000000000 [-]
	 SCS Same-Spin Energy      =      -0.0771849255733524 [Eh]
	 SCS Opposite-Spin Energy  =      -0.9619771606932999 [Eh]
	 SCS Correlation Energy    =      -1.0391620862666522 [Eh]
	 SCS Total Energy          =    -555.3601802109876644 [Eh]
	-----------------------------------------------------------

  Dipole Moment: [D]
     X:     7.3078      Y:    -0.1646      Z:     0.3328     Total:     7.3172

*** Psi4 exiting successfully. Buy a developer a beer!
