                               Psi4 1.4a3.dev225

  ==> Input File <==

--------------------------------------------------------------------------
#psi4
#
memory 32 gb

molecule  {
-1 1
  S       -1.9908660    -0.0115680    -0.0914370
  C        0.8351480     0.0026240    -0.3224040
  C       -0.3889313    -0.5642632     0.4135997
  C        0.9435650     1.4522290     0.1346180
  C        2.1425740    -0.7472220    -0.0583990
  H        0.6412340     0.0009810    -1.4036700
  H       -0.1836370    -0.6741640     1.4285240
  H       -0.3012000    -1.7665080     0.0540450
  H        1.1751250     1.4924670     1.2076710
  H        1.7349380     1.9924090    -0.4025300
  H       -0.0196830     1.9410400    -0.0272870
  H        2.3515230    -0.7796840     1.0184780
  H        2.9984690    -0.2652850    -0.5495640
  H        2.0837140    -1.7817520    -0.4169670
units angstrom
no_reorient  #important for SAPT in psi4, default
symmetry c1  #important for SAPT in psi4, default
}

set PROPERTIES_ORIGIN ["COM"]
properties('MP2/aug-cc-pvtz', properties = ['dipole'])
--------------------------------------------------------------------------

    Molecular point group: c1
  Charge       = -1
  Multiplicity = 1
  Basis Set: AUG-CC-PVTZ
    Blend: AUG-CC-PVTZ
  Basis Set: (AUG-CC-PVTZ AUX)
    Blend: AUG-CC-PVTZ-JKFIT

    Orbital Energies [Eh]
    ---------------------

    Doubly Occupied:

       1A    -91.668791     2A    -11.085080     3A    -11.072081
       4A    -11.068505     5A    -11.061400     6A     -8.669844
       7A     -6.351650     8A     -6.349773     9A     -6.349727
      10A     -0.935800    11A     -0.798113    12A     -0.777979
      13A     -0.643321    14A     -0.581887    15A     -0.468368
      16A     -0.449173    17A     -0.425384    18A     -0.397695
      19A     -0.371487    20A     -0.338217    21A     -0.317212
      22A     -0.282183    23A     -0.248813    24A     -0.097251
      25A     -0.087915

  @DF-RHF Final Energy:  -554.29979849149311

   => Energetics <=

    Nuclear Repulsion Energy =            223.3116046385337654
    One-Electron Energy =               -1213.4275025521208136
    Two-Electron Energy =                 435.8160994220940552
    Total Energy =                       -554.2997984914929930
  Basis Set: (AUG-CC-PVTZ AUX)
    Blend: AUG-CC-PVTZ-RI
    Molecular point group: c1

    Geometry (in Angstrom), charge = -1, multiplicity = 1:

       Center              X                  Y                   Z               Mass
    ------------   -----------------  -----------------  -----------------  -----------------
         S           -1.870683521315    -0.028540938368    -0.091452236936    31.972071174400
         C            0.955330478685    -0.014348938368    -0.322419236936    12.000000000000
         C           -0.268748821315    -0.581236138368     0.413584463064    12.000000000000
         C            1.063747478685     1.435256061632     0.134602763064    12.000000000000
         C            2.262756478685    -0.764194938368    -0.058414236936    12.000000000000
         H            0.761416478685    -0.015991938368    -1.403685236936     1.007825032230
         H           -0.063454521315    -0.691136938368     1.428508763064     1.007825032230
         H           -0.181017521315    -1.783480938368     0.054029763064     1.007825032230
         H            1.295307478685     1.475494061632     1.207655763064     1.007825032230
         H            1.855120478685     1.975436061632    -0.402545236936     1.007825032230
         H            0.100499478685     1.924067061632    -0.027302236936     1.007825032230
         H            2.471705478685    -0.796656938368     1.018462763064     1.007825032230
         H            3.118651478685    -0.282257938368    -0.549579236936     1.007825032230
         H            2.203896478685    -1.798724938368    -0.416982236936     1.007825032230

  Basis Set: AUG-CC-PVTZ
    Blend: AUG-CC-PVTZ
  Basis Set: (AUG-CC-PVTZ AUX)
    Blend: AUG-CC-PVTZ-JKFIT
	 Reference Energy          =    -554.2997984914931067 [Eh]
	 Singles Energy            =      -0.0000000000000000 [Eh]
	 Same-Spin Energy          =      -0.2326096356718537 [Eh]
	 Opposite-Spin Energy      =      -0.8034532339947265 [Eh]
	 Correlation Energy        =      -1.0360628696665801 [Eh]
	 Total Energy              =    -555.3358613611596866 [Eh]

	 ================> DF-SCS-MP2 Energies <==================
	-----------------------------------------------------------
	 SCS Same-Spin Scale       =       0.3333333333333333 [-]
	 SCS Opposite-Spin Scale   =       1.2000000000000000 [-]
	 SCS Same-Spin Energy      =      -0.0775365452239512 [Eh]
	 SCS Opposite-Spin Energy  =      -0.9641438807936717 [Eh]
	 SCS Correlation Energy    =      -1.0416804260176229 [Eh]
	 SCS Total Energy          =    -555.3414789175106989 [Eh]
	-----------------------------------------------------------

  Dipole Moment: [D]
     X:     7.0956      Y:     0.0611      Z:     0.3322     Total:     7.1037

*** Psi4 exiting successfully. Buy a developer a beer!
