                               Psi4 1.4a3.dev225

  ==> Input File <==

--------------------------------------------------------------------------
#psi4
#
memory 32 gb

molecule  {
-1 1
  S       -1.9908660    -0.0115680    -0.0914370
  C        0.8351480     0.0026240    -0.3224040
  C       -0.3590580    -0.7033670     0.3385660
  C        0.9435650     1.4522290     0.1346180
  C        2.1425740    -0.7472220    -0.0583990
  H        0.6412340     0.0009810    -1.4036700
  H       -0.1836370    -0.6741640     1.4285240
  H       -0.3116998    -1.5735735     0.1056787
  H        1.1751250     1.4924670     1.2076710
  H        1.7349380     1.9924090    -0.4025300
  H       -0.0196830     1.9410400    -0.0272870
  H        2.3515230    -0.7796840     1.0184780
  H        2.9984690    -0.2652850    -0.5495640
  H        2.0837140    -1.7817520    -0.4169670
units angstrom
no_reorient  #important for SAPT in psi4, default
symmetry c1  #important for SAPT in psi4, default
}

set PROPERTIES_ORIGIN ["COM"]
properties('MP2/aug-cc-pvtz', properties = ['dipole'])
--------------------------------------------------------------------------

    Molecular point group: c1
  Charge       = -1
  Multiplicity = 1
  Basis Set: AUG-CC-PVTZ
    Blend: AUG-CC-PVTZ
  Basis Set: (AUG-CC-PVTZ AUX)
    Blend: AUG-CC-PVTZ-JKFIT

    Orbital Energies [Eh]
    ---------------------

    Doubly Occupied:

       1A    -91.666469     2A    -11.085024     3A    -11.069524
       4A    -11.061530     5A    -11.034512     6A     -8.666543
       7A     -6.348181     8A     -6.346515     9A     -6.346466
      10A     -0.937206    11A     -0.802396    12A     -0.787292
      13A     -0.637502    14A     -0.589967    15A     -0.487654
      16A     -0.452686    17A     -0.423952    18A     -0.400031
      19A     -0.384011    20A     -0.340287    21A     -0.320586
      22A     -0.304574    23A     -0.231412    24A     -0.093179
      25A     -0.090948

  @DF-RHF Final Energy:  -554.29125606102480

   => Energetics <=

    Nuclear Repulsion Energy =            223.5176218795911893
    One-Electron Energy =               -1213.8008633799279323
    Two-Electron Energy =                 435.9919854393120318
    Total Energy =                       -554.2912560610247965
  Basis Set: (AUG-CC-PVTZ AUX)
    Blend: AUG-CC-PVTZ-RI
    Molecular point group: c1

    Geometry (in Angstrom), charge = -1, multiplicity = 1:

       Center              X                  Y                   Z               Mass
    ------------   -----------------  -----------------  -----------------  -----------------
         S           -1.874590617954    -0.011978044919    -0.081924576568    31.972071174400
         C            0.951423382046     0.002213955081    -0.312891576568    12.000000000000
         C           -0.242782617954    -0.703777044919     0.348078423432    12.000000000000
         C            1.059840382046     1.451818955081     0.144130423432    12.000000000000
         C            2.258849382046    -0.747632044919    -0.048886576568    12.000000000000
         H            0.757509382046     0.000570955081    -1.394157576568     1.007825032230
         H           -0.067361617954    -0.674574044919     1.438036423432     1.007825032230
         H           -0.195424417954    -1.573983544919     0.115191123432     1.007825032230
         H            1.291400382046     1.492056955081     1.217183423432     1.007825032230
         H            1.851213382046     1.991998955081    -0.393017576568     1.007825032230
         H            0.096592382046     1.940629955081    -0.017774576568     1.007825032230
         H            2.467798382046    -0.780094044919     1.027990423432     1.007825032230
         H            3.114744382046    -0.265695044919    -0.540051576568     1.007825032230
         H            2.199989382046    -1.782162044919    -0.407454576568     1.007825032230

  Basis Set: AUG-CC-PVTZ
    Blend: AUG-CC-PVTZ
  Basis Set: (AUG-CC-PVTZ AUX)
    Blend: AUG-CC-PVTZ-JKFIT
	 Reference Energy          =    -554.2912560610247965 [Eh]
	 Singles Energy            =      -0.0000000000000000 [Eh]
	 Same-Spin Energy          =      -0.2314158991586149 [Eh]
	 Opposite-Spin Energy      =      -0.8008415600312118 [Eh]
	 Correlation Energy        =      -1.0322574591898266 [Eh]
	 Total Energy              =    -555.3235135202146466 [Eh]

	 ================> DF-SCS-MP2 Energies <==================
	-----------------------------------------------------------
	 SCS Same-Spin Scale       =       0.3333333333333333 [-]
	 SCS Opposite-Spin Scale   =       1.2000000000000000 [-]
	 SCS Same-Spin Energy      =      -0.0771386330528716 [Eh]
	 SCS Opposite-Spin Energy  =      -0.9610098720374540 [Eh]
	 SCS Correlation Energy    =      -1.0381485050903256 [Eh]
	 SCS Total Energy          =    -555.3294045661151586 [Eh]
	-----------------------------------------------------------

  Dipole Moment: [D]
     X:     7.4245      Y:    -0.2787      Z:     0.3463     Total:     7.4378

*** Psi4 exiting successfully. Buy a developer a beer!
