                               Psi4 1.4a3.dev225

  ==> Input File <==

--------------------------------------------------------------------------
#psi4
#
memory 32 gb

molecule  {
-1 1
  S       -1.9908660    -0.0115680    -0.0914370
  C        0.8351480     0.0026240    -0.3224040
  C       -0.3590580    -0.7033670     0.3385660
  C        0.9435650     1.4522290     0.1346180
  C        2.1425740    -0.7472220    -0.0583990
  H        0.6412340     0.0009810    -1.4036700
  H       -0.2154055    -0.6794526     1.2311341
  H       -0.3012000    -1.7665080     0.0540450
  H        1.1751250     1.4924670     1.2076710
  H        1.7349380     1.9924090    -0.4025300
  H       -0.0196830     1.9410400    -0.0272870
  H        2.3515230    -0.7796840     1.0184780
  H        2.9984690    -0.2652850    -0.5495640
  H        2.0837140    -1.7817520    -0.4169670
units angstrom
no_reorient  #important for SAPT in psi4, default
symmetry c1  #important for SAPT in psi4, default
}

set PROPERTIES_ORIGIN ["COM"]
properties('MP2/aug-cc-pvtz', properties = ['dipole'])
--------------------------------------------------------------------------

    Molecular point group: c1
  Charge       = -1
  Multiplicity = 1
  Basis Set: AUG-CC-PVTZ
    Blend: AUG-CC-PVTZ
  Basis Set: (AUG-CC-PVTZ AUX)
    Blend: AUG-CC-PVTZ-JKFIT

    Orbital Energies [Eh]
    ---------------------

    Doubly Occupied:

       1A    -91.666164     2A    -11.084615     3A    -11.069182
       4A    -11.062873     5A    -11.034296     6A     -8.666240
       7A     -6.347879     8A     -6.346213     9A     -6.346167
      10A     -0.937628    11A     -0.802066    12A     -0.786366
      13A     -0.637662    14A     -0.595034    15A     -0.476269
      16A     -0.452621    17A     -0.429313    18A     -0.400134
      19A     -0.389940    20A     -0.338366    21A     -0.315196
      22A     -0.308465    23A     -0.231216    24A     -0.092700
      25A     -0.090823

  @DF-RHF Final Energy:  -554.29147229296200

   => Energetics <=

    Nuclear Repulsion Energy =            223.4948206087523772
    One-Electron Energy =               -1213.7577352702226108
    Two-Electron Energy =                 435.9714423685081783
    Total Energy =                       -554.2914722929619984
  Basis Set: (AUG-CC-PVTZ AUX)
    Blend: AUG-CC-PVTZ-RI
    Molecular point group: c1

    Geometry (in Angstrom), charge = -1, multiplicity = 1:

       Center              X                  Y                   Z               Mass
    ------------   -----------------  -----------------  -----------------  -----------------
         S           -1.874349888762    -0.009734462247    -0.079106009842    31.972071174400
         C            0.951664111238     0.004457537753    -0.310073009842    12.000000000000
         C           -0.242541888762    -0.701533462247     0.350896990158    12.000000000000
         C            1.060081111238     1.454062537753     0.146948990158    12.000000000000
         C            2.259090111238    -0.745388462247    -0.046068009842    12.000000000000
         H            0.757750111238     0.002814537753    -1.391339009842     1.007825032230
         H           -0.098889388762    -0.677619062247     1.243465090158     1.007825032230
         H           -0.184683888762    -1.764674462247     0.066375990158     1.007825032230
         H            1.291641111238     1.494300537753     1.220001990158     1.007825032230
         H            1.851454111238     1.994242537753    -0.390199009842     1.007825032230
         H            0.096833111238     1.942873537753    -0.014956009842     1.007825032230
         H            2.468039111238    -0.777850462247     1.030808990158     1.007825032230
         H            3.114985111238    -0.263451462247    -0.537233009842     1.007825032230
         H            2.200230111238    -1.779918462247    -0.404636009842     1.007825032230

  Basis Set: AUG-CC-PVTZ
    Blend: AUG-CC-PVTZ
  Basis Set: (AUG-CC-PVTZ AUX)
    Blend: AUG-CC-PVTZ-JKFIT
	 Reference Energy          =    -554.2914722929619984 [Eh]
	 Singles Energy            =      -0.0000000000000000 [Eh]
	 Same-Spin Energy          =      -0.2314060800739616 [Eh]
	 Opposite-Spin Energy      =      -0.8009311084694557 [Eh]
	 Correlation Energy        =      -1.0323371885434174 [Eh]
	 Total Energy              =    -555.3238094815054637 [Eh]

	 ================> DF-SCS-MP2 Energies <==================
	-----------------------------------------------------------
	 SCS Same-Spin Scale       =       0.3333333333333333 [-]
	 SCS Opposite-Spin Scale   =       1.2000000000000000 [-]
	 SCS Same-Spin Energy      =      -0.0771353600246538 [Eh]
	 SCS Opposite-Spin Energy  =      -0.9611173301633468 [Eh]
	 SCS Correlation Energy    =      -1.0382526901880007 [Eh]
	 SCS Total Energy          =    -555.3297249831499585 [Eh]
	-----------------------------------------------------------

  Dipole Moment: [D]
     X:     7.4422      Y:    -0.1918      Z:     0.4400     Total:     7.4576

*** Psi4 exiting successfully. Buy a developer a beer!
