                               Psi4 1.4a3.dev225

  ==> Input File <==

--------------------------------------------------------------------------
#psi4
#
memory 32 gb

molecule  {
-1 1
  S       -1.9908660    -0.0115680    -0.0914370
  C        0.8351480     0.0026240    -0.3224040
  C       -0.3590580    -0.7033670     0.3385660
  C        0.9435650     1.4522290     0.1346180
  C        2.1425740    -0.7472220    -0.0583990
  H        0.6412340     0.0009810    -1.4036700
  H       -0.1804601    -0.6736351     1.4482630
  H       -0.3012000    -1.7665080     0.0540450
  H        1.1751250     1.4924670     1.2076710
  H        1.7349380     1.9924090    -0.4025300
  H       -0.0196830     1.9410400    -0.0272870
  H        2.3515230    -0.7796840     1.0184780
  H        2.9984690    -0.2652850    -0.5495640
  H        2.0837140    -1.7817520    -0.4169670
units angstrom
no_reorient  #important for SAPT in psi4, default
symmetry c1  #important for SAPT in psi4, default
}

set PROPERTIES_ORIGIN ["COM"]
properties('MP2/aug-cc-pvtz', properties = ['dipole'])
--------------------------------------------------------------------------

    Molecular point group: c1
  Charge       = -1
  Multiplicity = 1
  Basis Set: AUG-CC-PVTZ
    Blend: AUG-CC-PVTZ
  Basis Set: (AUG-CC-PVTZ AUX)
    Blend: AUG-CC-PVTZ-JKFIT

    Orbital Energies [Eh]
    ---------------------

    Doubly Occupied:

       1A    -91.668186     2A    -11.084174     3A    -11.071327
       4A    -11.063538     5A    -11.062786     6A     -8.668284
       7A     -6.349920     8A     -6.348227     9A     -6.348180
      10A     -0.933930    11A     -0.792129    12A     -0.778612
      13A     -0.638544    14A     -0.574726    15A     -0.476237
      16A     -0.447840    17A     -0.423265    18A     -0.397892
      19A     -0.373571    20A     -0.339033    21A     -0.314008
      22A     -0.305401    23A     -0.232754    24A     -0.094145
      25A     -0.091617

  @DF-RHF Final Energy:  -554.32161692040484

   => Energetics <=

    Nuclear Repulsion Energy =            222.3364318301419473
    One-Electron Energy =               -1211.5594428936080931
    Two-Electron Energy =                 434.9013941430613386
    Total Energy =                       -554.3216169204048356
  Basis Set: (AUG-CC-PVTZ AUX)
    Blend: AUG-CC-PVTZ-RI
    Molecular point group: c1

    Geometry (in Angstrom), charge = -1, multiplicity = 1:

       Center              X                  Y                   Z               Mass
    ------------   -----------------  -----------------  -----------------  -----------------
         S           -1.874745417305    -0.009800307460    -0.081563577289    31.972071174400
         C            0.951268582695     0.004391692540    -0.312530577289    12.000000000000
         C           -0.242937417305    -0.701599307460     0.348439422711    12.000000000000
         C            1.059685582695     1.453996692540     0.144491422711    12.000000000000
         C            2.258694582695    -0.745454307460    -0.048525577289    12.000000000000
         H            0.757354582695     0.002748692540    -1.393796577289     1.007825032230
         H           -0.064339517305    -0.671867407460     1.458136422711     1.007825032230
         H           -0.185079417305    -1.764740307460     0.063918422711     1.007825032230
         H            1.291245582695     1.494234692540     1.217544422711     1.007825032230
         H            1.851058582695     1.994176692540    -0.392656577289     1.007825032230
         H            0.096437582695     1.942807692540    -0.017413577289     1.007825032230
         H            2.467643582695    -0.777916307460     1.028351422711     1.007825032230
         H            3.114589582695    -0.263517307460    -0.539690577289     1.007825032230
         H            2.199834582695    -1.779984307460    -0.407093577289     1.007825032230

  Basis Set: AUG-CC-PVTZ
    Blend: AUG-CC-PVTZ
  Basis Set: (AUG-CC-PVTZ AUX)
    Blend: AUG-CC-PVTZ-JKFIT
	 Reference Energy          =    -554.3216169204048356 [Eh]
	 Singles Energy            =      -0.0000000000000000 [Eh]
	 Same-Spin Energy          =      -0.2315872300572653 [Eh]
	 Opposite-Spin Energy      =      -0.8017930112986132 [Eh]
	 Correlation Energy        =      -1.0333802413558786 [Eh]
	 Total Energy              =    -555.3549971617607071 [Eh]

	 ================> DF-SCS-MP2 Energies <==================
	-----------------------------------------------------------
	 SCS Same-Spin Scale       =       0.3333333333333333 [-]
	 SCS Opposite-Spin Scale   =       1.2000000000000000 [-]
	 SCS Same-Spin Energy      =      -0.0771957433524218 [Eh]
	 SCS Opposite-Spin Energy  =      -0.9621516135583359 [Eh]
	 SCS Correlation Energy    =      -1.0393473569107576 [Eh]
	 SCS Total Energy          =    -555.3609642773155883 [Eh]
	-----------------------------------------------------------

  Dipole Moment: [D]
     X:     7.2942      Y:    -0.1271      Z:     0.2995     Total:     7.3015

*** Psi4 exiting successfully. Buy a developer a beer!
