                               Psi4 1.4a3.dev225

  ==> Input File <==

--------------------------------------------------------------------------
#psi4
#
memory 32 gb

molecule  {
-1 1
  S       -1.9908660    -0.0115680    -0.0914370
  C        0.8351480     0.0026240    -0.3224040
  C       -0.3590580    -0.7033670     0.3385660
  C        0.9435650     1.4522290     0.1346180
  C        2.1425740    -0.7472220    -0.0583990
  H        0.6412340     0.0009810    -1.4036700
  H       -0.1836370    -0.6741640     1.4285240
  H       -0.3012000    -1.7665080     0.0540450
  H        1.1420455     1.5109802     1.2134301
  H        1.7349380     1.9924090    -0.4025300
  H       -0.0196830     1.9410400    -0.0272870
  H        2.3515230    -0.7796840     1.0184780
  H        2.9984690    -0.2652850    -0.5495640
  H        2.0837140    -1.7817520    -0.4169670
units angstrom
no_reorient  #important for SAPT in psi4, default
symmetry c1  #important for SAPT in psi4, default
}

set PROPERTIES_ORIGIN ["COM"]
properties('MP2/aug-cc-pvtz', properties = ['dipole'])
--------------------------------------------------------------------------

    Molecular point group: c1
  Charge       = -1
  Multiplicity = 1
  Basis Set: AUG-CC-PVTZ
    Blend: AUG-CC-PVTZ
  Basis Set: (AUG-CC-PVTZ AUX)
    Blend: AUG-CC-PVTZ-JKFIT

    Orbital Energies [Eh]
    ---------------------

    Doubly Occupied:

       1A    -91.667900     2A    -11.084133     3A    -11.071266
       4A    -11.062618     5A    -11.060940     6A     -8.667999
       7A     -6.349636     8A     -6.347944     9A     -6.347898
      10A     -0.933935    11A     -0.792484    12A     -0.779272
      13A     -0.638581    14A     -0.576277    15A     -0.475746
      16A     -0.448361    17A     -0.422759    18A     -0.398475
      19A     -0.375948    20A     -0.337621    21A     -0.314175
      22A     -0.306493    23A     -0.232532    24A     -0.093885
      25A     -0.091485

  @DF-RHF Final Energy:  -554.32205671971303

   => Energetics <=

    Nuclear Repulsion Energy =            222.4174650902245673
    One-Electron Energy =               -1211.7223215066160265
    Two-Electron Energy =                 434.9827996966783417
    Total Energy =                       -554.3220567197131459
  Basis Set: (AUG-CC-PVTZ AUX)
    Blend: AUG-CC-PVTZ-RI
    Molecular point group: c1

    Geometry (in Angstrom), charge = -1, multiplicity = 1:

       Center              X                  Y                   Z               Mass
    ------------   -----------------  -----------------  -----------------  -----------------
         S           -1.874335050245    -0.010003862262    -0.081405346177    31.972071174400
         C            0.951678949755     0.004188137738    -0.312372346177    12.000000000000
         C           -0.242527050245    -0.701802862262     0.348597653823    12.000000000000
         C            1.060095949755     1.453793137738     0.144649653823    12.000000000000
         C            2.259104949755    -0.745657862262    -0.048367346177    12.000000000000
         H            0.757764949755     0.002545137738    -1.393638346177     1.007825032230
         H           -0.067106050245    -0.672599862262     1.438555653823     1.007825032230
         H           -0.184669050245    -1.764943862262     0.064076653823     1.007825032230
         H            1.258576449755     1.512544337738     1.223461753823     1.007825032230
         H            1.851468949755     1.993973137738    -0.392498346177     1.007825032230
         H            0.096847949755     1.942604137738    -0.017255346177     1.007825032230
         H            2.468053949755    -0.778119862262     1.028509653823     1.007825032230
         H            3.114999949755    -0.263720862262    -0.539532346177     1.007825032230
         H            2.200244949755    -1.780187862262    -0.406935346177     1.007825032230

  Basis Set: AUG-CC-PVTZ
    Blend: AUG-CC-PVTZ
  Basis Set: (AUG-CC-PVTZ AUX)
    Blend: AUG-CC-PVTZ-JKFIT
	 Reference Energy          =    -554.3220567197130322 [Eh]
	 Singles Energy            =      -0.0000000000000000 [Eh]
	 Same-Spin Energy          =      -0.2315542326454533 [Eh]
	 Opposite-Spin Energy      =      -0.8016356740014016 [Eh]
	 Correlation Energy        =      -1.0331899066468548 [Eh]
	 Total Energy              =    -555.3552466263598717 [Eh]

	 ================> DF-SCS-MP2 Energies <==================
	-----------------------------------------------------------
	 SCS Same-Spin Scale       =       0.3333333333333333 [-]
	 SCS Opposite-Spin Scale   =       1.2000000000000000 [-]
	 SCS Same-Spin Energy      =      -0.0771847442151511 [Eh]
	 SCS Opposite-Spin Energy  =      -0.9619628088016818 [Eh]
	 SCS Correlation Energy    =      -1.0391475530168330 [Eh]
	 SCS Total Energy          =    -555.3612042727298785 [Eh]
	-----------------------------------------------------------

  Dipole Moment: [D]
     X:     7.3026      Y:    -0.1282      Z:     0.3230     Total:     7.3109

*** Psi4 exiting successfully. Buy a developer a beer!
