                               Psi4 1.4a3.dev225

  ==> Input File <==

--------------------------------------------------------------------------
#psi4
#
memory 32 gb

molecule  {
-1 1
  S       -1.9908660    -0.0115680    -0.0914370
  C        0.8242955     0.0224235    -0.1638407
  C       -0.3590580    -0.7033670     0.3385660
  C        0.9435650     1.4522290     0.1346180
  C        2.1425740    -0.7472220    -0.0583990
  H        0.6412340     0.0009810    -1.4036700
  H       -0.1836370    -0.6741640     1.4285240
  H       -0.3012000    -1.7665080     0.0540450
  H        1.1751250     1.4924670     1.2076710
  H        1.7349380     1.9924090    -0.4025300
  H       -0.0196830     1.9410400    -0.0272870
  H        2.3515230    -0.7796840     1.0184780
  H        2.9984690    -0.2652850    -0.5495640
  H        2.0837140    -1.7817520    -0.4169670
units angstrom
no_reorient  #important for SAPT in psi4, default
symmetry c1  #important for SAPT in psi4, default
}

set PROPERTIES_ORIGIN ["COM"]
properties('MP2/aug-cc-pvtz', properties = ['dipole'])
--------------------------------------------------------------------------

    Molecular point group: c1
  Charge       = -1
  Multiplicity = 1
  Basis Set: AUG-CC-PVTZ
    Blend: AUG-CC-PVTZ
  Basis Set: (AUG-CC-PVTZ AUX)
    Blend: AUG-CC-PVTZ-JKFIT

    Orbital Energies [Eh]
    ---------------------

    Doubly Occupied:

       1A    -91.669757     2A    -11.087011     3A    -11.081294
       4A    -11.064257     5A    -11.060904     6A     -8.669808
       7A     -6.351447     8A     -6.349707     9A     -6.349672
      10A     -0.947108    11A     -0.798874    12A     -0.791915
      13A     -0.635029    14A     -0.565492    15A     -0.484644
      16A     -0.455793    17A     -0.432054    18A     -0.397881
      19A     -0.374783    20A     -0.344705    21A     -0.342396
      22A     -0.259272    23A     -0.230039    24A     -0.096705
      25A     -0.092855

  @DF-RHF Final Energy:  -554.29508214228167

   => Energetics <=

    Nuclear Repulsion Energy =            223.4259057392272041
    One-Electron Energy =               -1213.5751720767675579
    Two-Electron Energy =                 435.8541841952586537
    Total Energy =                       -554.2950821422816716
  Basis Set: (AUG-CC-PVTZ AUX)
    Blend: AUG-CC-PVTZ-RI
    Molecular point group: c1

    Geometry (in Angstrom), charge = -1, multiplicity = 1:

       Center              X                  Y                   Z               Mass
    ------------   -----------------  -----------------  -----------------  -----------------
         S           -1.873246899579    -0.012462642533    -0.102709279806    31.972071174400
         C            0.941914600421     0.021528857467    -0.175112979806    12.000000000000
         C           -0.241438899579    -0.704261642533     0.327293720194    12.000000000000
         C            1.061184100421     1.451334357467     0.123345720194    12.000000000000
         C            2.260193100421    -0.748116642533    -0.069671279806    12.000000000000
         H            0.758853100421     0.000086357467    -1.414942279806     1.007825032230
         H           -0.066017899579    -0.675058642533     1.417251720194     1.007825032230
         H           -0.183580899579    -1.767402642533     0.042772720194     1.007825032230
         H            1.292744100421     1.491572357467     1.196398720194     1.007825032230
         H            1.852557100421     1.991514357467    -0.413802279806     1.007825032230
         H            0.097936100421     1.940145357467    -0.038559279806     1.007825032230
         H            2.469142100421    -0.780578642533     1.007205720194     1.007825032230
         H            3.116088100421    -0.266179642533    -0.560836279806     1.007825032230
         H            2.201333100421    -1.782646642533    -0.428239279806     1.007825032230

  Basis Set: AUG-CC-PVTZ
    Blend: AUG-CC-PVTZ
  Basis Set: (AUG-CC-PVTZ AUX)
    Blend: AUG-CC-PVTZ-JKFIT
	 Reference Energy          =    -554.2950821422816716 [Eh]
	 Singles Energy            =      -0.0000000000000000 [Eh]
	 Same-Spin Energy          =      -0.2331011907992954 [Eh]
	 Opposite-Spin Energy      =      -0.8041838626343781 [Eh]
	 Correlation Energy        =      -1.0372850534336735 [Eh]
	 Total Energy              =    -555.3323671957153920 [Eh]

	 ================> DF-SCS-MP2 Energies <==================
	-----------------------------------------------------------
	 SCS Same-Spin Scale       =       0.3333333333333333 [-]
	 SCS Opposite-Spin Scale   =       1.2000000000000000 [-]
	 SCS Same-Spin Energy      =      -0.0777003969330985 [Eh]
	 SCS Opposite-Spin Energy  =      -0.9650206351612537 [Eh]
	 SCS Correlation Energy    =      -1.0427210320943521 [Eh]
	 SCS Total Energy          =    -555.3378031743760630 [Eh]
	-----------------------------------------------------------

  Dipole Moment: [D]
     X:     7.2363      Y:    -0.0860      Z:     0.4760     Total:     7.2525

*** Psi4 exiting successfully. Buy a developer a beer!
