                               Psi4 1.4a3.dev225

  ==> Input File <==

--------------------------------------------------------------------------
#psi4
#
memory 32 gb

molecule  {
-1 1
  S       -1.9908660    -0.0115680    -0.0914370
  C        0.8351480     0.0026240    -0.3224040
  C       -0.3590580    -0.7033670     0.3385660
  C        0.9435650     1.4522290     0.1346180
  C        2.1425740    -0.7472220    -0.0583990
  H        0.6412340     0.0009810    -1.4036700
  H       -0.1518685    -0.6688754     1.6259139
  H       -0.3012000    -1.7665080     0.0540450
  H        1.1751250     1.4924670     1.2076710
  H        1.7349380     1.9924090    -0.4025300
  H       -0.0196830     1.9410400    -0.0272870
  H        2.3515230    -0.7796840     1.0184780
  H        2.9984690    -0.2652850    -0.5495640
  H        2.0837140    -1.7817520    -0.4169670
units angstrom
no_reorient  #important for SAPT in psi4, default
symmetry c1  #important for SAPT in psi4, default
}

set PROPERTIES_ORIGIN ["COM"]
properties('MP2/aug-cc-pvtz', properties = ['dipole'])
--------------------------------------------------------------------------

    Molecular point group: c1
  Charge       = -1
  Multiplicity = 1
  Basis Set: AUG-CC-PVTZ
    Blend: AUG-CC-PVTZ
  Basis Set: (AUG-CC-PVTZ AUX)
    Blend: AUG-CC-PVTZ-JKFIT

    Orbital Energies [Eh]
    ---------------------

    Doubly Occupied:

       1A    -91.671616     2A    -11.085927     3A    -11.083957
       4A    -11.074236     5A    -11.062989     6A     -8.671673
       7A     -6.353292     8A     -6.351590     9A     -6.351536
      10A     -0.933554    11A     -0.791146    12A     -0.774328
      13A     -0.640559    14A     -0.565892    15A     -0.476700
      16A     -0.447262    17A     -0.421085    18A     -0.396973
      19A     -0.357893    20A     -0.340177    21A     -0.315730
      22A     -0.296160    23A     -0.234964    24A     -0.096880
      25A     -0.093266

  @DF-RHF Final Energy:  -554.30376803921513

   => Energetics <=

    Nuclear Repulsion Energy =            221.5742633901007821
    One-Electron Energy =               -1209.9772951824982101
    Two-Electron Energy =                 434.0992637531822993
    Total Energy =                       -554.3037680392151287
  Basis Set: (AUG-CC-PVTZ AUX)
    Blend: AUG-CC-PVTZ-RI
    Molecular point group: c1

    Geometry (in Angstrom), charge = -1, multiplicity = 1:

       Center              X                  Y                   Z               Mass
    ------------   -----------------  -----------------  -----------------  -----------------
         S           -1.875069030538    -0.009854179993    -0.083574314084    31.972071174400
         C            0.950944969462     0.004337820007    -0.314541314084    12.000000000000
         C           -0.243261030538    -0.701653179993     0.346428685916    12.000000000000
         C            1.059361969462     1.453942820007     0.142480685916    12.000000000000
         C            2.258370969462    -0.745508179993    -0.050536314084    12.000000000000
         H            0.757030969462     0.002694820007    -1.395807314084     1.007825032230
         H           -0.036071530538    -0.667161579993     1.633776585916     1.007825032230
         H           -0.185403030538    -1.764794179993     0.061907685916     1.007825032230
         H            1.290921969462     1.494180820007     1.215533685916     1.007825032230
         H            1.850734969462     1.994122820007    -0.394667314084     1.007825032230
         H            0.096113969462     1.942753820007    -0.019424314084     1.007825032230
         H            2.467319969462    -0.777970179993     1.026340685916     1.007825032230
         H            3.114265969462    -0.263571179993    -0.541701314084     1.007825032230
         H            2.199510969462    -1.780038179993    -0.409104314084     1.007825032230

  Basis Set: AUG-CC-PVTZ
    Blend: AUG-CC-PVTZ
  Basis Set: (AUG-CC-PVTZ AUX)
    Blend: AUG-CC-PVTZ-JKFIT
	 Reference Energy          =    -554.3037680392151287 [Eh]
	 Singles Energy            =      -0.0000000000000000 [Eh]
	 Same-Spin Energy          =      -0.2317907326495056 [Eh]
	 Opposite-Spin Energy      =      -0.8033192532799085 [Eh]
	 Correlation Energy        =      -1.0351099859294142 [Eh]
	 Total Energy              =    -555.3388780251445951 [Eh]

	 ================> DF-SCS-MP2 Energies <==================
	-----------------------------------------------------------
	 SCS Same-Spin Scale       =       0.3333333333333333 [-]
	 SCS Opposite-Spin Scale   =       1.2000000000000000 [-]
	 SCS Same-Spin Energy      =      -0.0772635775498352 [Eh]
	 SCS Opposite-Spin Energy  =      -0.9639831039358902 [Eh]
	 SCS Correlation Energy    =      -1.0412466814857253 [Eh]
	 SCS Total Energy          =    -555.3450147207008740 [Eh]
	-----------------------------------------------------------

  Dipole Moment: [D]
     X:     7.0956      Y:    -0.0367      Z:     0.0280     Total:     7.0957

*** Psi4 exiting successfully. Buy a developer a beer!
