                               Psi4 1.4a3.dev225

  ==> Input File <==

--------------------------------------------------------------------------
#psi4
#
memory 32 gb

molecule  {
-1 1
  S       -1.9908660    -0.0115680    -0.0914370
  C        0.8351480     0.0026240    -0.3224040
  C       -0.3590580    -0.7033670     0.3385660
  C        0.9435650     1.4522290     0.1346180
  C        2.1425740    -0.7472220    -0.0583990
  H        0.6412340     0.0009810    -1.4036700
  H       -0.1868139    -0.6746929     1.4087850
  H       -0.3012000    -1.7665080     0.0540450
  H        1.1751250     1.4924670     1.2076710
  H        1.7349380     1.9924090    -0.4025300
  H       -0.0196830     1.9410400    -0.0272870
  H        2.3515230    -0.7796840     1.0184780
  H        2.9984690    -0.2652850    -0.5495640
  H        2.0837140    -1.7817520    -0.4169670
units angstrom
no_reorient  #important for SAPT in psi4, default
symmetry c1  #important for SAPT in psi4, default
}

set PROPERTIES_ORIGIN ["COM"]
properties('MP2/aug-cc-pvtz', properties = ['dipole'])
--------------------------------------------------------------------------

    Molecular point group: c1
  Charge       = -1
  Multiplicity = 1
  Basis Set: AUG-CC-PVTZ
    Blend: AUG-CC-PVTZ
  Basis Set: (AUG-CC-PVTZ AUX)
    Blend: AUG-CC-PVTZ-JKFIT

    Orbital Energies [Eh]
    ---------------------

    Doubly Occupied:

       1A    -91.667661     2A    -11.084246     3A    -11.070819
       4A    -11.062782     5A    -11.058285     6A     -8.667760
       7A     -6.349398     8A     -6.347709     9A     -6.347663
      10A     -0.934291    11A     -0.792754    12A     -0.780150
      13A     -0.638255    14A     -0.577652    15A     -0.476201
      16A     -0.448300    17A     -0.424125    18A     -0.398179
      19A     -0.377237    20A     -0.338857    21A     -0.313964
      22A     -0.306486    23A     -0.232352    24A     -0.093741
      25A     -0.091384

  @DF-RHF Final Energy:  -554.32224249747071

   => Energetics <=

    Nuclear Repulsion Energy =            222.5251571560942523
    One-Electron Energy =               -1211.9342941775298641
    Two-Electron Energy =                 435.0868945239649292
    Total Energy =                       -554.3222424974707110
  Basis Set: (AUG-CC-PVTZ AUX)
    Blend: AUG-CC-PVTZ-RI
    Molecular point group: c1

    Geometry (in Angstrom), charge = -1, multiplicity = 1:

       Center              X                  Y                   Z               Mass
    ------------   -----------------  -----------------  -----------------  -----------------
         S           -1.874673501995    -0.009788334780    -0.081116746638    31.972071174400
         C            0.951340498005     0.004403665220    -0.312083746638    12.000000000000
         C           -0.242865501995    -0.701587334780     0.348886253362    12.000000000000
         C            1.059757498005     1.454008665220     0.144938253362    12.000000000000
         C            2.258766498005    -0.745442334780    -0.048078746638    12.000000000000
         H            0.757426498005     0.002760665220    -1.393349746638     1.007825032230
         H           -0.070621401995    -0.672913234780     1.419105253362     1.007825032230
         H           -0.185007501995    -1.764728334780     0.064365253362     1.007825032230
         H            1.291317498005     1.494246665220     1.217991253362     1.007825032230
         H            1.851130498005     1.994188665220    -0.392209746638     1.007825032230
         H            0.096509498005     1.942819665220    -0.016966746638     1.007825032230
         H            2.467715498005    -0.777904334780     1.028798253362     1.007825032230
         H            3.114661498005    -0.263505334780    -0.539243746638     1.007825032230
         H            2.199906498005    -1.779972334780    -0.406646746638     1.007825032230

  Basis Set: AUG-CC-PVTZ
    Blend: AUG-CC-PVTZ
  Basis Set: (AUG-CC-PVTZ AUX)
    Blend: AUG-CC-PVTZ-JKFIT
	 Reference Energy          =    -554.3222424974707110 [Eh]
	 Singles Energy            =      -0.0000000000000000 [Eh]
	 Same-Spin Energy          =      -0.2315400673131365 [Eh]
	 Opposite-Spin Energy      =      -0.8015232424327630 [Eh]
	 Correlation Energy        =      -1.0330633097458994 [Eh]
	 Total Energy              =    -555.3553058072166095 [Eh]

	 ================> DF-SCS-MP2 Energies <==================
	-----------------------------------------------------------
	 SCS Same-Spin Scale       =       0.3333333333333333 [-]
	 SCS Opposite-Spin Scale   =       1.2000000000000000 [-]
	 SCS Same-Spin Energy      =      -0.0771800224377122 [Eh]
	 SCS Opposite-Spin Energy  =      -0.9618278909193155 [Eh]
	 SCS Correlation Energy    =      -1.0390079133570276 [Eh]
	 SCS Total Energy          =    -555.3612504108277790 [Eh]
	-----------------------------------------------------------

  Dipole Moment: [D]
     X:     7.3283      Y:    -0.1424      Z:     0.3393     Total:     7.3375

*** Psi4 exiting successfully. Buy a developer a beer!
