                               Psi4 1.4a3.dev225

  ==> Input File <==

--------------------------------------------------------------------------
#psi4
#
memory 32 gb

molecule  {
-1 1
  S       -1.9908660    -0.0115680    -0.0914370
  C        0.8351480     0.0026240    -0.3224040
  C       -0.3590580    -0.7033670     0.3385660
  C        0.9435650     1.4522290     0.1346180
  C        2.1425740    -0.7472220    -0.0583990
  H        0.6412340     0.0009810    -1.4036700
  H       -0.1836370    -0.6741640     1.4285240
  H       -0.3012000    -1.7665080     0.0540450
  H        1.2079223     1.4739048     1.2006045
  H        1.7349380     1.9924090    -0.4025300
  H       -0.0196830     1.9410400    -0.0272870
  H        2.3515230    -0.7796840     1.0184780
  H        2.9984690    -0.2652850    -0.5495640
  H        2.0837140    -1.7817520    -0.4169670
units angstrom
no_reorient  #important for SAPT in psi4, default
symmetry c1  #important for SAPT in psi4, default
}

set PROPERTIES_ORIGIN ["COM"]
properties('MP2/aug-cc-pvtz', properties = ['dipole'])
--------------------------------------------------------------------------

    Molecular point group: c1
  Charge       = -1
  Multiplicity = 1
  Basis Set: AUG-CC-PVTZ
    Blend: AUG-CC-PVTZ
  Basis Set: (AUG-CC-PVTZ AUX)
    Blend: AUG-CC-PVTZ-JKFIT

    Orbital Energies [Eh]
    ---------------------

    Doubly Occupied:

       1A    -91.667936     2A    -11.084289     3A    -11.070874
       4A    -11.062947     5A    -11.060909     6A     -8.668035
       7A     -6.349672     8A     -6.347981     9A     -6.347934
      10A     -0.934277    11A     -0.792348    12A     -0.779480
      13A     -0.638220    14A     -0.576013    15A     -0.476740
      16A     -0.447931    17A     -0.424585    18A     -0.397486
      19A     -0.374851    20A     -0.340161    21A     -0.313792
      22A     -0.305337    23A     -0.232566    24A     -0.093992
      25A     -0.091513

  @DF-RHF Final Energy:  -554.32197275224212

   => Energetics <=

    Nuclear Repulsion Energy =            222.4436615792986345
    One-Electron Energy =               -1211.7715302955928109
    Two-Electron Energy =                 435.0058959640521152
    Total Energy =                       -554.3219727522421181
  Basis Set: (AUG-CC-PVTZ AUX)
    Blend: AUG-CC-PVTZ-RI
    Molecular point group: c1

    Geometry (in Angstrom), charge = -1, multiplicity = 1:

       Center              X                  Y                   Z               Mass
    ------------   -----------------  -----------------  -----------------  -----------------
         S           -1.875080674983    -0.009584225373    -0.081260179979    31.972071174400
         C            0.950933325017     0.004607774627    -0.312227179979    12.000000000000
         C           -0.243272674983    -0.701383225373     0.348742820021    12.000000000000
         C            1.059350325017     1.454212774627     0.144794820021    12.000000000000
         C            2.258359325017    -0.745238225373    -0.048222179979    12.000000000000
         H            0.757019325017     0.002964774627    -1.393493179979     1.007825032230
         H           -0.067851674983    -0.672180225373     1.438700820021     1.007825032230
         H           -0.185414674983    -1.764524225373     0.064221820021     1.007825032230
         H            1.323707625017     1.475888574627     1.210781320021     1.007825032230
         H            1.850723325017     1.994392774627    -0.392353179979     1.007825032230
         H            0.096102325017     1.943023774627    -0.017110179979     1.007825032230
         H            2.467308325017    -0.777700225373     1.028654820021     1.007825032230
         H            3.114254325017    -0.263301225373    -0.539387179979     1.007825032230
         H            2.199499325017    -1.779768225373    -0.406790179979     1.007825032230

  Basis Set: AUG-CC-PVTZ
    Blend: AUG-CC-PVTZ
  Basis Set: (AUG-CC-PVTZ AUX)
    Blend: AUG-CC-PVTZ-JKFIT
	 Reference Energy          =    -554.3219727522421181 [Eh]
	 Singles Energy            =      -0.0000000000000000 [Eh]
	 Same-Spin Energy          =      -0.2315875212512181 [Eh]
	 Opposite-Spin Energy      =      -0.8016917799793994 [Eh]
	 Correlation Energy        =      -1.0332793012306176 [Eh]
	 Total Energy              =    -555.3552520534727819 [Eh]

	 ================> DF-SCS-MP2 Energies <==================
	-----------------------------------------------------------
	 SCS Same-Spin Scale       =       0.3333333333333333 [-]
	 SCS Opposite-Spin Scale   =       1.2000000000000000 [-]
	 SCS Same-Spin Energy      =      -0.0771958404170727 [Eh]
	 SCS Opposite-Spin Energy  =      -0.9620301359752793 [Eh]
	 SCS Correlation Energy    =      -1.0392259763923519 [Eh]
	 SCS Total Energy          =    -555.3611987286344629 [Eh]
	-----------------------------------------------------------

  Dipole Moment: [D]
     X:     7.3197      Y:    -0.1419      Z:     0.3168     Total:     7.3280

*** Psi4 exiting successfully. Buy a developer a beer!
