                               Psi4 1.4a3.dev225

  ==> Input File <==

--------------------------------------------------------------------------
#psi4
#
memory 32 gb

molecule  {
-1 1
  S       -1.9908660    -0.0115680    -0.0914370
  C        0.8351480     0.0026240    -0.3224040
  C       -0.3590580    -0.7033670     0.3385660
  C        0.9435650     1.4522290     0.1346180
  C        2.1425740    -0.7472220    -0.0583990
  H        0.6412340     0.0009810    -1.4036700
  H       -0.1836370    -0.6741640     1.4285240
  H       -0.2907002    -1.9594425     0.0024113
  H        1.1751250     1.4924670     1.2076710
  H        1.7349380     1.9924090    -0.4025300
  H       -0.0196830     1.9410400    -0.0272870
  H        2.3515230    -0.7796840     1.0184780
  H        2.9984690    -0.2652850    -0.5495640
  H        2.0837140    -1.7817520    -0.4169670
units angstrom
no_reorient  #important for SAPT in psi4, default
symmetry c1  #important for SAPT in psi4, default
}

set PROPERTIES_ORIGIN ["COM"]
properties('MP2/aug-cc-pvtz', properties = ['dipole'])
--------------------------------------------------------------------------

    Molecular point group: c1
  Charge       = -1
  Multiplicity = 1
  Basis Set: AUG-CC-PVTZ
    Blend: AUG-CC-PVTZ
  Basis Set: (AUG-CC-PVTZ AUX)
    Blend: AUG-CC-PVTZ-JKFIT

    Orbital Energies [Eh]
    ---------------------

    Doubly Occupied:

       1A    -91.671370     2A    -11.085835     3A    -11.083390
       4A    -11.073846     5A    -11.065284     6A     -8.671426
       7A     -6.353046     8A     -6.351333     9A     -6.351304
      10A     -0.934035    11A     -0.791908    12A     -0.773058
      13A     -0.640424    14A     -0.570833    15A     -0.470369
      16A     -0.444438    17A     -0.423598    18A     -0.397798
      19A     -0.367384    20A     -0.337648    21A     -0.308855
      22A     -0.300013    23A     -0.234833    24A     -0.096543
      25A     -0.093033

  @DF-RHF Final Energy:  -554.30330735590076

   => Energetics <=

    Nuclear Repulsion Energy =            221.5597505493773838
    One-Electron Energy =               -1209.9429054871914104
    Two-Electron Energy =                 434.0798475819132705
    Total Energy =                       -554.3033073559006425
  Basis Set: (AUG-CC-PVTZ AUX)
    Blend: AUG-CC-PVTZ-RI
    Molecular point group: c1

    Geometry (in Angstrom), charge = -1, multiplicity = 1:

       Center              X                  Y                   Z               Mass
    ------------   -----------------  -----------------  -----------------  -----------------
         S           -1.874828301346    -0.007610597321    -0.080755747359    31.972071174400
         C            0.951185698654     0.006581402679    -0.311722747359    12.000000000000
         C           -0.243020301346    -0.699409597321     0.349247252641    12.000000000000
         C            1.059602698654     1.456186402679     0.145299252641    12.000000000000
         C            2.258611698654    -0.743264597321    -0.047717747359    12.000000000000
         H            0.757271698654     0.004938402679    -1.392988747359     1.007825032230
         H           -0.067599301346    -0.670206597321     1.439205252641     1.007825032230
         H           -0.174662501346    -1.955485097321     0.013092552641     1.007825032230
         H            1.291162698654     1.496424402679     1.218352252641     1.007825032230
         H            1.850975698654     1.996366402679    -0.391848747359     1.007825032230
         H            0.096354698654     1.944997402679    -0.016605747359     1.007825032230
         H            2.467560698654    -0.775726597321     1.029159252641     1.007825032230
         H            3.114506698654    -0.261327597321    -0.538882747359     1.007825032230
         H            2.199751698654    -1.777794597321    -0.406285747359     1.007825032230

  Basis Set: AUG-CC-PVTZ
    Blend: AUG-CC-PVTZ
  Basis Set: (AUG-CC-PVTZ AUX)
    Blend: AUG-CC-PVTZ-JKFIT
	 Reference Energy          =    -554.3033073559007562 [Eh]
	 Singles Energy            =      -0.0000000000000000 [Eh]
	 Same-Spin Energy          =      -0.2318066037461625 [Eh]
	 Opposite-Spin Energy      =      -0.8034366534015830 [Eh]
	 Correlation Energy        =      -1.0352432571477455 [Eh]
	 Total Energy              =    -555.3385506130484828 [Eh]

	 ================> DF-SCS-MP2 Energies <==================
	-----------------------------------------------------------
	 SCS Same-Spin Scale       =       0.3333333333333333 [-]
	 SCS Opposite-Spin Scale   =       1.2000000000000000 [-]
	 SCS Same-Spin Energy      =      -0.0772688679153875 [Eh]
	 SCS Opposite-Spin Energy  =      -0.9641239840818996 [Eh]
	 SCS Correlation Energy    =      -1.0413928519972870 [Eh]
	 SCS Total Energy          =    -555.3447002078980859 [Eh]
	-----------------------------------------------------------

  Dipole Moment: [D]
     X:     7.1248      Y:     0.2012      Z:     0.3014     Total:     7.1340

*** Psi4 exiting successfully. Buy a developer a beer!
