                               Psi4 1.4a3.dev225

  ==> Input File <==

--------------------------------------------------------------------------
#psi4
#
memory 32 gb

molecule  {
-1 1
  S       -1.9908660    -0.0115680    -0.0914370
  C        0.8351480     0.0026240    -0.3224040
  C       -0.3590580    -0.7033670     0.3385660
  C        0.9400076     1.4046637     0.1196219
  C        2.1425740    -0.7472220    -0.0583990
  H        0.6412340     0.0009810    -1.4036700
  H       -0.1836370    -0.6741640     1.4285240
  H       -0.3012000    -1.7665080     0.0540450
  H        1.1751250     1.4924670     1.2076710
  H        1.7349380     1.9924090    -0.4025300
  H       -0.0196830     1.9410400    -0.0272870
  H        2.3515230    -0.7796840     1.0184780
  H        2.9984690    -0.2652850    -0.5495640
  H        2.0837140    -1.7817520    -0.4169670
units angstrom
no_reorient  #important for SAPT in psi4, default
symmetry c1  #important for SAPT in psi4, default
}

set PROPERTIES_ORIGIN ["COM"]
properties('MP2/aug-cc-pvtz', properties = ['dipole'])
--------------------------------------------------------------------------

    Molecular point group: c1
  Charge       = -1
  Multiplicity = 1
  Basis Set: AUG-CC-PVTZ
    Blend: AUG-CC-PVTZ
  Basis Set: (AUG-CC-PVTZ AUX)
    Blend: AUG-CC-PVTZ-JKFIT

    Orbital Energies [Eh]
    ---------------------

    Doubly Occupied:

       1A    -91.667988     2A    -11.084290     3A    -11.068467
       4A    -11.065469     5A    -11.061139     6A     -8.668090
       7A     -6.349726     8A     -6.348034     9A     -6.347987
      10A     -0.940869    11A     -0.793012    12A     -0.778891
      13A     -0.638325    14A     -0.577270    15A     -0.479577
      16A     -0.447683    17A     -0.424256    18A     -0.395138
      19A     -0.373516    20A     -0.333175    21A     -0.323235
      22A     -0.302848    23A     -0.232707    24A     -0.094046
      25A     -0.091517

  @DF-RHF Final Energy:  -554.31915244260199

   => Energetics <=

    Nuclear Repulsion Energy =            223.1754328914477128
    One-Electron Energy =               -1213.2146576001650828
    Two-Electron Energy =                 435.7200722661153804
    Total Energy =                       -554.3191524426019896
  Basis Set: (AUG-CC-PVTZ AUX)
    Blend: AUG-CC-PVTZ-RI
    Molecular point group: c1

    Geometry (in Angstrom), charge = -1, multiplicity = 1:

       Center              X                  Y                   Z               Mass
    ------------   -----------------  -----------------  -----------------  -----------------
         S           -1.874230039130    -0.003384083058    -0.079319180891    31.972071174400
         C            0.951783960870     0.010807916942    -0.310286180891    12.000000000000
         C           -0.242422039130    -0.695183083058     0.350683819109    12.000000000000
         C            1.056643560870     1.412847616942     0.131739719109    12.000000000000
         C            2.259209960870    -0.739038083058    -0.046281180891    12.000000000000
         H            0.757869960870     0.009164916942    -1.391552180891     1.007825032230
         H           -0.067001039130    -0.665980083058     1.440641819109     1.007825032230
         H           -0.184564039130    -1.758324083058     0.066162819109     1.007825032230
         H            1.291760960870     1.500650916942     1.219788819109     1.007825032230
         H            1.851573960870     2.000592916942    -0.390412180891     1.007825032230
         H            0.096952960870     1.949223916942    -0.015169180891     1.007825032230
         H            2.468158960870    -0.771500083058     1.030595819109     1.007825032230
         H            3.115104960870    -0.257101083058    -0.537446180891     1.007825032230
         H            2.200349960870    -1.773568083058    -0.404849180891     1.007825032230

  Basis Set: AUG-CC-PVTZ
    Blend: AUG-CC-PVTZ
  Basis Set: (AUG-CC-PVTZ AUX)
    Blend: AUG-CC-PVTZ-JKFIT
	 Reference Energy          =    -554.3191524426019896 [Eh]
	 Singles Energy            =      -0.0000000000000000 [Eh]
	 Same-Spin Energy          =      -0.2320217523774935 [Eh]
	 Opposite-Spin Energy      =      -0.8021422966568293 [Eh]
	 Correlation Energy        =      -1.0341640490343229 [Eh]
	 Total Energy              =    -555.3533164916362921 [Eh]

	 ================> DF-SCS-MP2 Energies <==================
	-----------------------------------------------------------
	 SCS Same-Spin Scale       =       0.3333333333333333 [-]
	 SCS Opposite-Spin Scale   =       1.2000000000000000 [-]
	 SCS Same-Spin Energy      =      -0.0773405841258312 [Eh]
	 SCS Opposite-Spin Energy  =      -0.9625707559881952 [Eh]
	 SCS Correlation Energy    =      -1.0399113401140263 [Eh]
	 SCS Total Energy          =    -555.3590637827160208 [Eh]
	-----------------------------------------------------------

  Dipole Moment: [D]
     X:     7.2871      Y:    -0.1550      Z:     0.3075     Total:     7.2952

*** Psi4 exiting successfully. Buy a developer a beer!
