                               Psi4 1.4a3.dev225

  ==> Input File <==

--------------------------------------------------------------------------
#psi4
#
memory 32 gb

molecule  {
-1 1
  S       -1.9908660    -0.0115680    -0.0914370
  C        0.8351480     0.0026240    -0.3224040
  C       -0.3590580    -0.7033670     0.3385660
  C        0.9435650     1.4522290     0.1346180
  C        2.1425740    -0.7472220    -0.0583990
  H        0.6412340     0.0009810    -1.4036700
  H       -0.1836370    -0.6741640     1.4285240
  H       -0.3012000    -1.7665080     0.0540450
  H        1.1915614     1.4831906     1.2043007
  H        1.7349380     1.9924090    -0.4025300
  H       -0.0196830     1.9410400    -0.0272870
  H        2.3515230    -0.7796840     1.0184780
  H        2.9984690    -0.2652850    -0.5495640
  H        2.0837140    -1.7817520    -0.4169670
units angstrom
no_reorient  #important for SAPT in psi4, default
symmetry c1  #important for SAPT in psi4, default
}

set PROPERTIES_ORIGIN ["COM"]
properties('MP2/aug-cc-pvtz', properties = ['dipole'])
--------------------------------------------------------------------------

    Molecular point group: c1
  Charge       = -1
  Multiplicity = 1
  Basis Set: AUG-CC-PVTZ
    Blend: AUG-CC-PVTZ
  Basis Set: (AUG-CC-PVTZ AUX)
    Blend: AUG-CC-PVTZ-JKFIT

    Orbital Energies [Eh]
    ---------------------

    Doubly Occupied:

       1A    -91.667924     2A    -11.084249     3A    -11.070969
       4A    -11.062865     5A    -11.060915     6A     -8.668023
       7A     -6.349660     8A     -6.347969     9A     -6.347922
      10A     -0.934184    11A     -0.792377    12A     -0.779418
      13A     -0.638304    14A     -0.576078    15A     -0.476471
      16A     -0.447967    17A     -0.424135    18A     -0.397769
      19A     -0.375142    20A     -0.339564    21A     -0.313876
      22A     -0.305677    23A     -0.232556    24A     -0.093962
      25A     -0.091503

  @DF-RHF Final Energy:  -554.32209624426469

   => Energetics <=

    Nuclear Repulsion Energy =            222.4365225606932768
    One-Electron Energy =               -1211.7582797171612583
    Two-Electron Energy =                 434.9996609122033533
    Total Energy =                       -554.3220962442646851
  Basis Set: (AUG-CC-PVTZ AUX)
    Blend: AUG-CC-PVTZ-RI
    Molecular point group: c1

    Geometry (in Angstrom), charge = -1, multiplicity = 1:

       Center              X                  Y                   Z               Mass
    ------------   -----------------  -----------------  -----------------  -----------------
         S           -1.874895494589    -0.009689326443    -0.081302015316    31.972071174400
         C            0.951118505411     0.004502673557    -0.312269015316    12.000000000000
         C           -0.243087494589    -0.701488326443     0.348700984684    12.000000000000
         C            1.059535505411     1.454107673557     0.144752984684    12.000000000000
         C            2.258544505411    -0.745343326443    -0.048264015316    12.000000000000
         H            0.757204505411     0.002859673557    -1.393535015316     1.007825032230
         H           -0.067666494589    -0.672285326443     1.438658984684     1.007825032230
         H           -0.185229494589    -1.764629326443     0.064179984684     1.007825032230
         H            1.307531905411     1.485069273557     1.214435684684     1.007825032230
         H            1.850908505411     1.994287673557    -0.392395015316     1.007825032230
         H            0.096287505411     1.942918673557    -0.017152015316     1.007825032230
         H            2.467493505411    -0.777805326443     1.028612984684     1.007825032230
         H            3.114439505411    -0.263406326443    -0.539429015316     1.007825032230
         H            2.199684505411    -1.779873326443    -0.406832015316     1.007825032230

  Basis Set: AUG-CC-PVTZ
    Blend: AUG-CC-PVTZ
  Basis Set: (AUG-CC-PVTZ AUX)
    Blend: AUG-CC-PVTZ-JKFIT
	 Reference Energy          =    -554.3220962442646851 [Eh]
	 Singles Energy            =      -0.0000000000000000 [Eh]
	 Same-Spin Energy          =      -0.2315735598507273 [Eh]
	 Opposite-Spin Energy      =      -0.8016700754237497 [Eh]
	 Correlation Energy        =      -1.0332436352744769 [Eh]
	 Total Energy              =    -555.3553398795392013 [Eh]

	 ================> DF-SCS-MP2 Energies <==================
	-----------------------------------------------------------
	 SCS Same-Spin Scale       =       0.3333333333333333 [-]
	 SCS Opposite-Spin Scale   =       1.2000000000000000 [-]
	 SCS Same-Spin Energy      =      -0.0771911866169091 [Eh]
	 SCS Opposite-Spin Energy  =      -0.9620040905084996 [Eh]
	 SCS Correlation Energy    =      -1.0391952771254087 [Eh]
	 SCS Total Energy          =    -555.3612915213900578 [Eh]
	-----------------------------------------------------------

  Dipole Moment: [D]
     X:     7.3158      Y:    -0.1384      Z:     0.3187     Total:     7.3241

*** Psi4 exiting successfully. Buy a developer a beer!
