                               Psi4 1.4a3.dev225

  ==> Input File <==

--------------------------------------------------------------------------
#psi4
#
memory 32 gb

molecule  {
-1 1
  S       -1.9908660    -0.0115680    -0.0914370
  C        0.8351480     0.0026240    -0.3224040
  C       -0.3590580    -0.7033670     0.3385660
  C        0.9421420     1.4332029     0.1286196
  C        2.1425740    -0.7472220    -0.0583990
  H        0.6412340     0.0009810    -1.4036700
  H       -0.1836370    -0.6741640     1.4285240
  H       -0.3012000    -1.7665080     0.0540450
  H        1.1751250     1.4924670     1.2076710
  H        1.7349380     1.9924090    -0.4025300
  H       -0.0196830     1.9410400    -0.0272870
  H        2.3515230    -0.7796840     1.0184780
  H        2.9984690    -0.2652850    -0.5495640
  H        2.0837140    -1.7817520    -0.4169670
units angstrom
no_reorient  #important for SAPT in psi4, default
symmetry c1  #important for SAPT in psi4, default
}

set PROPERTIES_ORIGIN ["COM"]
properties('MP2/aug-cc-pvtz', properties = ['dipole'])
--------------------------------------------------------------------------

    Molecular point group: c1
  Charge       = -1
  Multiplicity = 1
  Basis Set: AUG-CC-PVTZ
    Blend: AUG-CC-PVTZ
  Basis Set: (AUG-CC-PVTZ AUX)
    Blend: AUG-CC-PVTZ-JKFIT

    Orbital Energies [Eh]
    ---------------------

    Doubly Occupied:

       1A    -91.667933     2A    -11.084221     3A    -11.070030
       4A    -11.063788     5A    -11.060986     6A     -8.668034
       7A     -6.349670     8A     -6.347979     9A     -6.347932
      10A     -0.936654    11A     -0.792619    12A     -0.779136
      13A     -0.638386    14A     -0.576571    15A     -0.477461
      16A     -0.447827    17A     -0.423825    18A     -0.396722
      19A     -0.374669    20A     -0.336331    21A     -0.318246
      22A     -0.304913    23A     -0.232604    24A     -0.093968
      25A     -0.091496

  @DF-RHF Final Energy:  -554.32155674213334

   => Energetics <=

    Nuclear Repulsion Energy =            222.7250775585001747
    One-Electron Energy =               -1212.3292653087612507
    Two-Electron Energy =                 435.2826310081277370
    Total Energy =                       -554.3215567421333390
  Basis Set: (AUG-CC-PVTZ AUX)
    Blend: AUG-CC-PVTZ-RI
    Molecular point group: c1

    Geometry (in Angstrom), charge = -1, multiplicity = 1:

       Center              X                  Y                   Z               Mass
    ------------   -----------------  -----------------  -----------------  -----------------
         S           -1.874517686051    -0.007230228590    -0.080531774925    31.972071174400
         C            0.951496313949     0.006961771410    -0.311498774925    12.000000000000
         C           -0.242709686051    -0.699029228590     0.349471225075    12.000000000000
         C            1.058490313949     1.437540671410     0.139524825075    12.000000000000
         C            2.258922313949    -0.742884228590    -0.047493774925    12.000000000000
         H            0.757582313949     0.005318771410    -1.392764774925     1.007825032230
         H           -0.067288686051    -0.669826228590     1.439429225075     1.007825032230
         H           -0.184851686051    -1.762170228590     0.064950225075     1.007825032230
         H            1.291473313949     1.496804771410     1.218576225075     1.007825032230
         H            1.851286313949     1.996746771410    -0.391624774925     1.007825032230
         H            0.096665313949     1.945377771410    -0.016381774925     1.007825032230
         H            2.467871313949    -0.775346228590     1.029383225075     1.007825032230
         H            3.114817313949    -0.260947228590    -0.538658774925     1.007825032230
         H            2.200062313949    -1.777414228590    -0.406061774925     1.007825032230

  Basis Set: AUG-CC-PVTZ
    Blend: AUG-CC-PVTZ
  Basis Set: (AUG-CC-PVTZ AUX)
    Blend: AUG-CC-PVTZ-JKFIT
	 Reference Energy          =    -554.3215567421333390 [Eh]
	 Singles Energy            =      -0.0000000000000000 [Eh]
	 Same-Spin Energy          =      -0.2317212952801169 [Eh]
	 Opposite-Spin Energy      =      -0.8018067635776625 [Eh]
	 Correlation Energy        =      -1.0335280588577793 [Eh]
	 Total Energy              =    -555.3550848009911078 [Eh]

	 ================> DF-SCS-MP2 Energies <==================
	-----------------------------------------------------------
	 SCS Same-Spin Scale       =       0.3333333333333333 [-]
	 SCS Opposite-Spin Scale   =       1.2000000000000000 [-]
	 SCS Same-Spin Energy      =      -0.0772404317600390 [Eh]
	 SCS Opposite-Spin Energy  =      -0.9621681162931949 [Eh]
	 SCS Correlation Energy    =      -1.0394085480532338 [Eh]
	 SCS Total Energy          =    -555.3609652901865275 [Eh]
	-----------------------------------------------------------

  Dipole Moment: [D]
     X:     7.3028      Y:    -0.1411      Z:     0.3157     Total:     7.3110

*** Psi4 exiting successfully. Buy a developer a beer!
