                               Psi4 1.4a3.dev225

  ==> Input File <==

--------------------------------------------------------------------------
#psi4
#
memory 32 gb

molecule  {
-1 1
  S       -1.9908660    -0.0115680    -0.0914370
  C        0.8351480     0.0026240    -0.3224040
  C       -0.3590580    -0.7033670     0.3385660
  C        0.9435650     1.4522290     0.1346180
  C        2.1425740    -0.7472220    -0.0583990
  H        0.6412340     0.0009810    -1.4036700
  H       -0.1836370    -0.6741640     1.4285240
  H       -0.3012000    -1.7665080     0.0540450
  H        1.2066271     1.5127115     1.1994288
  H        1.7349380     1.9924090    -0.4025300
  H       -0.0196830     1.9410400    -0.0272870
  H        2.3515230    -0.7796840     1.0184780
  H        2.9984690    -0.2652850    -0.5495640
  H        2.0837140    -1.7817520    -0.4169670
units angstrom
no_reorient  #important for SAPT in psi4, default
symmetry c1  #important for SAPT in psi4, default
}

set PROPERTIES_ORIGIN ["COM"]
properties('MP2/aug-cc-pvtz', properties = ['dipole'])
--------------------------------------------------------------------------

    Molecular point group: c1
  Charge       = -1
  Multiplicity = 1
  Basis Set: AUG-CC-PVTZ
    Blend: AUG-CC-PVTZ
  Basis Set: (AUG-CC-PVTZ AUX)
    Blend: AUG-CC-PVTZ-JKFIT

    Orbital Energies [Eh]
    ---------------------

    Doubly Occupied:

       1A    -91.667909     2A    -11.084265     3A    -11.071329
       4A    -11.062896     5A    -11.060891     6A     -8.668009
       7A     -6.349646     8A     -6.347955     9A     -6.347909
      10A     -0.934023    11A     -0.792362    12A     -0.779604
      13A     -0.638738    14A     -0.576180    15A     -0.475801
      16A     -0.447885    17A     -0.424942    18A     -0.396765
      19A     -0.375066    20A     -0.339731    21A     -0.314413
      22A     -0.305609    23A     -0.232542    24A     -0.093958
      25A     -0.091490

  @DF-RHF Final Energy:  -554.32205766032530

   => Energetics <=

    Nuclear Repulsion Energy =            222.3866422105622860
    One-Electron Energy =               -1211.6575597537794238
    Two-Electron Energy =                 434.9488598828918384
    Total Energy =                       -554.3220576603252994
  Basis Set: (AUG-CC-PVTZ AUX)
    Blend: AUG-CC-PVTZ-RI
    Molecular point group: c1

    Geometry (in Angstrom), charge = -1, multiplicity = 1:

       Center              X                  Y                   Z               Mass
    ------------   -----------------  -----------------  -----------------  -----------------
         S           -1.875066015297    -0.010023457933    -0.081246872851    31.972071174400
         C            0.950947984703     0.004168542067    -0.312213872851    12.000000000000
         C           -0.243258015297    -0.701822457933     0.348756127149    12.000000000000
         C            1.059364984703     1.453773542067     0.144808127149    12.000000000000
         C            2.258373984703    -0.745677457933    -0.048208872851    12.000000000000
         H            0.757033984703     0.002525542067    -1.393479872851     1.007825032230
         H           -0.067837015297    -0.672619457933     1.438714127149     1.007825032230
         H           -0.185400015297    -1.764963457933     0.064235127149     1.007825032230
         H            1.322427084703     1.514256042067     1.209618927149     1.007825032230
         H            1.850737984703     1.993953542067    -0.392339872851     1.007825032230
         H            0.096116984703     1.942584542067    -0.017096872851     1.007825032230
         H            2.467322984703    -0.778139457933     1.028668127149     1.007825032230
         H            3.114268984703    -0.263740457933    -0.539373872851     1.007825032230
         H            2.199513984703    -1.780207457933    -0.406776872851     1.007825032230

  Basis Set: AUG-CC-PVTZ
    Blend: AUG-CC-PVTZ
  Basis Set: (AUG-CC-PVTZ AUX)
    Blend: AUG-CC-PVTZ-JKFIT
	 Reference Energy          =    -554.3220576603252994 [Eh]
	 Singles Energy            =      -0.0000000000000000 [Eh]
	 Same-Spin Energy          =      -0.2315333433357020 [Eh]
	 Opposite-Spin Energy      =      -0.8016168325402198 [Eh]
	 Correlation Energy        =      -1.0331501758759218 [Eh]
	 Total Energy              =    -555.3552078362012026 [Eh]

	 ================> DF-SCS-MP2 Energies <==================
	-----------------------------------------------------------
	 SCS Same-Spin Scale       =       0.3333333333333333 [-]
	 SCS Opposite-Spin Scale   =       1.2000000000000000 [-]
	 SCS Same-Spin Energy      =      -0.0771777811119007 [Eh]
	 SCS Opposite-Spin Energy  =      -0.9619401990482637 [Eh]
	 SCS Correlation Energy    =      -1.0391179801601644 [Eh]
	 SCS Total Energy          =    -555.3611756404854987 [Eh]
	-----------------------------------------------------------

  Dipole Moment: [D]
     X:     7.3215      Y:    -0.1337      Z:     0.3251     Total:     7.3299

*** Psi4 exiting successfully. Buy a developer a beer!
