                               Psi4 1.4a3.dev225

  ==> Input File <==

--------------------------------------------------------------------------
#psi4
#
memory 32 gb

molecule  {
-1 1
  S       -1.9908660    -0.0115680    -0.0914370
  C        0.8351480     0.0026240    -0.3224040
  C       -0.3590580    -0.7033670     0.3385660
  C        0.9449880     1.4712551     0.1406164
  C        2.1425740    -0.7472220    -0.0583990
  H        0.6412340     0.0009810    -1.4036700
  H       -0.1836370    -0.6741640     1.4285240
  H       -0.3012000    -1.7665080     0.0540450
  H        1.1751250     1.4924670     1.2076710
  H        1.7349380     1.9924090    -0.4025300
  H       -0.0196830     1.9410400    -0.0272870
  H        2.3515230    -0.7796840     1.0184780
  H        2.9984690    -0.2652850    -0.5495640
  H        2.0837140    -1.7817520    -0.4169670
units angstrom
no_reorient  #important for SAPT in psi4, default
symmetry c1  #important for SAPT in psi4, default
}

set PROPERTIES_ORIGIN ["COM"]
properties('MP2/aug-cc-pvtz', properties = ['dipole'])
--------------------------------------------------------------------------

    Molecular point group: c1
  Charge       = -1
  Multiplicity = 1
  Basis Set: AUG-CC-PVTZ
    Blend: AUG-CC-PVTZ
  Basis Set: (AUG-CC-PVTZ AUX)
    Blend: AUG-CC-PVTZ-JKFIT

    Orbital Energies [Eh]
    ---------------------

    Doubly Occupied:

       1A    -91.667906     2A    -11.084223     3A    -11.072091
       4A    -11.061884     5A    -11.060890     6A     -8.668004
       7A     -6.349642     8A     -6.347951     9A     -6.347905
      10A     -0.931725    11A     -0.792239    12A     -0.779629
      13A     -0.638382    14A     -0.575747    15A     -0.475106
      16A     -0.448374    17A     -0.423630    18A     -0.399525
      19A     -0.376124    20A     -0.341530    21A     -0.309827
      22A     -0.306402    23A     -0.232498    24A     -0.093917
      25A     -0.091505

  @DF-RHF Final Energy:  -554.32200636074879

   => Energetics <=

    Nuclear Repulsion Energy =            222.1380706373628584
    One-Electron Energy =               -1211.1668428466068690
    Two-Electron Energy =                 434.7067658484953085
    Total Energy =                       -554.3220063607486736
  Basis Set: (AUG-CC-PVTZ AUX)
    Blend: AUG-CC-PVTZ-RI
    Molecular point group: c1

    Geometry (in Angstrom), charge = -1, multiplicity = 1:

       Center              X                  Y                   Z               Mass
    ------------   -----------------  -----------------  -----------------  -----------------
         S           -1.874901233249    -0.012358413650    -0.082148549002    31.972071174400
         C            0.951112766751     0.001833586350    -0.313115549002    12.000000000000
         C           -0.243093233249    -0.704157413650     0.347854450998    12.000000000000
         C            1.060952766751     1.470464686350     0.149904850998    12.000000000000
         C            2.258538766751    -0.748012413650    -0.049110549002    12.000000000000
         H            0.757198766751     0.000190586350    -1.394381549002     1.007825032230
         H           -0.067672233249    -0.674954413650     1.437812450998     1.007825032230
         H           -0.185235233249    -1.767298413650     0.063333450998     1.007825032230
         H            1.291089766751     1.491676586350     1.216959450998     1.007825032230
         H            1.850902766751     1.991618586350    -0.393241549002     1.007825032230
         H            0.096281766751     1.940249586350    -0.017998549002     1.007825032230
         H            2.467487766751    -0.780474413650     1.027766450998     1.007825032230
         H            3.114433766751    -0.266075413650    -0.540275549002     1.007825032230
         H            2.199678766751    -1.782542413650    -0.407678549002     1.007825032230

  Basis Set: AUG-CC-PVTZ
    Blend: AUG-CC-PVTZ
  Basis Set: (AUG-CC-PVTZ AUX)
    Blend: AUG-CC-PVTZ-JKFIT
	 Reference Energy          =    -554.3220063607487873 [Eh]
	 Singles Energy            =      -0.0000000000000000 [Eh]
	 Same-Spin Energy          =      -0.2314379958939904 [Eh]
	 Opposite-Spin Energy      =      -0.8015548339268972 [Eh]
	 Correlation Energy        =      -1.0329928298208877 [Eh]
	 Total Energy              =    -555.3549991905696288 [Eh]

	 ================> DF-SCS-MP2 Energies <==================
	-----------------------------------------------------------
	 SCS Same-Spin Scale       =       0.3333333333333333 [-]
	 SCS Opposite-Spin Scale   =       1.2000000000000000 [-]
	 SCS Same-Spin Energy      =      -0.0771459986313301 [Eh]
	 SCS Opposite-Spin Energy  =      -0.9618658007122766 [Eh]
	 SCS Correlation Energy    =      -1.0390117993436068 [Eh]
	 SCS Total Energy          =    -555.3610181600923852 [Eh]
	-----------------------------------------------------------

  Dipole Moment: [D]
     X:     7.3194      Y:    -0.1312      Z:     0.3242     Total:     7.3277

*** Psi4 exiting successfully. Buy a developer a beer!
