                               Psi4 1.4a3.dev225

  ==> Input File <==

--------------------------------------------------------------------------
#psi4
#
memory 32 gb

molecule  {
-1 1
  S       -1.9908660    -0.0115680    -0.0914370
  C        0.8351480     0.0026240    -0.3224040
  C       -0.3590580    -0.7033670     0.3385660
  C        0.9435650     1.4522290     0.1346180
  C        2.1425740    -0.7472220    -0.0583990
  H        0.6412340     0.0009810    -1.4036700
  H       -0.1836370    -0.6741640     1.4285240
  H       -0.3012000    -1.7665080     0.0540450
  H        1.1751250     1.4924670     1.2076710
  H        1.7349380     1.9924090    -0.4025300
  H       -0.0196830     1.9410400    -0.0272870
  H        2.3610428    -0.7811630     1.0675411
  H        2.9984690    -0.2652850    -0.5495640
  H        2.0837140    -1.7817520    -0.4169670
units angstrom
no_reorient  #important for SAPT in psi4, default
symmetry c1  #important for SAPT in psi4, default
}

set PROPERTIES_ORIGIN ["COM"]
properties('MP2/aug-cc-pvtz', properties = ['dipole'])
--------------------------------------------------------------------------

    Molecular point group: c1
  Charge       = -1
  Multiplicity = 1
  Basis Set: AUG-CC-PVTZ
    Blend: AUG-CC-PVTZ
  Basis Set: (AUG-CC-PVTZ AUX)
    Blend: AUG-CC-PVTZ-JKFIT

    Orbital Energies [Eh]
    ---------------------

    Doubly Occupied:

       1A    -91.668030     2A    -11.090700     3A    -11.071857
       4A    -11.062932     5A    -11.061077     6A     -8.668132
       7A     -6.349769     8A     -6.348078     9A     -6.348031
      10A     -0.933600    11A     -0.789467    12A     -0.779507
      13A     -0.637326    14A     -0.575950    15A     -0.474964
      16A     -0.448052    17A     -0.424380    18A     -0.391745
      19A     -0.374891    20A     -0.339402    21A     -0.314296
      22A     -0.305742    23A     -0.232806    24A     -0.094089
      25A     -0.091614

  @DF-RHF Final Energy:  -554.32018317689153

   => Energetics <=

    Nuclear Repulsion Energy =            222.2325467974728497
    One-Electron Energy =               -1211.3525907119667409
    Two-Electron Energy =                 434.7998607376023301
    Total Energy =                       -554.3201831768915326
  Basis Set: (AUG-CC-PVTZ AUX)
    Blend: AUG-CC-PVTZ-RI
    Molecular point group: c1

    Geometry (in Angstrom), charge = -1, multiplicity = 1:

       Center              X                  Y                   Z               Mass
    ------------   -----------------  -----------------  -----------------  -----------------
         S           -1.874817209243    -0.009777581099    -0.081895481303    31.972071174400
         C            0.951196790757     0.004414418901    -0.312862481303    12.000000000000
         C           -0.243009209243    -0.701576581099     0.348107518697    12.000000000000
         C            1.059613790757     1.454019418901     0.144159518697    12.000000000000
         C            2.258622790757    -0.745431581099    -0.048857481303    12.000000000000
         H            0.757282790757     0.002771418901    -1.394128481303     1.007825032230
         H           -0.067588209243    -0.672373581099     1.438065518697     1.007825032230
         H           -0.185151209243    -1.764717581099     0.063586518697     1.007825032230
         H            1.291173790757     1.494257418901     1.217212518697     1.007825032230
         H            1.850986790757     1.994199418901    -0.392988481303     1.007825032230
         H            0.096365790757     1.942830418901    -0.017745481303     1.007825032230
         H            2.477091590757    -0.779372581099     1.077082618697     1.007825032230
         H            3.114517790757    -0.263494581099    -0.540022481303     1.007825032230
         H            2.199762790757    -1.779961581099    -0.407425481303     1.007825032230

  Basis Set: AUG-CC-PVTZ
    Blend: AUG-CC-PVTZ
  Basis Set: (AUG-CC-PVTZ AUX)
    Blend: AUG-CC-PVTZ-JKFIT
	 Reference Energy          =    -554.3201831768915326 [Eh]
	 Singles Energy            =      -0.0000000000000000 [Eh]
	 Same-Spin Energy          =      -0.2315534094139555 [Eh]
	 Opposite-Spin Energy      =      -0.8019606842432188 [Eh]
	 Correlation Energy        =      -1.0335140936571743 [Eh]
	 Total Energy              =    -555.3536972705486505 [Eh]

	 ================> DF-SCS-MP2 Energies <==================
	-----------------------------------------------------------
	 SCS Same-Spin Scale       =       0.3333333333333333 [-]
	 SCS Opposite-Spin Scale   =       1.2000000000000000 [-]
	 SCS Same-Spin Energy      =      -0.0771844698046518 [Eh]
	 SCS Opposite-Spin Energy  =      -0.9623528210918625 [Eh]
	 SCS Correlation Energy    =      -1.0395372908965144 [Eh]
	 SCS Total Energy          =    -555.3597204677880654 [Eh]
	-----------------------------------------------------------

  Dipole Moment: [D]
     X:     7.2881      Y:    -0.1271      Z:     0.2824     Total:     7.2947

*** Psi4 exiting successfully. Buy a developer a beer!
