                               Psi4 1.4a3.dev225

  ==> Input File <==

--------------------------------------------------------------------------
#psi4
#
memory 32 gb

molecule  {
-1 1
  S       -1.9908660    -0.0115680    -0.0914370
  C        0.8351480     0.0026240    -0.3224040
  C       -0.3590580    -0.7033670     0.3385660
  C        0.9435650     1.4522290     0.1346180
  C        2.1425740    -0.7472220    -0.0583990
  H        0.6412340     0.0009810    -1.4036700
  H       -0.1836370    -0.6741640     1.4285240
  H       -0.3012000    -1.7665080     0.0540450
  H        1.1751250     1.4924670     1.2076710
  H        1.7349380     1.9924090    -0.4025300
  H       -0.0196830     1.9410400    -0.0272870
  H        2.3896023    -0.7855999     1.2147303
  H        2.9984690    -0.2652850    -0.5495640
  H        2.0837140    -1.7817520    -0.4169670
units angstrom
no_reorient  #important for SAPT in psi4, default
symmetry c1  #important for SAPT in psi4, default
}

set PROPERTIES_ORIGIN ["COM"]
properties('MP2/aug-cc-pvtz', properties = ['dipole'])
--------------------------------------------------------------------------

    Molecular point group: c1
  Charge       = -1
  Multiplicity = 1
  Basis Set: AUG-CC-PVTZ
    Blend: AUG-CC-PVTZ
  Basis Set: (AUG-CC-PVTZ AUX)
    Blend: AUG-CC-PVTZ-JKFIT

    Orbital Energies [Eh]
    ---------------------

    Doubly Occupied:

       1A    -91.668519     2A    -11.109207     3A    -11.074711
       4A    -11.063561     5A    -11.061710     6A     -8.668627
       7A     -6.350265     8A     -6.348573     9A     -6.348526
      10A     -0.933465    11A     -0.784222    12A     -0.780058
      13A     -0.635555    14A     -0.575799    15A     -0.473268
      16A     -0.448901    17A     -0.427038    18A     -0.381317
      19A     -0.365053    20A     -0.340799    21A     -0.315535
      22A     -0.303932    23A     -0.233774    24A     -0.094701
      25A     -0.092102

  @DF-RHF Final Energy:  -554.30306070473409

   => Energetics <=

    Nuclear Repulsion Energy =            221.7021002507133574
    One-Electron Energy =               -1210.2518858996993458
    Two-Electron Energy =                 434.2467249442519233
    Total Energy =                       -554.3030607047340936
  Basis Set: (AUG-CC-PVTZ AUX)
    Blend: AUG-CC-PVTZ-RI
    Molecular point group: c1

    Geometry (in Angstrom), charge = -1, multiplicity = 1:

       Center              X                  Y                   Z               Mass
    ------------   -----------------  -----------------  -----------------  -----------------
         S           -1.875140459153    -0.009727362170    -0.083561438190    31.972071174400
         C            0.950873540847     0.004464637830    -0.314528438190    12.000000000000
         C           -0.243332459153    -0.701526362170     0.346441561810    12.000000000000
         C            1.059290540847     1.454069637830     0.142493561810    12.000000000000
         C            2.258299540847    -0.745381362170    -0.050523438190    12.000000000000
         H            0.756959540847     0.002821637830    -1.395794438190     1.007825032230
         H           -0.067911459153    -0.672323362170     1.436399561810     1.007825032230
         H           -0.185474459153    -1.764667362170     0.061920561810     1.007825032230
         H            1.290850540847     1.494307637830     1.215546561810     1.007825032230
         H            1.850663540847     1.994249637830    -0.394654438190     1.007825032230
         H            0.096042540847     1.942880637830    -0.019411438190     1.007825032230
         H            2.505327840847    -0.783759262170     1.222605861810     1.007825032230
         H            3.114194540847    -0.263444362170    -0.541688438190     1.007825032230
         H            2.199439540847    -1.779911362170    -0.409091438190     1.007825032230

  Basis Set: AUG-CC-PVTZ
    Blend: AUG-CC-PVTZ
  Basis Set: (AUG-CC-PVTZ AUX)
    Blend: AUG-CC-PVTZ-JKFIT
	 Reference Energy          =    -554.3030607047340936 [Eh]
	 Singles Energy            =      -0.0000000000000000 [Eh]
	 Same-Spin Energy          =      -0.2314954197077294 [Eh]
	 Opposite-Spin Energy      =      -0.8030718535468282 [Eh]
	 Correlation Energy        =      -1.0345672732545577 [Eh]
	 Total Energy              =    -555.3376279779886318 [Eh]

	 ================> DF-SCS-MP2 Energies <==================
	-----------------------------------------------------------
	 SCS Same-Spin Scale       =       0.3333333333333333 [-]
	 SCS Opposite-Spin Scale   =       1.2000000000000000 [-]
	 SCS Same-Spin Energy      =      -0.0771651399025765 [Eh]
	 SCS Opposite-Spin Energy  =      -0.9636862242561938 [Eh]
	 SCS Correlation Energy    =      -1.0408513641587702 [Eh]
	 SCS Total Energy          =    -555.3439120688929052 [Eh]
	-----------------------------------------------------------

  Dipole Moment: [D]
     X:     7.2032      Y:    -0.0991      Z:     0.1435     Total:     7.2054

*** Psi4 exiting successfully. Buy a developer a beer!
