                               Psi4 1.4a3.dev225

  ==> Input File <==

--------------------------------------------------------------------------
#psi4
#
memory 32 gb

molecule  {
-1 1
  S       -1.9908660    -0.0115680    -0.0914370
  C        0.8351480     0.0026240    -0.3224040
  C       -0.3590580    -0.7033670     0.3385660
  C        0.9435650     1.4522290     0.1346180
  C        2.1425740    -0.7472220    -0.0583990
  H        0.6412340     0.0009810    -1.4036700
  H       -0.1677527    -0.6715197     1.5272190
  H       -0.3012000    -1.7665080     0.0540450
  H        1.1751250     1.4924670     1.2076710
  H        1.7349380     1.9924090    -0.4025300
  H       -0.0196830     1.9410400    -0.0272870
  H        2.3515230    -0.7796840     1.0184780
  H        2.9984690    -0.2652850    -0.5495640
  H        2.0837140    -1.7817520    -0.4169670
units angstrom
no_reorient  #important for SAPT in psi4, default
symmetry c1  #important for SAPT in psi4, default
}

set PROPERTIES_ORIGIN ["COM"]
properties('MP2/aug-cc-pvtz', properties = ['dipole'])
--------------------------------------------------------------------------

    Molecular point group: c1
  Charge       = -1
  Multiplicity = 1
  Basis Set: AUG-CC-PVTZ
    Blend: AUG-CC-PVTZ
  Basis Set: (AUG-CC-PVTZ AUX)
    Blend: AUG-CC-PVTZ-JKFIT

    Orbital Energies [Eh]
    ---------------------

    Doubly Occupied:

       1A    -91.669483     2A    -11.084051     3A    -11.073835
       4A    -11.072418     5A    -11.062835     6A     -8.669569
       7A     -6.351199     8A     -6.349500     9A     -6.349452
      10A     -0.933529    11A     -0.791441    12A     -0.776132
      13A     -0.639294    14A     -0.569959    15A     -0.476376
      16A     -0.447320    17A     -0.421976    18A     -0.397418
      19A     -0.366141    20A     -0.339470    21A     -0.314505
      22A     -0.302202    23A     -0.233682    24A     -0.095166
      25A     -0.092225

  @DF-RHF Final Energy:  -554.31598532316627

   => Energetics <=

    Nuclear Repulsion Energy =            221.9816060829513731
    One-Electron Energy =               -1210.8368263465270047
    Two-Electron Energy =                 434.5392349404093011
    Total Energy =                       -554.3159853231662737
  Basis Set: (AUG-CC-PVTZ AUX)
    Blend: AUG-CC-PVTZ-RI
    Molecular point group: c1

    Geometry (in Angstrom), charge = -1, multiplicity = 1:

       Center              X                  Y                   Z               Mass
    ------------   -----------------  -----------------  -----------------  -----------------
         S           -1.874889245660    -0.009824250556    -0.082457238590    31.972071174400
         C            0.951124754340     0.004367749444    -0.313424238590    12.000000000000
         C           -0.243081245660    -0.701623250556     0.347545761410    12.000000000000
         C            1.059541754340     1.453972749444     0.143597761410    12.000000000000
         C            2.258550754340    -0.745478250556    -0.049419238590    12.000000000000
         H            0.757210754340     0.002724749444    -1.394690238590     1.007825032230
         H           -0.051775945660    -0.669775950556     1.536198761410     1.007825032230
         H           -0.185223245660    -1.764764250556     0.063024761410     1.007825032230
         H            1.291101754340     1.494210749444     1.216650761410     1.007825032230
         H            1.850914754340     1.994152749444    -0.393550238590     1.007825032230
         H            0.096293754340     1.942783749444    -0.018307238590     1.007825032230
         H            2.467499754340    -0.777940250556     1.027457761410     1.007825032230
         H            3.114445754340    -0.263541250556    -0.540584238590     1.007825032230
         H            2.199690754340    -1.780008250556    -0.407987238590     1.007825032230

  Basis Set: AUG-CC-PVTZ
    Blend: AUG-CC-PVTZ
  Basis Set: (AUG-CC-PVTZ AUX)
    Blend: AUG-CC-PVTZ-JKFIT
	 Reference Energy          =    -554.3159853231662737 [Eh]
	 Singles Energy            =      -0.0000000000000000 [Eh]
	 Same-Spin Energy          =      -0.2316832323705783 [Eh]
	 Opposite-Spin Energy      =      -0.8024243484927041 [Eh]
	 Correlation Energy        =      -1.0341075808632822 [Eh]
	 Total Energy              =    -555.3500929040295659 [Eh]

	 ================> DF-SCS-MP2 Energies <==================
	-----------------------------------------------------------
	 SCS Same-Spin Scale       =       0.3333333333333333 [-]
	 SCS Opposite-Spin Scale   =       1.2000000000000000 [-]
	 SCS Same-Spin Energy      =      -0.0772277441235261 [Eh]
	 SCS Opposite-Spin Energy  =      -0.9629092181912449 [Eh]
	 SCS Correlation Energy    =      -1.0401369623147709 [Eh]
	 SCS Total Energy          =    -555.3561222854810921 [Eh]
	-----------------------------------------------------------

  Dipole Moment: [D]
     X:     7.2154      Y:    -0.0914      Z:     0.1982     Total:     7.2187

*** Psi4 exiting successfully. Buy a developer a beer!
