                               Psi4 1.4a3.dev225

  ==> Input File <==

--------------------------------------------------------------------------
#psi4
#
memory 32 gb

molecule  {
-1 1
  S       -1.9908660    -0.0115680    -0.0914370
  C        0.8351480     0.0026240    -0.3224040
  C       -0.4037942    -0.6844012     0.3267774
  C        0.9435650     1.4522290     0.1346180
  C        2.1425740    -0.7472220    -0.0583990
  H        0.6412340     0.0009810    -1.4036700
  H       -0.1836370    -0.6741640     1.4285240
  H       -0.3012000    -1.7665080     0.0540450
  H        1.1751250     1.4924670     1.2076710
  H        1.7349380     1.9924090    -0.4025300
  H       -0.0196830     1.9410400    -0.0272870
  H        2.3515230    -0.7796840     1.0184780
  H        2.9984690    -0.2652850    -0.5495640
  H        2.0837140    -1.7817520    -0.4169670
units angstrom
no_reorient  #important for SAPT in psi4, default
symmetry c1  #important for SAPT in psi4, default
}

set PROPERTIES_ORIGIN ["COM"]
properties('MP2/aug-cc-pvtz', properties = ['dipole'])
--------------------------------------------------------------------------

    Molecular point group: c1
  Charge       = -1
  Multiplicity = 1
  Basis Set: AUG-CC-PVTZ
    Blend: AUG-CC-PVTZ
  Basis Set: (AUG-CC-PVTZ AUX)
    Blend: AUG-CC-PVTZ-JKFIT

    Orbital Energies [Eh]
    ---------------------

    Doubly Occupied:

       1A    -91.667109     2A    -11.084387     3A    -11.070966
       4A    -11.064228     5A    -11.062000     6A     -8.668163
       7A     -6.349952     8A     -6.348128     9A     -6.348075
      10A     -0.931283    11A     -0.794581    12A     -0.780371
      13A     -0.641083    14A     -0.573555    15A     -0.473541
      16A     -0.446410    17A     -0.422536    18A     -0.397237
      19A     -0.370552    20A     -0.338366    21A     -0.309984
      22A     -0.299718    23A     -0.245196    24A     -0.094250
      25A     -0.091569

  @DF-RHF Final Energy:  -554.31912185808540

   => Energetics <=

    Nuclear Repulsion Energy =            222.7500072637968742
    One-Electron Energy =               -1212.3917815576890007
    Two-Electron Energy =                 435.3226524358067877
    Total Energy =                       -554.3191218580852819
  Basis Set: (AUG-CC-PVTZ AUX)
    Blend: AUG-CC-PVTZ-RI
    Molecular point group: c1

    Geometry (in Angstrom), charge = -1, multiplicity = 1:

       Center              X                  Y                   Z               Mass
    ------------   -----------------  -----------------  -----------------  -----------------
         S           -1.868680491221    -0.012350287193    -0.079751446399    31.972071174400
         C            0.957333508779     0.001841712807    -0.310718446399    12.000000000000
         C           -0.281608691221    -0.685183487193     0.338462953601    12.000000000000
         C            1.065750508779     1.451446712807     0.146303553601    12.000000000000
         C            2.264759508779    -0.748004287193    -0.046713446399    12.000000000000
         H            0.763419508779     0.000198712807    -1.391984446399     1.007825032230
         H           -0.061451491221    -0.674946287193     1.440209553601     1.007825032230
         H           -0.179014491221    -1.767290287193     0.065730553601     1.007825032230
         H            1.297310508779     1.491684712807     1.219356553601     1.007825032230
         H            1.857123508779     1.991626712807    -0.390844446399     1.007825032230
         H            0.102502508779     1.940257712807    -0.015601446399     1.007825032230
         H            2.473708508779    -0.780466287193     1.030163553601     1.007825032230
         H            3.120654508779    -0.266067287193    -0.537878446399     1.007825032230
         H            2.205899508779    -1.782534287193    -0.405281446399     1.007825032230

  Basis Set: AUG-CC-PVTZ
    Blend: AUG-CC-PVTZ
  Basis Set: (AUG-CC-PVTZ AUX)
    Blend: AUG-CC-PVTZ-JKFIT
	 Reference Energy          =    -554.3191218580853956 [Eh]
	 Singles Energy            =      -0.0000000000000000 [Eh]
	 Same-Spin Energy          =      -0.2320382043235305 [Eh]
	 Opposite-Spin Energy      =      -0.8020605486230267 [Eh]
	 Correlation Energy        =      -1.0340987529465571 [Eh]
	 Total Energy              =    -555.3532206110319294 [Eh]

	 ================> DF-SCS-MP2 Energies <==================
	-----------------------------------------------------------
	 SCS Same-Spin Scale       =       0.3333333333333333 [-]
	 SCS Opposite-Spin Scale   =       1.2000000000000000 [-]
	 SCS Same-Spin Energy      =      -0.0773460681078435 [Eh]
	 SCS Opposite-Spin Energy  =      -0.9624726583476320 [Eh]
	 SCS Correlation Energy    =      -1.0398187264554755 [Eh]
	 SCS Total Energy          =    -555.3589405845408464 [Eh]
	-----------------------------------------------------------

  Dipole Moment: [D]
     X:     7.1424      Y:    -0.1003      Z:     0.2906     Total:     7.1490

*** Psi4 exiting successfully. Buy a developer a beer!
