                               Psi4 1.4a3.dev225

  ==> Input File <==

--------------------------------------------------------------------------
#psi4
#
memory 32 gb

molecule  {
-1 1
  S       -1.9908660    -0.0115680    -0.0914370
  C        0.8351480     0.0026240    -0.3224040
  C       -0.3590580    -0.7033670     0.3385660
  C        0.9435650     1.4522290     0.1346180
  C        2.1425740    -0.7472220    -0.0583990
  H        0.6412340     0.0009810    -1.4036700
  H       -0.1836370    -0.6741640     1.4285240
  H       -0.3012000    -1.7665080     0.0540450
  H        1.1751250     1.4924670     1.2076710
  H        1.7349380     1.9924090    -0.4025300
  H       -0.0196830     1.9410400    -0.0272870
  H        2.3515230    -0.7796840     1.0184780
  H        2.9984690    -0.2652850    -0.5495640
  H        2.0837140    -1.7817520    -0.4169670
units angstrom
no_reorient  #important for SAPT in psi4, default
symmetry c1  #important for SAPT in psi4, default
}

set PROPERTIES_ORIGIN ["COM"]
properties('MP2/aug-cc-pvtz', properties = ['dipole'])
--------------------------------------------------------------------------

    Molecular point group: c1
  Charge       = -1
  Multiplicity = 1
  Basis Set: AUG-CC-PVTZ
    Blend: AUG-CC-PVTZ
  Basis Set: (AUG-CC-PVTZ AUX)
    Blend: AUG-CC-PVTZ-JKFIT

    Orbital Energies [Eh]
    ---------------------

    Doubly Occupied:

       1A    -91.667914     2A    -11.084209     3A    -11.071066
       4A    -11.062783     5A    -11.060923     6A     -8.668013
       7A     -6.349650     8A     -6.347959     9A     -6.347912
      10A     -0.934096    11A     -0.792409    12A     -0.779362
      13A     -0.638393    14A     -0.576143    15A     -0.476216
      16A     -0.448051    17A     -0.423677    18A     -0.398031
      19A     -0.375422    20A     -0.338941    21A     -0.313968
      22A     -0.305984    23A     -0.232547    24A     -0.093935
      25A     -0.091495

  @DF-RHF Final Energy:  -554.32215129468000

   => Energetics <=

    Nuclear Repulsion Energy =            222.4297773364858699
    One-Electron Energy =               -1211.7456622735874134
    Two-Electron Energy =                 434.9937336424216596
    Total Energy =                       -554.3221512946799976
  Basis Set: (AUG-CC-PVTZ AUX)
    Blend: AUG-CC-PVTZ-RI
    Molecular point group: c1

    Geometry (in Angstrom), charge = -1, multiplicity = 1:

       Center              X                  Y                   Z               Mass
    ------------   -----------------  -----------------  -----------------  -----------------
         S           -1.874709459650    -0.009794321120    -0.081340161963    31.972071174400
         C            0.951304540350     0.004397678880    -0.312307161963    12.000000000000
         C           -0.242901459650    -0.701593321120     0.348662838037    12.000000000000
         C            1.059721540350     1.454002678880     0.144714838037    12.000000000000
         C            2.258730540350    -0.745448321120    -0.048302161963    12.000000000000
         H            0.757390540350     0.002754678880    -1.393573161963     1.007825032230
         H           -0.067480459650    -0.672390321120     1.438620838037     1.007825032230
         H           -0.185043459650    -1.764734321120     0.064141838037     1.007825032230
         H            1.291281540350     1.494240678880     1.217767838037     1.007825032230
         H            1.851094540350     1.994182678880    -0.392433161963     1.007825032230
         H            0.096473540350     1.942813678880    -0.017190161963     1.007825032230
         H            2.467679540350    -0.777910321120     1.028574838037     1.007825032230
         H            3.114625540350    -0.263511321120    -0.539467161963     1.007825032230
         H            2.199870540350    -1.779978321120    -0.406870161963     1.007825032230

  Basis Set: AUG-CC-PVTZ
    Blend: AUG-CC-PVTZ
  Basis Set: (AUG-CC-PVTZ AUX)
    Blend: AUG-CC-PVTZ-JKFIT
	 Reference Energy          =    -554.3221512946799976 [Eh]
	 Singles Energy            =      -0.0000000000000000 [Eh]
	 Same-Spin Energy          =      -0.2315633533367699 [Eh]
	 Opposite-Spin Energy      =      -0.8016534455129849 [Eh]
	 Correlation Energy        =      -1.0332167988497547 [Eh]
	 Total Energy              =    -555.3553680935297052 [Eh]

	 ================> DF-SCS-MP2 Energies <==================
	-----------------------------------------------------------
	 SCS Same-Spin Scale       =       0.3333333333333333 [-]
	 SCS Opposite-Spin Scale   =       1.2000000000000000 [-]
	 SCS Same-Spin Energy      =      -0.0771877844455899 [Eh]
	 SCS Opposite-Spin Energy  =      -0.9619841346155819 [Eh]
	 SCS Correlation Energy    =      -1.0391719190611719 [Eh]
	 SCS Total Energy          =    -555.3613232137411160 [Eh]
	-----------------------------------------------------------

  Dipole Moment: [D]
     X:     7.3117      Y:    -0.1349      Z:     0.3203     Total:     7.3199

*** Psi4 exiting successfully. Buy a developer a beer!
