                               Psi4 1.4a3.dev225

  ==> Input File <==

--------------------------------------------------------------------------
#psi4
#
memory 32 gb

molecule  {
-1 1
  S       -1.9908660    -0.0115680    -0.0914370
  C        0.8351480     0.0026240    -0.3224040
  C       -0.3590580    -0.7033670     0.3385660
  C        0.9435650     1.4522290     0.1346180
  C        2.1425740    -0.7472220    -0.0583990
  H        0.6412340     0.0009810    -1.4036700
  H       -0.1836370    -0.6741640     1.4285240
  H       -0.3012000    -1.7665080     0.0540450
  H        1.2725112     1.4367238     1.1825855
  H        1.7349380     1.9924090    -0.4025300
  H       -0.0196830     1.9410400    -0.0272870
  H        2.3515230    -0.7796840     1.0184780
  H        2.9984690    -0.2652850    -0.5495640
  H        2.0837140    -1.7817520    -0.4169670
units angstrom
no_reorient  #important for SAPT in psi4, default
symmetry c1  #important for SAPT in psi4, default
}

set PROPERTIES_ORIGIN ["COM"]
properties('MP2/aug-cc-pvtz', properties = ['dipole'])
--------------------------------------------------------------------------

    Molecular point group: c1
  Charge       = -1
  Multiplicity = 1
  Basis Set: AUG-CC-PVTZ
    Blend: AUG-CC-PVTZ
  Basis Set: (AUG-CC-PVTZ AUX)
    Blend: AUG-CC-PVTZ-JKFIT

    Orbital Energies [Eh]
    ---------------------

    Doubly Occupied:

       1A    -91.668004     2A    -11.084464     3A    -11.070518
       4A    -11.063270     5A    -11.060895     6A     -8.668103
       7A     -6.349740     8A     -6.348050     9A     -6.348003
      10A     -0.934703    11A     -0.792262    12A     -0.779801
      13A     -0.637922    14A     -0.575759    15A     -0.477967
      16A     -0.448287    17A     -0.426225    18A     -0.396197
      19A     -0.373556    20A     -0.342299    21A     -0.313529
      22A     -0.303648    23A     -0.232621    24A     -0.094127
      25A     -0.091570

  @DF-RHF Final Energy:  -554.32079107888603

   => Energetics <=

    Nuclear Repulsion Energy =            222.4761673049321473
    One-Electron Energy =               -1211.8308780348645541
    Two-Electron Energy =                 435.0339196510464035
    Total Energy =                       -554.3207910788860318
  Basis Set: (AUG-CC-PVTZ AUX)
    Blend: AUG-CC-PVTZ-RI
    Molecular point group: c1

    Geometry (in Angstrom), charge = -1, multiplicity = 1:

       Center              X                  Y                   Z               Mass
    ------------   -----------------  -----------------  -----------------  -----------------
         S           -1.875811722660    -0.009163393253    -0.081056232426    31.972071174400
         C            0.950202277340     0.005028606747    -0.312023232426    12.000000000000
         C           -0.244003722660    -0.700962393253     0.348946767574    12.000000000000
         C            1.058619277340     1.454633606747     0.144998767574    12.000000000000
         C            2.257628277340    -0.744817393253    -0.048018232426    12.000000000000
         H            0.756288277340     0.003385606747    -1.393289232426     1.007825032230
         H           -0.068582722660    -0.671759393253     1.438904767574     1.007825032230
         H           -0.186145722660    -1.764103393253     0.064425767574     1.007825032230
         H            1.387565477340     1.439128406747     1.192966267574     1.007825032230
         H            1.849992277340     1.994813606747    -0.392149232426     1.007825032230
         H            0.095371277340     1.943444606747    -0.016906232426     1.007825032230
         H            2.466577277340    -0.777279393253     1.028858767574     1.007825032230
         H            3.113523277340    -0.262880393253    -0.539183232426     1.007825032230
         H            2.198768277340    -1.779347393253    -0.406586232426     1.007825032230

  Basis Set: AUG-CC-PVTZ
    Blend: AUG-CC-PVTZ
  Basis Set: (AUG-CC-PVTZ AUX)
    Blend: AUG-CC-PVTZ-JKFIT
	 Reference Energy          =    -554.3207910788860318 [Eh]
	 Singles Energy            =      -0.0000000000000000 [Eh]
	 Same-Spin Energy          =      -0.2316808867526070 [Eh]
	 Opposite-Spin Energy      =      -0.8018283491328546 [Eh]
	 Correlation Energy        =      -1.0335092358854616 [Eh]
	 Total Energy              =    -555.3543003147715353 [Eh]

	 ================> DF-SCS-MP2 Energies <==================
	-----------------------------------------------------------
	 SCS Same-Spin Scale       =       0.3333333333333333 [-]
	 SCS Opposite-Spin Scale   =       1.2000000000000000 [-]
	 SCS Same-Spin Energy      =      -0.0772269622508690 [Eh]
	 SCS Opposite-Spin Energy  =      -0.9621940189594255 [Eh]
	 SCS Correlation Energy    =      -1.0394209812102946 [Eh]
	 SCS Total Energy          =    -555.3602120600962735 [Eh]
	-----------------------------------------------------------

  Dipole Moment: [D]
     X:     7.3331      Y:    -0.1570      Z:     0.3079     Total:     7.3412

*** Psi4 exiting successfully. Buy a developer a beer!
