                               Psi4 1.4a3.dev225

  ==> Input File <==

--------------------------------------------------------------------------
#psi4
#
memory 32 gb

molecule  {
-1 1
  S       -1.9908660    -0.0115680    -0.0914370
  C        0.8351480     0.0026240    -0.3224040
  C       -0.3590580    -0.7033670     0.3385660
  C        0.9435650     1.4522290     0.1346180
  C        2.1425740    -0.7472220    -0.0583990
  H        0.6412340     0.0009810    -1.4036700
  H       -0.1995213    -0.6768083     1.3298290
  H       -0.3012000    -1.7665080     0.0540450
  H        1.1751250     1.4924670     1.2076710
  H        1.7349380     1.9924090    -0.4025300
  H       -0.0196830     1.9410400    -0.0272870
  H        2.3515230    -0.7796840     1.0184780
  H        2.9984690    -0.2652850    -0.5495640
  H        2.0837140    -1.7817520    -0.4169670
units angstrom
no_reorient  #important for SAPT in psi4, default
symmetry c1  #important for SAPT in psi4, default
}

set PROPERTIES_ORIGIN ["COM"]
properties('MP2/aug-cc-pvtz', properties = ['dipole'])
--------------------------------------------------------------------------

    Molecular point group: c1
  Charge       = -1
  Multiplicity = 1
  Basis Set: AUG-CC-PVTZ
    Blend: AUG-CC-PVTZ
  Basis Set: (AUG-CC-PVTZ AUX)
    Blend: AUG-CC-PVTZ-JKFIT

    Orbital Energies [Eh]
    ---------------------

    Doubly Occupied:

       1A    -91.666832     2A    -11.084406     3A    -11.069963
       4A    -11.062805     5A    -11.047579     6A     -8.666928
       7A     -6.348567     8A     -6.346888     9A     -6.346841
      10A     -0.935387    11A     -0.795157    12A     -0.783402
      13A     -0.637844    14A     -0.584586    15A     -0.476189
      16A     -0.449723    17A     -0.426243    18A     -0.398890
      19A     -0.383859    20A     -0.338581    21A     -0.314291
      22A     -0.307802    23A     -0.231703    24A     -0.093130
      25A     -0.091047

  @DF-RHF Final Energy:  -554.31695955978057

   => Energetics <=

    Nuclear Repulsion Energy =            222.9291665354191139
    One-Electron Energy =               -1212.7149645279771448
    Two-Electron Energy =                 435.4688384327774884
    Total Energy =                       -554.3169595597805710
  Basis Set: (AUG-CC-PVTZ AUX)
    Blend: AUG-CC-PVTZ-RI
    Molecular point group: c1

    Geometry (in Angstrom), charge = -1, multiplicity = 1:

       Center              X                  Y                   Z               Mass
    ------------   -----------------  -----------------  -----------------  -----------------
         S           -1.874529673640    -0.009764391684    -0.080223085337    31.972071174400
         C            0.951484326360     0.004427608316    -0.311190085337    12.000000000000
         C           -0.242721673640    -0.701563391684     0.349779914663    12.000000000000
         C            1.059901326360     1.454032608316     0.145831914663    12.000000000000
         C            2.258910326360    -0.745418391684    -0.047185085337    12.000000000000
         H            0.757570326360     0.002784608316    -1.392456085337     1.007825032230
         H           -0.083184973640    -0.675004691684     1.341042914663     1.007825032230
         H           -0.184863673640    -1.764704391684     0.065258914663     1.007825032230
         H            1.291461326360     1.494270608316     1.218884914663     1.007825032230
         H            1.851274326360     1.994212608316    -0.391316085337     1.007825032230
         H            0.096653326360     1.942843608316    -0.016073085337     1.007825032230
         H            2.467859326360    -0.777880391684     1.029691914663     1.007825032230
         H            3.114805326360    -0.263481391684    -0.538350085337     1.007825032230
         H            2.200050326360    -1.779948391684    -0.405753085337     1.007825032230

  Basis Set: AUG-CC-PVTZ
    Blend: AUG-CC-PVTZ
  Basis Set: (AUG-CC-PVTZ AUX)
    Blend: AUG-CC-PVTZ-JKFIT
	 Reference Energy          =    -554.3169595597805710 [Eh]
	 Singles Energy            =      -0.0000000000000000 [Eh]
	 Same-Spin Energy          =      -0.2314590655342916 [Eh]
	 Opposite-Spin Energy      =      -0.8011173817762722 [Eh]
	 Correlation Energy        =      -1.0325764473105639 [Eh]
	 Total Energy              =    -555.3495360070911602 [Eh]

	 ================> DF-SCS-MP2 Energies <==================
	-----------------------------------------------------------
	 SCS Same-Spin Scale       =       0.3333333333333333 [-]
	 SCS Opposite-Spin Scale   =       1.2000000000000000 [-]
	 SCS Same-Spin Energy      =      -0.0771530218447639 [Eh]
	 SCS Opposite-Spin Energy  =      -0.9613408581315266 [Eh]
	 SCS Correlation Energy    =      -1.0384938799762904 [Eh]
	 SCS Total Energy          =    -555.3554534397568432 [Eh]
	-----------------------------------------------------------

  Dipole Moment: [D]
     X:     7.3865      Y:    -0.1680      Z:     0.3989     Total:     7.3992

*** Psi4 exiting successfully. Buy a developer a beer!
