                               Psi4 1.4a3.dev225

  ==> Input File <==

--------------------------------------------------------------------------
#psi4
#
memory 32 gb

molecule  {
-1 1
  S       -1.9908660    -0.0115680    -0.0914370
  C        0.8351480     0.0026240    -0.3224040
  C       -0.3590580    -0.7033670     0.3385660
  C        0.9435650     1.4522290     0.1346180
  C        2.1425740    -0.7472220    -0.0583990
  H        0.6412340     0.0009810    -1.4036700
  H       -0.1836370    -0.6741640     1.4285240
  H       -0.3012000    -1.7665080     0.0540450
  H        1.1751250     1.4924670     1.2076710
  H        1.7349380     1.9924090    -0.4025300
  H       -0.0196830     1.9410400    -0.0272870
  H        2.3477151    -0.7790924     0.9988528
  H        2.9984690    -0.2652850    -0.5495640
  H        2.0837140    -1.7817520    -0.4169670
units angstrom
no_reorient  #important for SAPT in psi4, default
symmetry c1  #important for SAPT in psi4, default
}

set PROPERTIES_ORIGIN ["COM"]
properties('MP2/aug-cc-pvtz', properties = ['dipole'])
--------------------------------------------------------------------------

    Molecular point group: c1
  Charge       = -1
  Multiplicity = 1
  Basis Set: AUG-CC-PVTZ
    Blend: AUG-CC-PVTZ
  Basis Set: (AUG-CC-PVTZ AUX)
    Blend: AUG-CC-PVTZ-JKFIT

    Orbital Energies [Eh]
    ---------------------

    Doubly Occupied:

       1A    -91.667873     2A    -11.081577     3A    -11.070772
       4A    -11.062731     5A    -11.060868     6A     -8.667971
       7A     -6.349608     8A     -6.347917     9A     -6.347870
      10A     -0.934371    11A     -0.793778    12A     -0.779309
      13A     -0.638889    14A     -0.576239    15A     -0.476835
      16A     -0.448095    17A     -0.423422    18A     -0.400573
      19A     -0.375519    20A     -0.338768    21A     -0.313848
      22A     -0.306054    23A     -0.232452    24A     -0.093880
      25A     -0.091453

  @DF-RHF Final Energy:  -554.32215046382532

   => Energetics <=

    Nuclear Repulsion Energy =            222.5120671488419362
    One-Electron Energy =               -1211.9070927907616806
    Two-Electron Energy =                 435.0728751780944776
    Total Energy =                       -554.3221504638253236
  Basis Set: (AUG-CC-PVTZ AUX)
    Blend: AUG-CC-PVTZ-RI
    Molecular point group: c1

    Geometry (in Angstrom), charge = -1, multiplicity = 1:

       Center              X                  Y                   Z               Mass
    ------------   -----------------  -----------------  -----------------  -----------------
         S           -1.874666360039    -0.009801017128    -0.081118034680    31.972071174400
         C            0.951347639961     0.004390982872    -0.312085034680    12.000000000000
         C           -0.242858360039    -0.701600017128     0.348884965320    12.000000000000
         C            1.059764639961     1.453995982872     0.144936965320    12.000000000000
         C            2.258773639961    -0.745455017128    -0.048080034680    12.000000000000
         H            0.757433639961     0.002747982872    -1.393351034680     1.007825032230
         H           -0.067437360039    -0.672397017128     1.438842965320     1.007825032230
         H           -0.185000360039    -1.764741017128     0.064363965320     1.007825032230
         H            1.291324639961     1.494233982872     1.217989965320     1.007825032230
         H            1.851137639961     1.994175982872    -0.392211034680     1.007825032230
         H            0.096516639961     1.942806982872    -0.016968034680     1.007825032230
         H            2.463914739961    -0.777325417128     1.009171765320     1.007825032230
         H            3.114668639961    -0.263518017128    -0.539245034680     1.007825032230
         H            2.199913639961    -1.779985017128    -0.406648034680     1.007825032230

  Basis Set: AUG-CC-PVTZ
    Blend: AUG-CC-PVTZ
  Basis Set: (AUG-CC-PVTZ AUX)
    Blend: AUG-CC-PVTZ-JKFIT
	 Reference Energy          =    -554.3221504638253236 [Eh]
	 Singles Energy            =      -0.0000000000000000 [Eh]
	 Same-Spin Energy          =      -0.2315674573258660 [Eh]
	 Opposite-Spin Energy      =      -0.8015443244676457 [Eh]
	 Correlation Energy        =      -1.0331117817935116 [Eh]
	 Total Energy              =    -555.3552622456188601 [Eh]

	 ================> DF-SCS-MP2 Energies <==================
	-----------------------------------------------------------
	 SCS Same-Spin Scale       =       0.3333333333333333 [-]
	 SCS Opposite-Spin Scale   =       1.2000000000000000 [-]
	 SCS Same-Spin Energy      =      -0.0771891524419553 [Eh]
	 SCS Opposite-Spin Energy  =      -0.9618531893611748 [Eh]
	 SCS Correlation Energy    =      -1.0390423418031300 [Eh]
	 SCS Total Energy          =    -555.3611928056284341 [Eh]
	-----------------------------------------------------------

  Dipole Moment: [D]
     X:     7.3205      Y:    -0.1378      Z:     0.3342     Total:     7.3294

*** Psi4 exiting successfully. Buy a developer a beer!
