                               Psi4 1.4a3.dev225

  ==> Input File <==

--------------------------------------------------------------------------
#psi4
#
memory 32 gb

molecule  {
-1 1
  S       -1.9908660    -0.0115680    -0.0914370
  C        0.8351480     0.0026240    -0.3224040
  C       -0.3590580    -0.7033670     0.3385660
  C        0.9435650     1.4522290     0.1346180
  C        2.1425740    -0.7472220    -0.0583990
  H        0.6412340     0.0009810    -1.4036700
  H       -0.1836370    -0.6741640     1.4285240
  H       -0.3012000    -1.7665080     0.0540450
  H        1.0790811     1.4315384     1.2245213
  H        1.7349380     1.9924090    -0.4025300
  H       -0.0196830     1.9410400    -0.0272870
  H        2.3515230    -0.7796840     1.0184780
  H        2.9984690    -0.2652850    -0.5495640
  H        2.0837140    -1.7817520    -0.4169670
units angstrom
no_reorient  #important for SAPT in psi4, default
symmetry c1  #important for SAPT in psi4, default
}

set PROPERTIES_ORIGIN ["COM"]
properties('MP2/aug-cc-pvtz', properties = ['dipole'])
--------------------------------------------------------------------------

    Molecular point group: c1
  Charge       = -1
  Multiplicity = 1
  Basis Set: AUG-CC-PVTZ
    Blend: AUG-CC-PVTZ
  Basis Set: (AUG-CC-PVTZ AUX)
    Blend: AUG-CC-PVTZ-JKFIT

    Orbital Energies [Eh]
    ---------------------

    Doubly Occupied:

       1A    -91.667964     2A    -11.084057     3A    -11.070338
       4A    -11.062440     5A    -11.061055     6A     -8.668061
       7A     -6.349698     8A     -6.348006     9A     -6.347960
      10A     -0.934430    11A     -0.792651    12A     -0.778792
      13A     -0.637435    14A     -0.576104    15A     -0.477809
      16A     -0.449363    17A     -0.420422    18A     -0.400820
      19A     -0.375822    20A     -0.336587    21A     -0.312992
      22A     -0.305897    23A     -0.232604    24A     -0.093902
      25A     -0.091556

  @DF-RHF Final Energy:  -554.32075009545781

   => Energetics <=

    Nuclear Repulsion Energy =            222.5707709947221815
    One-Electron Energy =               -1212.0295126995727060
    Two-Electron Energy =                 435.1379916093928273
    Total Energy =                       -554.3207500954576972
  Basis Set: (AUG-CC-PVTZ AUX)
    Blend: AUG-CC-PVTZ-RI
    Molecular point group: c1

    Geometry (in Angstrom), charge = -1, multiplicity = 1:

       Center              X                  Y                   Z               Mass
    ------------   -----------------  -----------------  -----------------  -----------------
         S           -1.873622389426    -0.009104702447    -0.081530881618    31.972071174400
         C            0.952391610574     0.005087297553    -0.312497881618    12.000000000000
         C           -0.241814389426    -0.700903702447     0.348472118382    12.000000000000
         C            1.060808610574     1.454692297553     0.144524118382    12.000000000000
         C            2.259817610574    -0.744758702447    -0.048492881618    12.000000000000
         H            0.758477610574     0.003444297553    -1.393763881618     1.007825032230
         H           -0.066393389426    -0.671700702447     1.438430118382     1.007825032230
         H           -0.183956389426    -1.764044702447     0.063951118382     1.007825032230
         H            1.196324710574     1.434001697553     1.234427418382     1.007825032230
         H            1.852181610574     1.994872297553    -0.392623881618     1.007825032230
         H            0.097560610574     1.943503297553    -0.017380881618     1.007825032230
         H            2.468766610574    -0.777220702447     1.028384118382     1.007825032230
         H            3.115712610574    -0.262821702447    -0.539657881618     1.007825032230
         H            2.200957610574    -1.779288702447    -0.407060881618     1.007825032230

  Basis Set: AUG-CC-PVTZ
    Blend: AUG-CC-PVTZ
  Basis Set: (AUG-CC-PVTZ AUX)
    Blend: AUG-CC-PVTZ-JKFIT
	 Reference Energy          =    -554.3207500954578109 [Eh]
	 Singles Energy            =      -0.0000000000000000 [Eh]
	 Same-Spin Energy          =      -0.2317426550865296 [Eh]
	 Opposite-Spin Energy      =      -0.8018850089611176 [Eh]
	 Correlation Energy        =      -1.0336276640476472 [Eh]
	 Total Energy              =    -555.3543777595054962 [Eh]

	 ================> DF-SCS-MP2 Energies <==================
	-----------------------------------------------------------
	 SCS Same-Spin Scale       =       0.3333333333333333 [-]
	 SCS Opposite-Spin Scale   =       1.2000000000000000 [-]
	 SCS Same-Spin Energy      =      -0.0772475516955099 [Eh]
	 SCS Opposite-Spin Energy  =      -0.9622620107533411 [Eh]
	 SCS Correlation Energy    =      -1.0395095624488508 [Eh]
	 SCS Total Energy          =    -555.3602596579066812 [Eh]
	-----------------------------------------------------------

  Dipole Moment: [D]
     X:     7.2812      Y:    -0.1396      Z:     0.3011     Total:     7.2888

*** Psi4 exiting successfully. Buy a developer a beer!
