                               Psi4 1.4a3.dev225

  ==> Input File <==

--------------------------------------------------------------------------
#psi4
#
memory 32 gb

molecule  {
-1 1
  S       -1.9908660    -0.0115680    -0.0914370
  C        0.8351480     0.0026240    -0.3224040
  C       -0.3590580    -0.7033670     0.3385660
  C        0.9435650     1.4522290     0.1346180
  C        2.1425740    -0.7472220    -0.0583990
  H        0.6412340     0.0009810    -1.4036700
  H       -0.1836370    -0.6741640     1.4285240
  H       -0.2985750    -1.8147416     0.0411366
  H        1.1751250     1.4924670     1.2076710
  H        1.7349380     1.9924090    -0.4025300
  H       -0.0196830     1.9410400    -0.0272870
  H        2.3515230    -0.7796840     1.0184780
  H        2.9984690    -0.2652850    -0.5495640
  H        2.0837140    -1.7817520    -0.4169670
units angstrom
no_reorient  #important for SAPT in psi4, default
symmetry c1  #important for SAPT in psi4, default
}

set PROPERTIES_ORIGIN ["COM"]
properties('MP2/aug-cc-pvtz', properties = ['dipole'])
--------------------------------------------------------------------------

    Molecular point group: c1
  Charge       = -1
  Multiplicity = 1
  Basis Set: AUG-CC-PVTZ
    Blend: AUG-CC-PVTZ
  Basis Set: (AUG-CC-PVTZ AUX)
    Blend: AUG-CC-PVTZ-JKFIT

    Orbital Energies [Eh]
    ---------------------

    Doubly Occupied:

       1A    -91.668562     2A    -11.083996     3A    -11.071654
       4A    -11.067376     5A    -11.063283     6A     -8.668656
       7A     -6.350291     8A     -6.348593     9A     -6.348551
      10A     -0.933844    11A     -0.792009    12A     -0.777169
      13A     -0.638779    14A     -0.574106    15A     -0.474222
      16A     -0.446904    17A     -0.423620    18A     -0.397815
      19A     -0.373041    20A     -0.338574    21A     -0.311324
      22A     -0.306537    23A     -0.233042    24A     -0.094392
      25A     -0.091772

  @DF-RHF Final Energy:  -554.32001195400073

   => Energetics <=

    Nuclear Repulsion Energy =            222.1957060966528843
    One-Electron Energy =               -1211.2752074617758353
    Two-Electron Energy =                 434.7594894111222175
    Total Energy =                       -554.3200119540007336
  Basis Set: (AUG-CC-PVTZ AUX)
    Blend: AUG-CC-PVTZ-RI
    Molecular point group: c1

    Geometry (in Angstrom), charge = -1, multiplicity = 1:

       Center              X                  Y                   Z               Mass
    ------------   -----------------  -----------------  -----------------  -----------------
         S           -1.874739170640    -0.009248390453    -0.081194058595    31.972071174400
         C            0.951274829360     0.004943609547    -0.312161058595    12.000000000000
         C           -0.242931170640    -0.701047390453     0.348808941405    12.000000000000
         C            1.059691829360     1.454548609547     0.144860941405    12.000000000000
         C            2.258700829360    -0.744902390453    -0.048156058595    12.000000000000
         H            0.757360829360     0.003300609547    -1.393427058595     1.007825032230
         H           -0.067510170640    -0.671844390453     1.438766941405     1.007825032230
         H           -0.182448170640    -1.812421990453     0.051379541405     1.007825032230
         H            1.291251829360     1.494786609547     1.217913941405     1.007825032230
         H            1.851064829360     1.994728609547    -0.392287058595     1.007825032230
         H            0.096443829360     1.943359609547    -0.017044058595     1.007825032230
         H            2.467649829360    -0.777364390453     1.028720941405     1.007825032230
         H            3.114595829360    -0.262965390453    -0.539321058595     1.007825032230
         H            2.199840829360    -1.779432390453    -0.406724058595     1.007825032230

  Basis Set: AUG-CC-PVTZ
    Blend: AUG-CC-PVTZ
  Basis Set: (AUG-CC-PVTZ AUX)
    Blend: AUG-CC-PVTZ-JKFIT
	 Reference Energy          =    -554.3200119540007336 [Eh]
	 Singles Energy            =      -0.0000000000000000 [Eh]
	 Same-Spin Energy          =      -0.2316250206266705 [Eh]
	 Opposite-Spin Energy      =      -0.8020448392626662 [Eh]
	 Correlation Energy        =      -1.0336698598893368 [Eh]
	 Total Energy              =    -555.3536818138900344 [Eh]

	 ================> DF-SCS-MP2 Energies <==================
	-----------------------------------------------------------
	 SCS Same-Spin Scale       =       0.3333333333333333 [-]
	 SCS Opposite-Spin Scale   =       1.2000000000000000 [-]
	 SCS Same-Spin Energy      =      -0.0772083402088902 [Eh]
	 SCS Opposite-Spin Energy  =      -0.9624538071151995 [Eh]
	 SCS Correlation Energy    =      -1.0396621473240897 [Eh]
	 SCS Total Energy          =    -555.3596741013247993 [Eh]
	-----------------------------------------------------------

  Dipole Moment: [D]
     X:     7.2726      Y:    -0.0708      Z:     0.3146     Total:     7.2797

*** Psi4 exiting successfully. Buy a developer a beer!
