                               Psi4 1.4a3.dev225

  ==> Input File <==

--------------------------------------------------------------------------
#psi4
#
memory 32 gb

molecule  {
-1 1
  S       -1.9908660    -0.0115680    -0.0914370
  C        0.8351480     0.0026240    -0.3224040
  C       -0.4485304    -0.6654355     0.3149888
  C        0.9435650     1.4522290     0.1346180
  C        2.1425740    -0.7472220    -0.0583990
  H        0.6412340     0.0009810    -1.4036700
  H       -0.1836370    -0.6741640     1.4285240
  H       -0.3012000    -1.7665080     0.0540450
  H        1.1751250     1.4924670     1.2076710
  H        1.7349380     1.9924090    -0.4025300
  H       -0.0196830     1.9410400    -0.0272870
  H        2.3515230    -0.7796840     1.0184780
  H        2.9984690    -0.2652850    -0.5495640
  H        2.0837140    -1.7817520    -0.4169670
units angstrom
no_reorient  #important for SAPT in psi4, default
symmetry c1  #important for SAPT in psi4, default
}

set PROPERTIES_ORIGIN ["COM"]
properties('MP2/aug-cc-pvtz', properties = ['dipole'])
--------------------------------------------------------------------------

    Molecular point group: c1
  Charge       = -1
  Multiplicity = 1
  Basis Set: AUG-CC-PVTZ
    Blend: AUG-CC-PVTZ
  Basis Set: (AUG-CC-PVTZ AUX)
    Blend: AUG-CC-PVTZ-JKFIT

    Orbital Energies [Eh]
    ---------------------

    Doubly Occupied:

       1A    -91.666337     2A    -11.084473     3A    -11.070886
       4A    -11.068101     5A    -11.061221     6A     -8.668561
       7A     -6.350525     8A     -6.348522     9A     -6.348462
      10A     -0.928646    11A     -0.798440    12A     -0.781354
      13A     -0.643738    14A     -0.570358    15A     -0.471181
      16A     -0.444714    17A     -0.421561    18A     -0.396410
      19A     -0.365735    20A     -0.337725    21A     -0.306377
      22A     -0.293156    23A     -0.257278    24A     -0.094458
      25A     -0.091554

  @DF-RHF Final Energy:  -554.31191872591830

   => Energetics <=

    Nuclear Repulsion Energy =            223.1050100504403417
    One-Electron Energy =               -1213.0943081974426150
    Two-Electron Energy =                 435.6773794210839696
    Total Energy =                       -554.3119187259183036
  Basis Set: (AUG-CC-PVTZ AUX)
    Blend: AUG-CC-PVTZ-RI
    Molecular point group: c1

    Geometry (in Angstrom), charge = -1, multiplicity = 1:

       Center              X                  Y                   Z               Mass
    ------------   -----------------  -----------------  -----------------  -----------------
         S           -1.862651522793    -0.014906239789    -0.078162730835    31.972071174400
         C            0.963362477207    -0.000714239789    -0.309129730835    12.000000000000
         C           -0.320315922793    -0.668773739789     0.328263069165    12.000000000000
         C            1.071779477207     1.448890760211     0.147892269165    12.000000000000
         C            2.270788477207    -0.750560239789    -0.045124730835    12.000000000000
         H            0.769448477207    -0.002357239789    -1.390395730835     1.007825032230
         H           -0.055422522793    -0.677502239789     1.441798269165     1.007825032230
         H           -0.172985522793    -1.769846239789     0.067319269165     1.007825032230
         H            1.303339477207     1.489128760211     1.220945269165     1.007825032230
         H            1.863152477207     1.989070760211    -0.389255730835     1.007825032230
         H            0.108531477207     1.937701760211    -0.014012730835     1.007825032230
         H            2.479737477207    -0.783022239789     1.031752269165     1.007825032230
         H            3.126683477207    -0.268623239789    -0.536289730835     1.007825032230
         H            2.211928477207    -1.785090239789    -0.403692730835     1.007825032230

  Basis Set: AUG-CC-PVTZ
    Blend: AUG-CC-PVTZ
  Basis Set: (AUG-CC-PVTZ AUX)
    Blend: AUG-CC-PVTZ-JKFIT
	 Reference Energy          =    -554.3119187259183036 [Eh]
	 Singles Energy            =      -0.0000000000000000 [Eh]
	 Same-Spin Energy          =      -0.2327745131583438 [Eh]
	 Opposite-Spin Energy      =      -0.8028271596921965 [Eh]
	 Correlation Energy        =      -1.0356016728505404 [Eh]
	 Total Energy              =    -555.3475203987688928 [Eh]

	 ================> DF-SCS-MP2 Energies <==================
	-----------------------------------------------------------
	 SCS Same-Spin Scale       =       0.3333333333333333 [-]
	 SCS Opposite-Spin Scale   =       1.2000000000000000 [-]
	 SCS Same-Spin Energy      =      -0.0775915043861146 [Eh]
	 SCS Opposite-Spin Energy  =      -0.9633925916306358 [Eh]
	 SCS Correlation Energy    =      -1.0409840960167505 [Eh]
	 SCS Total Energy          =    -555.3529028219350039 [Eh]
	-----------------------------------------------------------

  Dipole Moment: [D]
     X:     6.9369      Y:    -0.0488      Z:     0.2492     Total:     6.9416

*** Psi4 exiting successfully. Buy a developer a beer!
