                               Psi4 1.4a3.dev225

  ==> Input File <==

--------------------------------------------------------------------------
#psi4
#
memory 32 gb

molecule  {
-1 1
  S       -1.9908660    -0.0115680    -0.0914370
  C        0.8351480     0.0026240    -0.3224040
  C       -0.3590580    -0.7033670     0.3385660
  C        0.9435650     1.4522290     0.1346180
  C        2.1425740    -0.7472220    -0.0583990
  H        0.6412340     0.0009810    -1.4036700
  H       -0.1836370    -0.6741640     1.4285240
  H       -0.3012000    -1.7665080     0.0540450
  H        1.1751250     1.4924670     1.2076710
  H        1.7349380     1.9924090    -0.4025300
  H       -0.0196830     1.9410400    -0.0272870
  H        2.3506888    -0.7030887     1.0182244
  H        2.9984690    -0.2652850    -0.5495640
  H        2.0837140    -1.7817520    -0.4169670
units angstrom
no_reorient  #important for SAPT in psi4, default
symmetry c1  #important for SAPT in psi4, default
}

set PROPERTIES_ORIGIN ["COM"]
properties('MP2/aug-cc-pvtz', properties = ['dipole'])
--------------------------------------------------------------------------

    Molecular point group: c1
  Charge       = -1
  Multiplicity = 1
  Basis Set: AUG-CC-PVTZ
    Blend: AUG-CC-PVTZ
  Basis Set: (AUG-CC-PVTZ AUX)
    Blend: AUG-CC-PVTZ-JKFIT

    Orbital Energies [Eh]
    ---------------------

    Doubly Occupied:

       1A    -91.667890     2A    -11.084236     3A    -11.070645
       4A    -11.062923     5A    -11.060879     6A     -8.667989
       7A     -6.349626     8A     -6.347934     9A     -6.347889
      10A     -0.934450    11A     -0.792173    12A     -0.779373
      13A     -0.637927    14A     -0.575815    15A     -0.479342
      16A     -0.446490    17A     -0.423792    18A     -0.397243
      19A     -0.376661    20A     -0.338087    21A     -0.314314
      22A     -0.305205    23A     -0.232508    24A     -0.093897
      25A     -0.091474

  @DF-RHF Final Energy:  -554.32150143410558

   => Energetics <=

    Nuclear Repulsion Energy =            222.4877165564359984
    One-Electron Energy =               -1211.8609062667055696
    Two-Electron Energy =                 435.0516882761639863
    Total Energy =                       -554.3215014341055848
  Basis Set: (AUG-CC-PVTZ AUX)
    Blend: AUG-CC-PVTZ-RI
    Molecular point group: c1

    Geometry (in Angstrom), charge = -1, multiplicity = 1:

       Center              X                  Y                   Z               Mass
    ------------   -----------------  -----------------  -----------------  -----------------
         S           -1.874700017780    -0.010661262903    -0.081337291599    31.972071174400
         C            0.951313982220     0.003530737097    -0.312304291599    12.000000000000
         C           -0.242892017780    -0.702460262903     0.348665708401    12.000000000000
         C            1.059730982220     1.453135737097     0.144717708401    12.000000000000
         C            2.258739982220    -0.746315262903    -0.048299291599    12.000000000000
         H            0.757399982220     0.001887737097    -1.393570291599     1.007825032230
         H           -0.067471017780    -0.673257262903     1.438623708401     1.007825032230
         H           -0.185034017780    -1.765601262903     0.064144708401     1.007825032230
         H            1.291290982220     1.493373737097     1.217770708401     1.007825032230
         H            1.851103982220     1.993315737097    -0.392430291599     1.007825032230
         H            0.096482982220     1.941946737097    -0.017187291599     1.007825032230
         H            2.466854782220    -0.702181962903     1.028324108401     1.007825032230
         H            3.114634982220    -0.264378262903    -0.539464291599     1.007825032230
         H            2.199879982220    -1.780845262903    -0.406867291599     1.007825032230

  Basis Set: AUG-CC-PVTZ
    Blend: AUG-CC-PVTZ
  Basis Set: (AUG-CC-PVTZ AUX)
    Blend: AUG-CC-PVTZ-JKFIT
	 Reference Energy          =    -554.3215014341055848 [Eh]
	 Singles Energy            =      -0.0000000000000000 [Eh]
	 Same-Spin Energy          =      -0.2316412234749366 [Eh]
	 Opposite-Spin Energy      =      -0.8017607002847253 [Eh]
	 Correlation Energy        =      -1.0334019237596619 [Eh]
	 Total Energy              =    -555.3549033578652825 [Eh]

	 ================> DF-SCS-MP2 Energies <==================
	-----------------------------------------------------------
	 SCS Same-Spin Scale       =       0.3333333333333333 [-]
	 SCS Opposite-Spin Scale   =       1.2000000000000000 [-]
	 SCS Same-Spin Energy      =      -0.0772137411583122 [Eh]
	 SCS Opposite-Spin Energy  =      -0.9621128403416703 [Eh]
	 SCS Correlation Energy    =      -1.0393265814999826 [Eh]
	 SCS Total Energy          =    -555.3608280156055343 [Eh]
	-----------------------------------------------------------

  Dipole Moment: [D]
     X:     7.3118      Y:    -0.1166      Z:     0.3087     Total:     7.3192

*** Psi4 exiting successfully. Buy a developer a beer!
