                               Psi4 1.4a3.dev225

  ==> Input File <==

--------------------------------------------------------------------------
#psi4
#
memory 32 gb

molecule  {
-1 1
  S       -1.9908660    -0.0115680    -0.0914370
  C        0.8351480     0.0026240    -0.3224040
  C       -0.3590580    -0.7033670     0.3385660
  C        0.9435650     1.4522290     0.1346180
  C        2.1425740    -0.7472220    -0.0583990
  H        0.6412340     0.0009810    -1.4036700
  H       -0.1836370    -0.6741640     1.4285240
  H       -0.3064499    -1.6700408     0.0798619
  H        1.1751250     1.4924670     1.2076710
  H        1.7349380     1.9924090    -0.4025300
  H       -0.0196830     1.9410400    -0.0272870
  H        2.3515230    -0.7796840     1.0184780
  H        2.9984690    -0.2652850    -0.5495640
  H        2.0837140    -1.7817520    -0.4169670
units angstrom
no_reorient  #important for SAPT in psi4, default
symmetry c1  #important for SAPT in psi4, default
}

set PROPERTIES_ORIGIN ["COM"]
properties('MP2/aug-cc-pvtz', properties = ['dipole'])
--------------------------------------------------------------------------

    Molecular point group: c1
  Charge       = -1
  Multiplicity = 1
  Basis Set: AUG-CC-PVTZ
    Blend: AUG-CC-PVTZ
  Basis Set: (AUG-CC-PVTZ AUX)
    Blend: AUG-CC-PVTZ-JKFIT

    Orbital Energies [Eh]
    ---------------------

    Doubly Occupied:

       1A    -91.666983     2A    -11.084631     3A    -11.070144
       4A    -11.062015     5A    -11.047669     6A     -8.667078
       7A     -6.348717     8A     -6.347039     9A     -6.346989
      10A     -0.935172    11A     -0.794881    12A     -0.784228
      13A     -0.637829    14A     -0.581896    15A     -0.481361
      16A     -0.450477    17A     -0.423816    18A     -0.398811
      19A     -0.380118    20A     -0.339650    21A     -0.317918
      22A     -0.305112    23A     -0.231797    24A     -0.093360
      25A     -0.091123

  @DF-RHF Final Energy:  -554.31699290496840

   => Energetics <=

    Nuclear Repulsion Energy =            222.9393799446399953
    One-Electron Energy =               -1212.7351152316780372
    Two-Electron Energy =                 435.4787423820696404
    Total Energy =                       -554.3169929049684015
  Basis Set: (AUG-CC-PVTZ AUX)
    Blend: AUG-CC-PVTZ-RI
    Molecular point group: c1

    Geometry (in Angstrom), charge = -1, multiplicity = 1:

       Center              X                  Y                   Z               Mass
    ------------   -----------------  -----------------  -----------------  -----------------
         S           -1.874650038802    -0.010886182454    -0.081632369832    31.972071174400
         C            0.951363961198     0.003305817546    -0.312599369832    12.000000000000
         C           -0.242842038802    -0.702685182454     0.348370630168    12.000000000000
         C            1.059780961198     1.452910817546     0.144422630168    12.000000000000
         C            2.258789961198    -0.746540182454    -0.048594369832    12.000000000000
         H            0.757449961198     0.001662817546    -1.393865369832     1.007825032230
         H           -0.067421038802    -0.673482182454     1.438328630168     1.007825032230
         H           -0.190233938802    -1.669358982454     0.089666530168     1.007825032230
         H            1.291340961198     1.493148817546     1.217475630168     1.007825032230
         H            1.851153961198     1.993090817546    -0.392725369832     1.007825032230
         H            0.096532961198     1.941721817546    -0.017482369832     1.007825032230
         H            2.467738961198    -0.779002182454     1.028282630168     1.007825032230
         H            3.114684961198    -0.264603182454    -0.539759369832     1.007825032230
         H            2.199929961198    -1.781070182454    -0.407162369832     1.007825032230

  Basis Set: AUG-CC-PVTZ
    Blend: AUG-CC-PVTZ
  Basis Set: (AUG-CC-PVTZ AUX)
    Blend: AUG-CC-PVTZ-JKFIT
	 Reference Energy          =    -554.3169929049684015 [Eh]
	 Singles Energy            =      -0.0000000000000000 [Eh]
	 Same-Spin Energy          =      -0.2314610618999183 [Eh]
	 Opposite-Spin Energy      =      -0.8010671672030313 [Eh]
	 Correlation Energy        =      -1.0325282291029496 [Eh]
	 Total Energy              =    -555.3495211340713240 [Eh]

	 ================> DF-SCS-MP2 Energies <==================
	-----------------------------------------------------------
	 SCS Same-Spin Scale       =       0.3333333333333333 [-]
	 SCS Opposite-Spin Scale   =       1.2000000000000000 [-]
	 SCS Same-Spin Energy      =      -0.0771536872999728 [Eh]
	 SCS Opposite-Spin Energy  =      -0.9612806006436375 [Eh]
	 SCS Correlation Energy    =      -1.0384342879436104 [Eh]
	 SCS Total Energy          =    -555.3554271929119750 [Eh]
	-----------------------------------------------------------

  Dipole Moment: [D]
     X:     7.3762      Y:    -0.2277      Z:     0.3328     Total:     7.3872

*** Psi4 exiting successfully. Buy a developer a beer!
