                               Psi4 1.4a3.dev225

  ==> Input File <==

--------------------------------------------------------------------------
#psi4
#
memory 32 gb

molecule  {
-1 1
  S       -1.9908660    -0.0115680    -0.0914370
  C        0.8351480     0.0026240    -0.3224040
  C       -0.3590580    -0.7033670     0.3385660
  C        0.9435650     1.4522290     0.1346180
  C        2.1425740    -0.7472220    -0.0583990
  H        0.6412340     0.0009810    -1.4036700
  H       -0.1836370    -0.6741640     1.4285240
  H       -0.3012000    -1.7665080     0.0540450
  H        1.1113131     1.4518557     1.2202249
  H        1.7349380     1.9924090    -0.4025300
  H       -0.0196830     1.9410400    -0.0272870
  H        2.3515230    -0.7796840     1.0184780
  H        2.9984690    -0.2652850    -0.5495640
  H        2.0837140    -1.7817520    -0.4169670
units angstrom
no_reorient  #important for SAPT in psi4, default
symmetry c1  #important for SAPT in psi4, default
}

set PROPERTIES_ORIGIN ["COM"]
properties('MP2/aug-cc-pvtz', properties = ['dipole'])
--------------------------------------------------------------------------

    Molecular point group: c1
  Charge       = -1
  Multiplicity = 1
  Basis Set: AUG-CC-PVTZ
    Blend: AUG-CC-PVTZ
  Basis Set: (AUG-CC-PVTZ AUX)
    Blend: AUG-CC-PVTZ-JKFIT

    Orbital Energies [Eh]
    ---------------------

    Doubly Occupied:

       1A    -91.667940     2A    -11.084105     3A    -11.070570
       4A    -11.062556     5A    -11.061004     6A     -8.668038
       7A     -6.349675     8A     -6.347983     9A     -6.347937
      10A     -0.934298    11A     -0.792553    12A     -0.778957
      13A     -0.637741    14A     -0.576105    15A     -0.477216
      16A     -0.448811    17A     -0.421358    18A     -0.400118
      19A     -0.375783    20A     -0.337365    21A     -0.313228
      22A     -0.306159    23A     -0.232577    24A     -0.093906
      25A     -0.091527

  @DF-RHF Final Energy:  -554.32149749890641

   => Energetics <=

    Nuclear Repulsion Energy =            222.5218214452770837
    One-Electron Energy =               -1211.9316171817063150
    Two-Electron Energy =                 435.0882982375227925
    Total Energy =                       -554.3214974989064103
  Basis Set: (AUG-CC-PVTZ AUX)
    Blend: AUG-CC-PVTZ-RI
    Molecular point group: c1

    Geometry (in Angstrom), charge = -1, multiplicity = 1:

       Center              X                  Y                   Z               Mass
    ------------   -----------------  -----------------  -----------------  -----------------
         S           -1.873987206426    -0.009334663245    -0.081482252933    31.972071174400
         C            0.952026793574     0.004857336755    -0.312449252933    12.000000000000
         C           -0.242179206426    -0.701133663245     0.348520747067    12.000000000000
         C            1.060443793574     1.454462336755     0.144572747067    12.000000000000
         C            2.259452793574    -0.744988663245    -0.048444252933    12.000000000000
         H            0.758112793574     0.003214336755    -1.393715252933     1.007825032230
         H           -0.066758206426    -0.671930663245     1.438478747067     1.007825032230
         H           -0.184321206426    -1.764274663245     0.063999747067     1.007825032230
         H            1.228191893574     1.454089036755     1.230179647067     1.007825032230
         H            1.851816793574     1.994642336755    -0.392575252933     1.007825032230
         H            0.097195793574     1.943273336755    -0.017332252933     1.007825032230
         H            2.468401793574    -0.777450663245     1.028432747067     1.007825032230
         H            3.115347793574    -0.263051663245    -0.539609252933     1.007825032230
         H            2.200592793574    -1.779518663245    -0.407012252933     1.007825032230

  Basis Set: AUG-CC-PVTZ
    Blend: AUG-CC-PVTZ
  Basis Set: (AUG-CC-PVTZ AUX)
    Blend: AUG-CC-PVTZ-JKFIT
	 Reference Energy          =    -554.3214974989064103 [Eh]
	 Singles Energy            =      -0.0000000000000000 [Eh]
	 Same-Spin Energy          =      -0.2316679540506872 [Eh]
	 Opposite-Spin Energy      =      -0.8017877693368389 [Eh]
	 Correlation Energy        =      -1.0334557233875261 [Eh]
	 Total Energy              =    -555.3549532222939433 [Eh]

	 ================> DF-SCS-MP2 Energies <==================
	-----------------------------------------------------------
	 SCS Same-Spin Scale       =       0.3333333333333333 [-]
	 SCS Opposite-Spin Scale   =       1.2000000000000000 [-]
	 SCS Same-Spin Energy      =      -0.0772226513502291 [Eh]
	 SCS Opposite-Spin Energy  =      -0.9621453232042066 [Eh]
	 SCS Correlation Energy    =      -1.0393679745544357 [Eh]
	 SCS Total Energy          =    -555.3608654734608763 [Eh]
	-----------------------------------------------------------

  Dipole Moment: [D]
     X:     7.2916      Y:    -0.1378      Z:     0.3083     Total:     7.2994

*** Psi4 exiting successfully. Buy a developer a beer!
