                               Psi4 1.4a3.dev225

  ==> Input File <==

--------------------------------------------------------------------------
#psi4
#
memory 32 gb

molecule  {
-1 1
  S       -1.9908660    -0.0115680    -0.0914370
  C        0.8351480     0.0026240    -0.3224040
  C       -0.3590580    -0.7033670     0.3385660
  C        0.9435650     1.4522290     0.1346180
  C        2.1425740    -0.7472220    -0.0583990
  H        0.6412340     0.0009810    -1.4036700
  H       -0.1836370    -0.6741640     1.4285240
  H       -0.3001500    -1.7858014     0.0488816
  H        1.1751250     1.4924670     1.2076710
  H        1.7349380     1.9924090    -0.4025300
  H       -0.0196830     1.9410400    -0.0272870
  H        2.3515230    -0.7796840     1.0184780
  H        2.9984690    -0.2652850    -0.5495640
  H        2.0837140    -1.7817520    -0.4169670
units angstrom
no_reorient  #important for SAPT in psi4, default
symmetry c1  #important for SAPT in psi4, default
}

set PROPERTIES_ORIGIN ["COM"]
properties('MP2/aug-cc-pvtz', properties = ['dipole'])
--------------------------------------------------------------------------

    Molecular point group: c1
  Charge       = -1
  Multiplicity = 1
  Basis Set: AUG-CC-PVTZ
    Blend: AUG-CC-PVTZ
  Basis Set: (AUG-CC-PVTZ AUX)
    Blend: AUG-CC-PVTZ-JKFIT

    Orbital Energies [Eh]
    ---------------------

    Doubly Occupied:

       1A    -91.668157     2A    -11.084124     3A    -11.071289
       4A    -11.063524     5A    -11.062973     6A     -8.668255
       7A     -6.349891     8A     -6.348197     9A     -6.348152
      10A     -0.933974    11A     -0.792212    12A     -0.778442
      13A     -0.638538    14A     -0.575265    15A     -0.475372
      16A     -0.447580    17A     -0.423652    18A     -0.397931
      19A     -0.374459    20A     -0.338794    21A     -0.312970
      22A     -0.306197    23A     -0.232736    24A     -0.094103
      25A     -0.091598

  @DF-RHF Final Energy:  -554.32158833296512

   => Energetics <=

    Nuclear Repulsion Energy =            222.3346451777397021
    One-Electron Energy =               -1211.5556938921247365
    Two-Electron Energy =                 434.8994603814198854
    Total Energy =                       -554.3215883329651206
  Basis Set: (AUG-CC-PVTZ AUX)
    Blend: AUG-CC-PVTZ-RI
    Molecular point group: c1

    Geometry (in Angstrom), charge = -1, multiplicity = 1:

       Center              X                  Y                   Z               Mass
    ------------   -----------------  -----------------  -----------------  -----------------
         S           -1.874721344046    -0.009575949306    -0.081281720163    31.972071174400
         C            0.951292655954     0.004616050694    -0.312248720163    12.000000000000
         C           -0.242913344046    -0.701374949306     0.348721279837    12.000000000000
         C            1.059709655954     1.454221050694     0.144773279837    12.000000000000
         C            2.258718655954    -0.745229949306    -0.048243720163    12.000000000000
         H            0.757378655954     0.002973050694    -1.393514720163     1.007825032230
         H           -0.067492344046    -0.672171949306     1.438679279837     1.007825032230
         H           -0.184005344046    -1.783809349306     0.059036879837     1.007825032230
         H            1.291269655954     1.494459050694     1.217826279837     1.007825032230
         H            1.851082655954     1.994401050694    -0.392374720163     1.007825032230
         H            0.096461655954     1.943032050694    -0.017131720163     1.007825032230
         H            2.467667655954    -0.777691949306     1.028633279837     1.007825032230
         H            3.114613655954    -0.263292949306    -0.539408720163     1.007825032230
         H            2.199858655954    -1.779759949306    -0.406811720163     1.007825032230

  Basis Set: AUG-CC-PVTZ
    Blend: AUG-CC-PVTZ
  Basis Set: (AUG-CC-PVTZ AUX)
    Blend: AUG-CC-PVTZ-JKFIT
	 Reference Energy          =    -554.3215883329651206 [Eh]
	 Singles Energy            =      -0.0000000000000000 [Eh]
	 Same-Spin Energy          =      -0.2315876250526112 [Eh]
	 Opposite-Spin Energy      =      -0.8018037577810911 [Eh]
	 Correlation Energy        =      -1.0333913828337025 [Eh]
	 Total Energy              =    -555.3549797157987769 [Eh]

	 ================> DF-SCS-MP2 Energies <==================
	-----------------------------------------------------------
	 SCS Same-Spin Scale       =       0.3333333333333333 [-]
	 SCS Opposite-Spin Scale   =       1.2000000000000000 [-]
	 SCS Same-Spin Energy      =      -0.0771958750175371 [Eh]
	 SCS Opposite-Spin Energy  =      -0.9621645093373093 [Eh]
	 SCS Correlation Energy    =      -1.0393603843548465 [Eh]
	 SCS Total Energy          =    -555.3609487173199568 [Eh]
	-----------------------------------------------------------

  Dipole Moment: [D]
     X:     7.2966      Y:    -0.1108      Z:     0.3180     Total:     7.3044

*** Psi4 exiting successfully. Buy a developer a beer!
