                               Psi4 1.4a3.dev225

  ==> Input File <==

--------------------------------------------------------------------------
#psi4
#
memory 32 gb

molecule  {
-1 1
  S       -1.9908660    -0.0115680    -0.0914370
  C        0.8351480     0.0026240    -0.3224040
  C       -0.3590580    -0.7033670     0.3385660
  C        0.9435650     1.4522290     0.1346180
  C        2.1425740    -0.7472220    -0.0583990
  H        0.6412340     0.0009810    -1.4036700
  H       -0.1836370    -0.6741640     1.4285240
  H       -0.3012000    -1.7665080     0.0540450
  H        1.1433407     1.4721735     1.2146058
  H        1.7349380     1.9924090    -0.4025300
  H       -0.0196830     1.9410400    -0.0272870
  H        2.3515230    -0.7796840     1.0184780
  H        2.9984690    -0.2652850    -0.5495640
  H        2.0837140    -1.7817520    -0.4169670
units angstrom
no_reorient  #important for SAPT in psi4, default
symmetry c1  #important for SAPT in psi4, default
}

set PROPERTIES_ORIGIN ["COM"]
properties('MP2/aug-cc-pvtz', properties = ['dipole'])
--------------------------------------------------------------------------

    Molecular point group: c1
  Charge       = -1
  Multiplicity = 1
  Basis Set: AUG-CC-PVTZ
    Blend: AUG-CC-PVTZ
  Basis Set: (AUG-CC-PVTZ AUX)
    Blend: AUG-CC-PVTZ-JKFIT

    Orbital Energies [Eh]
    ---------------------

    Doubly Occupied:

       1A    -91.667924     2A    -11.084156     3A    -11.070813
       4A    -11.062670     5A    -11.060960     6A     -8.668022
       7A     -6.349659     8A     -6.347967     9A     -6.347921
      10A     -0.934187    11A     -0.792473    12A     -0.779147
      13A     -0.638060    14A     -0.576118    15A     -0.476687
      16A     -0.448367    17A     -0.422463    18A     -0.399169
      19A     -0.375655    20A     -0.338151    21A     -0.313563
      22A     -0.306178    23A     -0.232558    24A     -0.093917
      25A     -0.091507

  @DF-RHF Final Energy:  -554.32196455633311

   => Energetics <=

    Nuclear Repulsion Energy =            222.4748306465095027
    One-Electron Energy =               -1211.8370079978240028
    Two-Electron Energy =                 435.0402127949813007
    Total Energy =                       -554.3219645563331142
  Basis Set: (AUG-CC-PVTZ AUX)
    Blend: AUG-CC-PVTZ-RI
    Molecular point group: c1

    Geometry (in Angstrom), charge = -1, multiplicity = 1:

       Center              X                  Y                   Z               Mass
    ------------   -----------------  -----------------  -----------------  -----------------
         S           -1.874349709930    -0.009564629702    -0.081418653305    31.972071174400
         C            0.951664290070     0.004627370298    -0.312385653305    12.000000000000
         C           -0.242541709930    -0.701363629702     0.348584346695    12.000000000000
         C            1.060081290070     1.454232370298     0.144636346695    12.000000000000
         C            2.259090290070    -0.745218629702    -0.048380653305    12.000000000000
         H            0.757750290070     0.002984370298    -1.393651653305     1.007825032230
         H           -0.067120709930    -0.672160629702     1.438542346695     1.007825032230
         H           -0.184683709930    -1.764504629702     0.064063346695     1.007825032230
         H            1.259856990070     1.474176870298     1.224624146695     1.007825032230
         H            1.851454290070     1.994412370298    -0.392511653305     1.007825032230
         H            0.096833290070     1.943043370298    -0.017268653305     1.007825032230
         H            2.468039290070    -0.777680629702     1.028496346695     1.007825032230
         H            3.114985290070    -0.263281629702    -0.539545653305     1.007825032230
         H            2.200230290070    -1.779748629702    -0.406948653305     1.007825032230

  Basis Set: AUG-CC-PVTZ
    Blend: AUG-CC-PVTZ
  Basis Set: (AUG-CC-PVTZ AUX)
    Blend: AUG-CC-PVTZ-JKFIT
	 Reference Energy          =    -554.3219645563331142 [Eh]
	 Singles Energy            =      -0.0000000000000000 [Eh]
	 Same-Spin Energy          =      -0.2316082156241106 [Eh]
	 Opposite-Spin Energy      =      -0.8017105272070491 [Eh]
	 Correlation Energy        =      -1.0333187428311597 [Eh]
	 Total Energy              =    -555.3552832991642845 [Eh]

	 ================> DF-SCS-MP2 Energies <==================
	-----------------------------------------------------------
	 SCS Same-Spin Scale       =       0.3333333333333333 [-]
	 SCS Opposite-Spin Scale   =       1.2000000000000000 [-]
	 SCS Same-Spin Energy      =      -0.0772027385413702 [Eh]
	 SCS Opposite-Spin Energy  =      -0.9620526326484589 [Eh]
	 SCS Correlation Energy    =      -1.0392553711898291 [Eh]
	 SCS Total Energy          =    -555.3612199275229386 [Eh]
	-----------------------------------------------------------

  Dipole Moment: [D]
     X:     7.3018      Y:    -0.1363      Z:     0.3147     Total:     7.3098

*** Psi4 exiting successfully. Buy a developer a beer!
