                               Psi4 1.4a3.dev225

  ==> Input File <==

--------------------------------------------------------------------------
#psi4
#
memory 32 gb

molecule  {
-1 1
  S       -1.9908660    -0.0115680    -0.0914370
  C        0.8351480     0.0026240    -0.3224040
  C       -0.3590580    -0.7033670     0.3385660
  C        0.9435650     1.4522290     0.1346180
  C        2.1425740    -0.7472220    -0.0583990
  H        0.6412340     0.0009810    -1.4036700
  H       -0.1836370    -0.6741640     1.4285240
  H       -0.3012000    -1.7665080     0.0540450
  H        1.1087243     1.5294218     1.2178749
  H        1.7349380     1.9924090    -0.4025300
  H       -0.0196830     1.9410400    -0.0272870
  H        2.3515230    -0.7796840     1.0184780
  H        2.9984690    -0.2652850    -0.5495640
  H        2.0837140    -1.7817520    -0.4169670
units angstrom
no_reorient  #important for SAPT in psi4, default
symmetry c1  #important for SAPT in psi4, default
}

set PROPERTIES_ORIGIN ["COM"]
properties('MP2/aug-cc-pvtz', properties = ['dipole'])
--------------------------------------------------------------------------

    Molecular point group: c1
  Charge       = -1
  Multiplicity = 1
  Basis Set: AUG-CC-PVTZ
    Blend: AUG-CC-PVTZ
  Basis Set: (AUG-CC-PVTZ AUX)
    Blend: AUG-CC-PVTZ-JKFIT

    Orbital Energies [Eh]
    ---------------------

    Doubly Occupied:

       1A    -91.667895     2A    -11.084060     3A    -11.071473
       4A    -11.062453     5A    -11.060962     6A     -8.667994
       7A     -6.349631     8A     -6.347939     9A     -6.347893
      10A     -0.933792    11A     -0.792571    12A     -0.779211
      13A     -0.638785    14A     -0.576413    15A     -0.475323
      16A     -0.448848    17A     -0.421871    18A     -0.398793
      19A     -0.376432    20A     -0.336204    21A     -0.314410
      22A     -0.306859    23A     -0.232523    24A     -0.093843
      25A     -0.091484

  @DF-RHF Final Energy:  -554.32169031927583

   => Energetics <=

    Nuclear Repulsion Energy =            222.4067185056884739
    One-Electron Energy =               -1211.7014963167755468
    Two-Electron Energy =                 434.9730874918112136
    Total Energy =                       -554.3216903192758309
  Basis Set: (AUG-CC-PVTZ AUX)
    Blend: AUG-CC-PVTZ-RI
    Molecular point group: c1

    Geometry (in Angstrom), charge = -1, multiplicity = 1:

       Center              X                  Y                   Z               Mass
    ------------   -----------------  -----------------  -----------------  -----------------
         S           -1.873957905165    -0.010212593001    -0.081455654523    31.972071174400
         C            0.952056094835     0.003979406999    -0.312422654523    12.000000000000
         C           -0.242149905165    -0.702011593001     0.348547345477    12.000000000000
         C            1.060473094835     1.453584406999     0.144599345477    12.000000000000
         C            2.259482094835    -0.745866593001    -0.048417654523    12.000000000000
         H            0.758142094835     0.002336406999    -1.393688654523     1.007825032230
         H           -0.066728905165    -0.672808593001     1.438505345477     1.007825032230
         H           -0.184291905165    -1.765152593001     0.064026345477     1.007825032230
         H            1.225632394835     1.530777206999     1.227856245477     1.007825032230
         H            1.851846094835     1.993764406999    -0.392548654523     1.007825032230
         H            0.097225094835     1.942395406999    -0.017305654523     1.007825032230
         H            2.468431094835    -0.778328593001     1.028459345477     1.007825032230
         H            3.115377094835    -0.263929593001    -0.539582654523     1.007825032230
         H            2.200622094835    -1.780396593001    -0.406985654523     1.007825032230

  Basis Set: AUG-CC-PVTZ
    Blend: AUG-CC-PVTZ
  Basis Set: (AUG-CC-PVTZ AUX)
    Blend: AUG-CC-PVTZ-JKFIT
	 Reference Energy          =    -554.3216903192758309 [Eh]
	 Singles Energy            =      -0.0000000000000000 [Eh]
	 Same-Spin Energy          =      -0.2315602363050167 [Eh]
	 Opposite-Spin Energy      =      -0.8016390441615839 [Eh]
	 Correlation Energy        =      -1.0331992804666006 [Eh]
	 Total Energy              =    -555.3548895997424779 [Eh]

	 ================> DF-SCS-MP2 Energies <==================
	-----------------------------------------------------------
	 SCS Same-Spin Scale       =       0.3333333333333333 [-]
	 SCS Opposite-Spin Scale   =       1.2000000000000000 [-]
	 SCS Same-Spin Energy      =      -0.0771867454350055 [Eh]
	 SCS Opposite-Spin Energy  =      -0.9619668529939007 [Eh]
	 SCS Correlation Energy    =      -1.0391535984289062 [Eh]
	 SCS Total Energy          =    -555.3608439177047558 [Eh]
	-----------------------------------------------------------

  Dipole Moment: [D]
     X:     7.2926      Y:    -0.1217      Z:     0.3250     Total:     7.3008

*** Psi4 exiting successfully. Buy a developer a beer!
