                               Psi4 1.4a3.dev225

  ==> Input File <==

--------------------------------------------------------------------------
#psi4
#
memory 32 gb

molecule  {
-1 1
  S       -1.9908660    -0.0115680    -0.0914370
  C        0.8351480     0.0026240    -0.3224040
  C       -0.3590580    -0.7033670     0.3385660
  C        0.9364501     1.3570983     0.1046258
  C        2.1425740    -0.7472220    -0.0583990
  H        0.6412340     0.0009810    -1.4036700
  H       -0.1836370    -0.6741640     1.4285240
  H       -0.3012000    -1.7665080     0.0540450
  H        1.1751250     1.4924670     1.2076710
  H        1.7349380     1.9924090    -0.4025300
  H       -0.0196830     1.9410400    -0.0272870
  H        2.3515230    -0.7796840     1.0184780
  H        2.9984690    -0.2652850    -0.5495640
  H        2.0837140    -1.7817520    -0.4169670
units angstrom
no_reorient  #important for SAPT in psi4, default
symmetry c1  #important for SAPT in psi4, default
}

set PROPERTIES_ORIGIN ["COM"]
properties('MP2/aug-cc-pvtz', properties = ['dipole'])
--------------------------------------------------------------------------

    Molecular point group: c1
  Charge       = -1
  Multiplicity = 1
  Basis Set: AUG-CC-PVTZ
    Blend: AUG-CC-PVTZ
  Basis Set: (AUG-CC-PVTZ AUX)
    Blend: AUG-CC-PVTZ-JKFIT

    Orbital Energies [Eh]
    ---------------------

    Doubly Occupied:

       1A    -91.668151     2A    -11.084548     3A    -11.068921
       4A    -11.065606     5A    -11.061565     6A     -8.668255
       7A     -6.349891     8A     -6.348196     9A     -6.348148
      10A     -0.949001    11A     -0.793889    12A     -0.778807
      13A     -0.638019    14A     -0.578577    15A     -0.483758
      16A     -0.447963    17A     -0.425578    18A     -0.393505
      19A     -0.371968    20A     -0.337021    21A     -0.320162
      22A     -0.298254    23A     -0.232915    24A     -0.094259
      25A     -0.091607

  @DF-RHF Final Energy:  -554.31060749858182

   => Energetics <=

    Nuclear Repulsion Energy =            223.9484146072400677
    One-Electron Energy =               -1214.7209169650893728
    Two-Electron Energy =                 436.4618948592675451
    Total Energy =                       -554.3106074985818168
  Basis Set: (AUG-CC-PVTZ AUX)
    Blend: AUG-CC-PVTZ-RI
    Molecular point group: c1

    Geometry (in Angstrom), charge = -1, multiplicity = 1:

       Center              X                  Y                   Z               Mass
    ------------   -----------------  -----------------  -----------------  -----------------
         S           -1.873750605132     0.003026168481    -0.077298199818    31.972071174400
         C            0.952263394868     0.017218168481    -0.308265199818    12.000000000000
         C           -0.241942605132    -0.688772831519     0.352704800182    12.000000000000
         C            1.053565494868     1.371692468481     0.118764600182    12.000000000000
         C            2.259689394868    -0.732627831519    -0.044260199818    12.000000000000
         H            0.758349394868     0.015575168481    -1.389531199818     1.007825032230
         H           -0.066521605132    -0.659569831519     1.442662800182     1.007825032230
         H           -0.184084605132    -1.751913831519     0.068183800182     1.007825032230
         H            1.292240394868     1.507061168481     1.221809800182     1.007825032230
         H            1.852053394868     2.007003168481    -0.388391199818     1.007825032230
         H            0.097432394868     1.955634168481    -0.013148199818     1.007825032230
         H            2.468638394868    -0.765089831519     1.032616800182     1.007825032230
         H            3.115584394868    -0.250690831519    -0.535425199818     1.007825032230
         H            2.200829394868    -1.767157831519    -0.402828199818     1.007825032230

  Basis Set: AUG-CC-PVTZ
    Blend: AUG-CC-PVTZ
  Basis Set: (AUG-CC-PVTZ AUX)
    Blend: AUG-CC-PVTZ-JKFIT
	 Reference Energy          =    -554.3106074985818168 [Eh]
	 Singles Energy            =      -0.0000000000000000 [Eh]
	 Same-Spin Energy          =      -0.2327017484339978 [Eh]
	 Opposite-Spin Energy      =      -0.8029952230320628 [Eh]
	 Correlation Energy        =      -1.0356969714660607 [Eh]
	 Total Energy              =    -555.3463044700479259 [Eh]

	 ================> DF-SCS-MP2 Energies <==================
	-----------------------------------------------------------
	 SCS Same-Spin Scale       =       0.3333333333333333 [-]
	 SCS Opposite-Spin Scale   =       1.2000000000000000 [-]
	 SCS Same-Spin Energy      =      -0.0775672494779993 [Eh]
	 SCS Opposite-Spin Energy  =      -0.9635942676384753 [Eh]
	 SCS Correlation Energy    =      -1.0411615171164745 [Eh]
	 SCS Total Energy          =    -555.3517690156983235 [Eh]
	-----------------------------------------------------------

  Dipole Moment: [D]
     X:     7.2543      Y:    -0.1911      Z:     0.2901     Total:     7.2626

*** Psi4 exiting successfully. Buy a developer a beer!
