                               Psi4 1.4a3.dev225

  ==> Input File <==

--------------------------------------------------------------------------
#psi4
#
memory 32 gb

molecule  {
-1 1
  S       -1.9908660    -0.0115680    -0.0914370
  C        0.8351480     0.0026240    -0.3224040
  C       -0.3590580    -0.7033670     0.3385660
  C        0.9435650     1.4522290     0.1346180
  C        2.1425740    -0.7472220    -0.0583990
  H        0.6412340     0.0009810    -1.4036700
  H       -0.1836370    -0.6741640     1.4285240
  H       -0.3012000    -1.7665080     0.0540450
  H        1.1751250     1.4924670     1.2076710
  H        1.7349380     1.9924090    -0.4025300
  H       -0.0196830     1.9410400    -0.0272870
  H        2.3705627    -0.7826420     1.1166042
  H        2.9984690    -0.2652850    -0.5495640
  H        2.0837140    -1.7817520    -0.4169670
units angstrom
no_reorient  #important for SAPT in psi4, default
symmetry c1  #important for SAPT in psi4, default
}

set PROPERTIES_ORIGIN ["COM"]
properties('MP2/aug-cc-pvtz', properties = ['dipole'])
--------------------------------------------------------------------------

    Molecular point group: c1
  Charge       = -1
  Multiplicity = 1
  Basis Set: AUG-CC-PVTZ
    Blend: AUG-CC-PVTZ
  Basis Set: (AUG-CC-PVTZ AUX)
    Blend: AUG-CC-PVTZ-JKFIT

    Orbital Energies [Eh]
    ---------------------

    Doubly Occupied:

       1A    -91.668169     2A    -11.097038     3A    -11.072728
       4A    -11.063110     5A    -11.061258     6A     -8.668272
       7A     -6.349910     8A     -6.348219     9A     -6.348172
      10A     -0.933349    11A     -0.787162    12A     -0.779673
      13A     -0.636504    14A     -0.575826    15A     -0.474088
      16A     -0.448200    17A     -0.425177    18A     -0.386254
      19A     -0.373432    20A     -0.339889    21A     -0.314666
      22A     -0.305366    23A     -0.233096    24A     -0.094267
      25A     -0.091753

  @DF-RHF Final Energy:  -554.31597877609613

   => Energetics <=

    Nuclear Repulsion Energy =            222.0463113080485584
    One-Electron Energy =               -1210.9734227530466342
    Two-Electron Energy =                 434.6111326689020302
    Total Energy =                       -554.3159787760960171
  Basis Set: (AUG-CC-PVTZ AUX)
    Blend: AUG-CC-PVTZ-RI
    Molecular point group: c1

    Geometry (in Angstrom), charge = -1, multiplicity = 1:

       Center              X                  Y                   Z               Mass
    ------------   -----------------  -----------------  -----------------  -----------------
         S           -1.874924959968    -0.009760841079    -0.082450800643    31.972071174400
         C            0.951089040032     0.004431158921    -0.313417800643    12.000000000000
         C           -0.243116959968    -0.701559841079     0.347552199357    12.000000000000
         C            1.059506040032     1.454036158921     0.143604199357    12.000000000000
         C            2.258515040032    -0.745414841079    -0.049412800643    12.000000000000
         H            0.757175040032     0.002788158921    -1.394683800643     1.007825032230
         H           -0.067695959968    -0.672356841079     1.437510199357     1.007825032230
         H           -0.185258959968    -1.764700841079     0.063031199357     1.007825032230
         H            1.291066040032     1.494274158921     1.216657199357     1.007825032230
         H            1.850879040032     1.994216158921    -0.393543800643     1.007825032230
         H            0.096258040032     1.942847158921    -0.018300800643     1.007825032230
         H            2.486503740032    -0.780834841079     1.125590399357     1.007825032230
         H            3.114410040032    -0.263477841079    -0.540577800643     1.007825032230
         H            2.199655040032    -1.779944841079    -0.407980800643     1.007825032230

  Basis Set: AUG-CC-PVTZ
    Blend: AUG-CC-PVTZ
  Basis Set: (AUG-CC-PVTZ AUX)
    Blend: AUG-CC-PVTZ-JKFIT
	 Reference Energy          =    -554.3159787760961308 [Eh]
	 Singles Energy            =      -0.0000000000000000 [Eh]
	 Same-Spin Energy          =      -0.2315405595989971 [Eh]
	 Opposite-Spin Energy      =      -0.8023056938918768 [Eh]
	 Correlation Energy        =      -1.0338462534908739 [Eh]
	 Total Energy              =    -555.3498250295870093 [Eh]

	 ================> DF-SCS-MP2 Energies <==================
	-----------------------------------------------------------
	 SCS Same-Spin Scale       =       0.3333333333333333 [-]
	 SCS Opposite-Spin Scale   =       1.2000000000000000 [-]
	 SCS Same-Spin Energy      =      -0.0771801865329990 [Eh]
	 SCS Opposite-Spin Energy  =      -0.9627668326702521 [Eh]
	 SCS Correlation Energy    =      -1.0399470192032512 [Eh]
	 SCS Total Energy          =    -555.3559257952994130 [Eh]
	-----------------------------------------------------------

  Dipole Moment: [D]
     X:     7.2622      Y:    -0.1185      Z:     0.2402     Total:     7.2671

*** Psi4 exiting successfully. Buy a developer a beer!
