                               Psi4 1.3.2 release

  ==> Input File <==

--------------------------------------------------------------------------
#psi4
#
memory 32 gb

molecule  {
0 1
  F        1.7125910     1.0842730     0.8512900
  F        3.0044440    -0.0000070    -0.5300430
  F        1.7125860    -1.0842610     0.8513060
  O        0.8682060    -0.0000060    -0.9288170
  C       -0.4678230    -0.0000020    -0.4748910
  C       -1.1126100    -1.2194340    -0.2924640
  C       -1.1126050     1.2194310    -0.2924660
  C       -2.4550330    -1.2105000     0.0899020
  C       -2.4550290     1.2105020     0.0899000
  C       -3.1253970     0.0000030     0.2834000
  C        1.6656955    -0.0000009    -0.0919793
  H       -0.5694030    -2.1450100    -0.4559490
  H       -0.5693960     2.1450060    -0.4559500
  H       -2.9767160    -2.1526390     0.2364750
  H       -2.9767080     2.1526440     0.2364700
  H       -4.1710620     0.0000040     0.5794020
units angstrom
no_reorient  #important for SAPT in psi4, default
symmetry c1  #important for SAPT in psi4, default
}

set PROPERTIES_ORIGIN ["COM"]
properties('MP2/aug-cc-pvtz', properties = ['dipole'])
--------------------------------------------------------------------------

    Molecular point group: c1
  Charge       = 0
  Multiplicity = 1
  Basis Set: AUG-CC-PVTZ
    Blend: AUG-CC-PVTZ
  Basis Set: (AUG-CC-PVTZ AUX)
    Blend: AUG-CC-PVTZ-JKFIT

    Orbital Energies [Eh]
    ---------------------

    Doubly Occupied:

       1A    -26.313578     2A    -26.303767     3A    -26.303742
       4A    -20.681936     5A    -11.558869     6A    -11.347223
       7A    -11.276340     8A    -11.276311     9A    -11.270962
      10A    -11.270629    11A    -11.268492    12A     -1.698596
      13A     -1.587379    14A     -1.578966    15A     -1.576703
      16A     -1.193991    17A     -1.078290    18A     -1.054661
      19A     -0.958914    20A     -0.881549    21A     -0.876791
      22A     -0.827235    23A     -0.811298    24A     -0.804926
      25A     -0.726072    26A     -0.699927    27A     -0.696788
      28A     -0.677210    29A     -0.661601    30A     -0.658873
      31A     -0.630732    32A     -0.625890    33A     -0.621259
      34A     -0.616770    35A     -0.611738    36A     -0.588738
      37A     -0.551823    38A     -0.537558    39A     -0.528310
      40A     -0.374824    41A     -0.370865

  @DF-RHF Final Energy:  -641.35977326748650

   => Energetics <=

    Nuclear Repulsion Energy =            632.0598408402838686
    One-Electron Energy =               -2138.8789731340784783
    Two-Electron Energy =                 865.4593590263081069
    Total Energy =                       -641.3597732674865028
  Basis Set: (AUG-CC-PVTZ AUX)
    Blend: AUG-CC-PVTZ-RI
    Molecular point group: c1

    Geometry (in Angstrom), charge = 0, multiplicity = 1:

       Center              X                  Y                   Z               Mass
    ------------   -----------------  -----------------  -----------------  -----------------
         F            1.614248421191     1.084273041587     0.855618518348    18.998403162730
         F            2.906101421191    -0.000006958413    -0.525714481652    18.998403162730
         F            1.614243421191    -1.084260958413     0.855634518348    18.998403162730
         O            0.769863421191    -0.000005958413    -0.924488481652    15.994914619570
         C           -0.566165578809    -0.000001958413    -0.470562481652    12.000000000000
         C           -1.210952578809    -1.219433958413    -0.288135481652    12.000000000000
         C           -1.210947578809     1.219431041587    -0.288137481652    12.000000000000
         C           -2.553375578809    -1.210499958413     0.094230518348    12.000000000000
         C           -2.553371578809     1.210502041587     0.094228518348    12.000000000000
         C           -3.223739578809     0.000003041587     0.287728518348    12.000000000000
         C            1.567352921191    -0.000000858413    -0.087650781652    12.000000000000
         H           -0.667745578809    -2.145009958413    -0.451620481652     1.007825032230
         H           -0.667738578809     2.145006041587    -0.451621481652     1.007825032230
         H           -3.075058578809    -2.152638958413     0.240803518348     1.007825032230
         H           -3.075050578809     2.152644041587     0.240798518348     1.007825032230
         H           -4.269404578809     0.000004041587     0.583730518348     1.007825032230

  Basis Set: AUG-CC-PVTZ
    Blend: AUG-CC-PVTZ
  Basis Set: (AUG-CC-PVTZ AUX)
    Blend: AUG-CC-PVTZ-JKFIT
	 Reference Energy          =    -641.3597732674865028 [Eh]
	 Singles Energy            =      -0.0000000000000000 [Eh]
	 Same-Spin Energy          =      -0.5875277202377602 [Eh]
	 Opposite-Spin Energy      =      -1.7265384952968217 [Eh]
	 Correlation Energy        =      -2.3140662155345817 [Eh]
	 Total Energy              =    -643.6738394830210837 [Eh]

	 ================> DF-SCS-MP2 Energies <==================
	-----------------------------------------------------------
	 SCS Same-Spin Scale       =       0.3333333333333333 [-]
	 SCS Opposite-Spin Scale   =       1.2000000000000000 [-]
	 SCS Same-Spin Energy      =      -0.1958425734125867 [Eh]
	 SCS Opposite-Spin Energy  =      -2.0718461943561861 [Eh]
	 SCS Correlation Energy    =      -2.2676887677687727 [Eh]
	 SCS Total Energy          =    -643.6274620352552347 [Eh]
	-----------------------------------------------------------

  Dipole Moment: [D]
     X:    -4.8525      Y:    -0.0000      Z:    -1.1290     Total:     4.9821

*** Psi4 exiting successfully. Buy a developer a beer!
