                               Psi4 1.3.2 release

  ==> Input File <==

--------------------------------------------------------------------------
#psi4
#
memory 32 gb

molecule  {
0 1
  F        1.7125910     1.0842730     0.8512900
  F        3.0044440    -0.0000070    -0.5300430
  F        1.7125860    -1.0842610     0.8513060
  O        0.8669414    -0.0492305    -0.9298666
  C       -0.4678230    -0.0000020    -0.4748910
  C       -1.1126100    -1.2194340    -0.2924640
  C       -1.1126050     1.2194310    -0.2924660
  C       -2.4550330    -1.2105000     0.0899020
  C       -2.4550290     1.2105020     0.0899000
  C       -3.1253970     0.0000030     0.2834000
  C        1.8036720     0.0000000     0.0528050
  H       -0.5694030    -2.1450100    -0.4559490
  H       -0.5693960     2.1450060    -0.4559500
  H       -2.9767160    -2.1526390     0.2364750
  H       -2.9767080     2.1526440     0.2364700
  H       -4.1710620     0.0000040     0.5794020
units angstrom
no_reorient  #important for SAPT in psi4, default
symmetry c1  #important for SAPT in psi4, default
}

set PROPERTIES_ORIGIN ["COM"]
properties('MP2/aug-cc-pvtz', properties = ['dipole'])
--------------------------------------------------------------------------

    Molecular point group: c1
  Charge       = 0
  Multiplicity = 1
  Basis Set: AUG-CC-PVTZ
    Blend: AUG-CC-PVTZ
  Basis Set: (AUG-CC-PVTZ AUX)
    Blend: AUG-CC-PVTZ-JKFIT

    Orbital Energies [Eh]
    ---------------------

    Doubly Occupied:

       1A    -26.350517     2A    -26.350078     3A    -26.344879
       4A    -20.633987     5A    -11.567967     6A    -11.320386
       7A    -11.258458     8A    -11.257176     9A    -11.256958
      10A    -11.255578    11A    -11.253347    12A     -1.744197
      13A     -1.647213    14A     -1.641718    15A     -1.460897
      16A     -1.170652    17A     -1.043189    18A     -1.038464
      19A     -0.963241    20A     -0.874175    21A     -0.861490
      22A     -0.839540    23A     -0.837083    24A     -0.800595
      25A     -0.732729    26A     -0.722429    27A     -0.712184
      28A     -0.677036    29A     -0.675185    30A     -0.670965
      31A     -0.660247    32A     -0.657903    33A     -0.642641
      34A     -0.613467    35A     -0.609322    36A     -0.558677
      37A     -0.534460    38A     -0.518112    39A     -0.506432
      40A     -0.357049    41A     -0.354593

  @DF-RHF Final Energy:  -641.42038841124725

   => Energetics <=

    Nuclear Repulsion Energy =            630.8355620453728534
    One-Electron Energy =               -2136.5614732177627957
    Two-Electron Energy =                 864.3055227611426972
    Total Energy =                       -641.4203884112472451
  Basis Set: (AUG-CC-PVTZ AUX)
    Blend: AUG-CC-PVTZ-RI
    Molecular point group: c1

    Geometry (in Angstrom), charge = 0, multiplicity = 1:

       Center              X                  Y                   Z               Mass
    ------------   -----------------  -----------------  -----------------  -----------------
         F            1.604154621224     1.089132231383     0.844999303945    18.998403162730
         F            2.896007621224     0.004852231383    -0.536333696055    18.998403162730
         F            1.604149621224    -1.079401768617     0.845015303945    18.998403162730
         O            0.758505021224    -0.044371268617    -0.936157296055    15.994914619570
         C           -0.576259378776     0.004857231383    -0.481181696055    12.000000000000
         C           -1.221046378776    -1.214574768617    -0.298754696055    12.000000000000
         C           -1.221041378776     1.224290231383    -0.298756696055    12.000000000000
         C           -2.563469378776    -1.205640768617     0.083611303945    12.000000000000
         C           -2.563465378776     1.215361231383     0.083609303945    12.000000000000
         C           -3.233833378776     0.004862231383     0.277109303945    12.000000000000
         C            1.695235621224     0.004859231383     0.046514303945    12.000000000000
         H           -0.677839378776    -2.140150768617    -0.462239696055     1.007825032230
         H           -0.677832378776     2.149865231383    -0.462240696055     1.007825032230
         H           -3.085152378776    -2.147779768617     0.230184303945     1.007825032230
         H           -3.085144378776     2.157503231383     0.230179303945     1.007825032230
         H           -4.279498378776     0.004863231383     0.573111303945     1.007825032230

  Basis Set: AUG-CC-PVTZ
    Blend: AUG-CC-PVTZ
  Basis Set: (AUG-CC-PVTZ AUX)
    Blend: AUG-CC-PVTZ-JKFIT
	 Reference Energy          =    -641.4203884112472451 [Eh]
	 Singles Energy            =      -0.0000000000000000 [Eh]
	 Same-Spin Energy          =      -0.5850080953187884 [Eh]
	 Opposite-Spin Energy      =      -1.7206764340204483 [Eh]
	 Correlation Energy        =      -2.3056845293392367 [Eh]
	 Total Energy              =    -643.7260729405865050 [Eh]

	 ================> DF-SCS-MP2 Energies <==================
	-----------------------------------------------------------
	 SCS Same-Spin Scale       =       0.3333333333333333 [-]
	 SCS Opposite-Spin Scale   =       1.2000000000000000 [-]
	 SCS Same-Spin Energy      =      -0.1950026984395961 [Eh]
	 SCS Opposite-Spin Energy  =      -2.0648117208245380 [Eh]
	 SCS Correlation Energy    =      -2.2598144192641341 [Eh]
	 SCS Total Energy          =    -643.6802028305113481 [Eh]
	-----------------------------------------------------------

  Dipole Moment: [D]
     X:    -2.5260      Y:     0.0887      Z:     0.1341     Total:     2.5311

*** Psi4 exiting successfully. Buy a developer a beer!
