                               Psi4 1.3.2 release

  ==> Input File <==

--------------------------------------------------------------------------
#psi4
#
memory 32 gb

molecule  {
0 1
  F        1.7125910     1.0842730     0.8512900
  F        3.0044440    -0.0000070    -0.5300430
  F        1.7125860    -1.0842610     0.8513060
  O        0.8622370     0.1474278    -0.9223586
  C       -0.4678230    -0.0000020    -0.4748910
  C       -1.1126100    -1.2194340    -0.2924640
  C       -1.1126050     1.2194310    -0.2924660
  C       -2.4550330    -1.2105000     0.0899020
  C       -2.4550290     1.2105020     0.0899000
  C       -3.1253970     0.0000030     0.2834000
  C        1.8036720     0.0000000     0.0528050
  H       -0.5694030    -2.1450100    -0.4559490
  H       -0.5693960     2.1450060    -0.4559500
  H       -2.9767160    -2.1526390     0.2364750
  H       -2.9767080     2.1526440     0.2364700
  H       -4.1710620     0.0000040     0.5794020
units angstrom
no_reorient  #important for SAPT in psi4, default
symmetry c1  #important for SAPT in psi4, default
}

set PROPERTIES_ORIGIN ["COM"]
properties('MP2/aug-cc-pvtz', properties = ['dipole'])
--------------------------------------------------------------------------

    Molecular point group: c1
  Charge       = 0
  Multiplicity = 1
  Basis Set: AUG-CC-PVTZ
    Blend: AUG-CC-PVTZ
  Basis Set: (AUG-CC-PVTZ AUX)
    Blend: AUG-CC-PVTZ-JKFIT

    Orbital Energies [Eh]
    ---------------------

    Doubly Occupied:

       1A    -26.356257     2A    -26.350944     3A    -26.339463
       4A    -20.633875     5A    -11.568563     6A    -11.320218
       7A    -11.260036     8A    -11.257947     9A    -11.255672
      10A    -11.253272    11A    -11.252860    12A     -1.744618
      13A     -1.649145    14A     -1.640678    15A     -1.459235
      16A     -1.170246    17A     -1.042975    18A     -1.038038
      19A     -0.963486    20A     -0.874660    21A     -0.861010
      22A     -0.840856    23A     -0.835160    24A     -0.800189
      25A     -0.732729    26A     -0.723634    27A     -0.711983
      28A     -0.678372    29A     -0.674972    30A     -0.670922
      31A     -0.659944    32A     -0.657873    33A     -0.640553
      34A     -0.613736    35A     -0.608733    36A     -0.558437
      37A     -0.534041    38A     -0.517934    39A     -0.505086
      40A     -0.356988    41A     -0.353676

  @DF-RHF Final Energy:  -641.41523199702954

   => Energetics <=

    Nuclear Repulsion Energy =            630.8279323344052045
    One-Electron Energy =               -2136.5482959704177119
    Two-Electron Energy =                 864.3051316389829708
    Total Energy =                       -641.4152319970295366
  Basis Set: (AUG-CC-PVTZ AUX)
    Blend: AUG-CC-PVTZ-RI
    Molecular point group: c1

    Geometry (in Angstrom), charge = 0, multiplicity = 1:

       Center              X                  Y                   Z               Mass
    ------------   -----------------  -----------------  -----------------  -----------------
         F            1.604619021797     1.069718867858     0.844258142583    18.998403162730
         F            2.896472021797    -0.014561132142    -0.537074857417    18.998403162730
         F            1.604614021797    -1.098815132142     0.844274142583    18.998403162730
         O            0.754265021797     0.132873667858    -0.929390457417    15.994914619570
         C           -0.575794978203    -0.014556132142    -0.481922857417    12.000000000000
         C           -1.220581978203    -1.233988132142    -0.299495857417    12.000000000000
         C           -1.220576978203     1.204876867858    -0.299497857417    12.000000000000
         C           -2.563004978203    -1.225054132142     0.082870142583    12.000000000000
         C           -2.563000978203     1.195947867858     0.082868142583    12.000000000000
         C           -3.233368978203    -0.014551132142     0.276368142583    12.000000000000
         C            1.695700021797    -0.014554132142     0.045773142583    12.000000000000
         H           -0.677374978203    -2.159564132142    -0.462980857417     1.007825032230
         H           -0.677367978203     2.130451867858    -0.462981857417     1.007825032230
         H           -3.084687978203    -2.167193132142     0.229443142583     1.007825032230
         H           -3.084679978203     2.138089867858     0.229438142583     1.007825032230
         H           -4.279033978203    -0.014550132142     0.572370142583     1.007825032230

  Basis Set: AUG-CC-PVTZ
    Blend: AUG-CC-PVTZ
  Basis Set: (AUG-CC-PVTZ AUX)
    Blend: AUG-CC-PVTZ-JKFIT
	 Reference Energy          =    -641.4152319970295366 [Eh]
	 Singles Energy            =      -0.0000000000000000 [Eh]
	 Same-Spin Energy          =      -0.5852466228382713 [Eh]
	 Opposite-Spin Energy      =      -1.7212341543754210 [Eh]
	 Correlation Energy        =      -2.3064807772136922 [Eh]
	 Total Energy              =    -643.7217127742432012 [Eh]

	 ================> DF-SCS-MP2 Energies <==================
	-----------------------------------------------------------
	 SCS Same-Spin Scale       =       0.3333333333333333 [-]
	 SCS Opposite-Spin Scale   =       1.2000000000000000 [-]
	 SCS Same-Spin Energy      =      -0.1950822076127571 [Eh]
	 SCS Opposite-Spin Energy  =      -2.0654809852505052 [Eh]
	 SCS Correlation Energy    =      -2.2605631928632621 [Eh]
	 SCS Total Energy          =    -643.6757951898928241 [Eh]
	-----------------------------------------------------------

  Dipole Moment: [D]
     X:    -2.4766      Y:    -0.2638      Z:     0.1242     Total:     2.4937

*** Psi4 exiting successfully. Buy a developer a beer!
