                               Psi4 1.4a3.dev225

  ==> Input File <==

--------------------------------------------------------------------------
#psi4
#
memory 32 gb

molecule  {
0 1
  F        1.7125910     1.0842730     0.8512900
  F        3.0044440    -0.0000070    -0.5300430
  F        1.7125860    -1.0842610     0.8513060
  O        0.8682060    -0.0000060    -0.9288170
  C       -0.4678230    -0.0000020    -0.4748910
  C       -1.1126100    -1.2194340    -0.2924640
  C       -1.1126050     1.2194310    -0.2924660
  C       -2.4550330    -1.2105000     0.0899020
  C       -2.4550290     1.2105020     0.0899000
  C       -3.1253970     0.0000030     0.2834000
  C        1.7691779    -0.0000002     0.0166089
  H       -0.5694030    -2.1450100    -0.4559490
  H       -0.5693960     2.1450060    -0.4559500
  H       -2.9767160    -2.1526390     0.2364750
  H       -2.9767080     2.1526440     0.2364700
  H       -4.1710620     0.0000040     0.5794020
units angstrom
no_reorient  #important for SAPT in psi4, default
symmetry c1  #important for SAPT in psi4, default
}

set PROPERTIES_ORIGIN ["COM"]
properties('MP2/aug-cc-pvtz', properties = ['dipole'])
--------------------------------------------------------------------------

    Molecular point group: c1
  Charge       = 0
  Multiplicity = 1
  Basis Set: AUG-CC-PVTZ
    Blend: AUG-CC-PVTZ
  Basis Set: (AUG-CC-PVTZ AUX)
    Blend: AUG-CC-PVTZ-JKFIT

    Orbital Energies [Eh]
    ---------------------

    Doubly Occupied:

       1A    -26.341819     2A    -26.337631     3A    -26.337607
       4A    -20.645312     5A    -11.565688     6A    -11.326565
       7A    -11.261695     8A    -11.261680     9A    -11.260129
      10A    -11.259923    11A    -11.256891    12A     -1.730712
      13A     -1.632735    14A     -1.626284    15A     -1.489488
      16A     -1.175910    17A     -1.050765    18A     -1.042209
      19A     -0.958434    20A     -0.877136    21A     -0.865258
      22A     -0.830862    23A     -0.827714    24A     -0.800903
      25A     -0.729986    26A     -0.715396    27A     -0.709578
      28A     -0.677151    29A     -0.668953    30A     -0.665283
      31A     -0.655831    32A     -0.649510    33A     -0.647804
      34A     -0.619170    35A     -0.612685    36A     -0.567470
      37A     -0.538709    38A     -0.522907    39A     -0.512320
      40A     -0.360227    41A     -0.359507

  @DF-RHF Final Energy:  -641.41735362044915

   => Energetics <=

    Nuclear Repulsion Energy =            631.1478481417794910
    One-Electron Energy =               -2137.1787357748971772
    Two-Electron Energy =                 864.6135340126686515
    Total Energy =                       -641.4173536204491484
  Basis Set: (AUG-CC-PVTZ AUX)
    Blend: AUG-CC-PVTZ-RI
    Molecular point group: c1

    Geometry (in Angstrom), charge = 0, multiplicity = 1:

       Center              X                  Y                   Z               Mass
    ------------   -----------------  -----------------  -----------------  -----------------
         F            1.606584441967     1.084272989745     0.847576399991    18.998403162730
         F            2.898437441967    -0.000007010255    -0.533756600009    18.998403162730
         F            1.606579441967    -1.084261010255     0.847592399991    18.998403162730
         O            0.762199441967    -0.000006010255    -0.932530600009    15.994914619570
         C           -0.573829558033    -0.000002010255    -0.478604600009    12.000000000000
         C           -1.218616558033    -1.219434010255    -0.296177600009    12.000000000000
         C           -1.218611558033     1.219430989745    -0.296179600009    12.000000000000
         C           -2.561039558033    -1.210500010255     0.086188399991    12.000000000000
         C           -2.561035558033     1.210501989745     0.086186399991    12.000000000000
         C           -3.231403558033     0.000002989745     0.279686399991    12.000000000000
         C            1.663171341967    -0.000000210255     0.012895299991    12.000000000000
         H           -0.675409558033    -2.145010010255    -0.459662600009     1.007825032230
         H           -0.675402558033     2.145005989745    -0.459663600009     1.007825032230
         H           -3.082722558033    -2.152639010255     0.232761399991     1.007825032230
         H           -3.082714558033     2.152643989745     0.232756399991     1.007825032230
         H           -4.277068558033     0.000003989745     0.575688399991     1.007825032230

  Basis Set: AUG-CC-PVTZ
    Blend: AUG-CC-PVTZ
  Basis Set: (AUG-CC-PVTZ AUX)
    Blend: AUG-CC-PVTZ-JKFIT
	 Reference Energy          =    -641.4173536204491484 [Eh]
	 Singles Energy            =      -0.0000000000000000 [Eh]
	 Same-Spin Energy          =      -0.5852754569626953 [Eh]
	 Opposite-Spin Energy      =      -1.7213605676067862 [Eh]
	 Correlation Energy        =      -2.3066360245694817 [Eh]
	 Total Energy              =    -643.7239896450186052 [Eh]

	 ================> DF-SCS-MP2 Energies <==================
	-----------------------------------------------------------
	 SCS Same-Spin Scale       =       0.3333333333333333 [-]
	 SCS Opposite-Spin Scale   =       1.2000000000000000 [-]
	 SCS Same-Spin Energy      =      -0.1950918189875651 [Eh]
	 SCS Opposite-Spin Energy  =      -2.0656326811281436 [Eh]
	 SCS Correlation Energy    =      -2.2607245001157086 [Eh]
	 SCS Total Energy          =    -643.6780781205648054 [Eh]
	-----------------------------------------------------------

  Dipole Moment: [D]
     X:    -3.0754      Y:     0.0000      Z:    -0.1679     Total:     3.0799

*** Psi4 exiting successfully. Buy a developer a beer!
