                               Psi4 1.3.2 release

  ==> Input File <==

--------------------------------------------------------------------------
#psi4
#
memory 32 gb

molecule  {
0 1
  F        1.7125910     1.0842730     0.8512900
  F        3.0044440    -0.0000070    -0.5300430
  F        1.7125860    -1.0842610     0.8513060
  O        0.8682060    -0.0000060    -0.9288170
  C       -0.4828509    -0.0000023    -0.5217943
  C       -1.1126100    -1.2194340    -0.2924640
  C       -1.1126050     1.2194310    -0.2924660
  C       -2.4550330    -1.2105000     0.0899020
  C       -2.4550290     1.2105020     0.0899000
  C       -3.1253970     0.0000030     0.2834000
  C        1.8036720     0.0000000     0.0528050
  H       -0.5694030    -2.1450100    -0.4559490
  H       -0.5693960     2.1450060    -0.4559500
  H       -2.9767160    -2.1526390     0.2364750
  H       -2.9767080     2.1526440     0.2364700
  H       -4.1710620     0.0000040     0.5794020
units angstrom
no_reorient  #important for SAPT in psi4, default
symmetry c1  #important for SAPT in psi4, default
}

set PROPERTIES_ORIGIN ["COM"]
properties('MP2/aug-cc-pvtz', properties = ['dipole'])
--------------------------------------------------------------------------

    Molecular point group: c1
  Charge       = 0
  Multiplicity = 1
  Basis Set: AUG-CC-PVTZ
    Blend: AUG-CC-PVTZ
  Basis Set: (AUG-CC-PVTZ AUX)
    Blend: AUG-CC-PVTZ-JKFIT

    Orbital Energies [Eh]
    ---------------------

    Doubly Occupied:

       1A    -26.349940     2A    -26.347103     3A    -26.347079
       4A    -20.632068     5A    -11.567983     6A    -11.321438
       7A    -11.257942     8A    -11.257888     9A    -11.256772
      10A    -11.256656    11A    -11.253613    12A     -1.743697
      13A     -1.646598    14A     -1.641328    15A     -1.459798
      16A     -1.171114    17A     -1.044018    18A     -1.038788
      19A     -0.963254    20A     -0.874673    21A     -0.861511
      22A     -0.839107    23A     -0.837294    24A     -0.800455
      25A     -0.732007    26A     -0.721740    27A     -0.712232
      28A     -0.676276    29A     -0.674841    30A     -0.671594
      31A     -0.660342    32A     -0.657514    33A     -0.642101
      34A     -0.612537    35A     -0.609651    36A     -0.558206
      37A     -0.535064    38A     -0.517468    39A     -0.506549
      40A     -0.357252    41A     -0.354873

  @DF-RHF Final Energy:  -641.42068877274062

   => Energetics <=

    Nuclear Repulsion Energy =            630.5298898789608302
    One-Electron Energy =               -2135.9604281749443544
    Two-Electron Energy =                 864.0098495232429059
    Total Energy =                       -641.4206887727406183
  Basis Set: (AUG-CC-PVTZ AUX)
    Blend: AUG-CC-PVTZ-RI
    Molecular point group: c1

    Geometry (in Angstrom), charge = 0, multiplicity = 1:

       Center              X                  Y                   Z               Mass
    ------------   -----------------  -----------------  -----------------  -----------------
         F            1.605142761524     1.084272997151     0.848369382743    18.998403162730
         F            2.896995761524    -0.000007002849    -0.532963617257    18.998403162730
         F            1.605137761524    -1.084261002849     0.848385382743    18.998403162730
         O            0.760757761524    -0.000006002849    -0.931737617257    15.994914619570
         C           -0.590299138476    -0.000002302849    -0.524714917257    12.000000000000
         C           -1.220058238476    -1.219434002849    -0.295384617257    12.000000000000
         C           -1.220053238476     1.219430997151    -0.295386617257    12.000000000000
         C           -2.562481238476    -1.210500002849     0.086981382743    12.000000000000
         C           -2.562477238476     1.210501997151     0.086979382743    12.000000000000
         C           -3.232845238476     0.000002997151     0.280479382743    12.000000000000
         C            1.696223761524    -0.000000002849     0.049884382743    12.000000000000
         H           -0.676851238476    -2.145010002849    -0.458869617257     1.007825032230
         H           -0.676844238476     2.145005997151    -0.458870617257     1.007825032230
         H           -3.084164238476    -2.152639002849     0.233554382743     1.007825032230
         H           -3.084156238476     2.152643997151     0.233549382743     1.007825032230
         H           -4.278510238476     0.000003997151     0.576481382743     1.007825032230

  Basis Set: AUG-CC-PVTZ
    Blend: AUG-CC-PVTZ
  Basis Set: (AUG-CC-PVTZ AUX)
    Blend: AUG-CC-PVTZ-JKFIT
	 Reference Energy          =    -641.4206887727406183 [Eh]
	 Singles Energy            =      -0.0000000000000000 [Eh]
	 Same-Spin Energy          =      -0.5848404607328230 [Eh]
	 Opposite-Spin Energy      =      -1.7202634728035993 [Eh]
	 Correlation Energy        =      -2.3051039335364223 [Eh]
	 Total Energy              =    -643.7257927062770477 [Eh]

	 ================> DF-SCS-MP2 Energies <==================
	-----------------------------------------------------------
	 SCS Same-Spin Scale       =       0.3333333333333333 [-]
	 SCS Opposite-Spin Scale   =       1.2000000000000000 [-]
	 SCS Same-Spin Energy      =      -0.1949468202442743 [Eh]
	 SCS Opposite-Spin Energy  =      -2.0643161673643191 [Eh]
	 SCS Correlation Energy    =      -2.2592629876085937 [Eh]
	 SCS Total Energy          =    -643.6799517603492404 [Eh]
	-----------------------------------------------------------

  Dipole Moment: [D]
     X:    -2.5644      Y:     0.0000      Z:     0.1316     Total:     2.5678

*** Psi4 exiting successfully. Buy a developer a beer!
