                               Psi4 1.4a3.dev225

  ==> Input File <==

--------------------------------------------------------------------------
#psi4
#
memory 32 gb

molecule  {
0 1
  F        1.7125910     1.0842730     0.8512900
  F        3.0044440    -0.0000070    -0.5300430
  F        1.7125860    -1.0842610     0.8513060
  O        0.8682060    -0.0000060    -0.9288170
  C       -0.4867599    -0.0000019    -0.4684571
  C       -1.1126100    -1.2194340    -0.2924640
  C       -1.1126050     1.2194310    -0.2924660
  C       -2.4550330    -1.2105000     0.0899020
  C       -2.4550290     1.2105020     0.0899000
  C       -3.1253970     0.0000030     0.2834000
  C        1.8036720     0.0000000     0.0528050
  H       -0.5694030    -2.1450100    -0.4559490
  H       -0.5693960     2.1450060    -0.4559500
  H       -2.9767160    -2.1526390     0.2364750
  H       -2.9767080     2.1526440     0.2364700
  H       -4.1710620     0.0000040     0.5794020
units angstrom
no_reorient  #important for SAPT in psi4, default
symmetry c1  #important for SAPT in psi4, default
}

set PROPERTIES_ORIGIN ["COM"]
properties('MP2/aug-cc-pvtz', properties = ['dipole'])
--------------------------------------------------------------------------

    Molecular point group: c1
  Charge       = 0
  Multiplicity = 1
  Basis Set: AUG-CC-PVTZ
    Blend: AUG-CC-PVTZ
  Basis Set: (AUG-CC-PVTZ AUX)
    Blend: AUG-CC-PVTZ-JKFIT

    Orbital Energies [Eh]
    ---------------------

    Doubly Occupied:

       1A    -26.348298     2A    -26.346004     3A    -26.345980
       4A    -20.630777     5A    -11.565492     6A    -11.320157
       7A    -11.258358     8A    -11.258249     9A    -11.256833
      10A    -11.256785    11A    -11.254028    12A     -1.742464
      13A     -1.645312    14A     -1.640371    15A     -1.454119
      16A     -1.173931    17A     -1.043438    18A     -1.040747
      19A     -0.961341    20A     -0.871236    21A     -0.862471
      22A     -0.837242    23A     -0.836714    24A     -0.800443
      25A     -0.731710    26A     -0.720724    27A     -0.712243
      28A     -0.675094    29A     -0.673890    30A     -0.668800
      31A     -0.660324    32A     -0.656437    33A     -0.641457
      34A     -0.611689    35A     -0.610701    36A     -0.556595
      37A     -0.533990    38A     -0.520455    39A     -0.510012
      40A     -0.358215    41A     -0.357153

  @DF-RHF Final Energy:  -641.42073315851576

   => Energetics <=

    Nuclear Repulsion Energy =            630.8225454381065447
    One-Electron Energy =               -2136.5859995627856733
    Two-Electron Energy =                 864.3427209661633697
    Total Energy =                       -641.4207331585157590
  Basis Set: (AUG-CC-PVTZ AUX)
    Blend: AUG-CC-PVTZ-RI
    Molecular point group: c1

    Geometry (in Angstrom), charge = 0, multiplicity = 1:

       Center              X                  Y                   Z               Mass
    ------------   -----------------  -----------------  -----------------  -----------------
         F            1.605432264809     1.084272967527     0.844419192250    18.998403162730
         F            2.897285264809    -0.000007032473    -0.536913807750    18.998403162730
         F            1.605427264809    -1.084261032473     0.844435192250    18.998403162730
         O            0.761047264809    -0.000006032473    -0.935687807750    15.994914619570
         C           -0.593918635191    -0.000001932473    -0.475327907750    12.000000000000
         C           -1.219768735191    -1.219434032473    -0.299334807750    12.000000000000
         C           -1.219763735191     1.219430967527    -0.299336807750    12.000000000000
         C           -2.562191735191    -1.210500032473     0.083031192250    12.000000000000
         C           -2.562187735191     1.210501967527     0.083029192250    12.000000000000
         C           -3.232555735191     0.000002967527     0.276529192250    12.000000000000
         C            1.696513264809    -0.000000032473     0.045934192250    12.000000000000
         H           -0.676561735191    -2.145010032473    -0.462819807750     1.007825032230
         H           -0.676554735191     2.145005967527    -0.462820807750     1.007825032230
         H           -3.083874735191    -2.152639032473     0.229604192250     1.007825032230
         H           -3.083866735191     2.152643967527     0.229599192250     1.007825032230
         H           -4.278220735191     0.000003967527     0.572531192250     1.007825032230

  Basis Set: AUG-CC-PVTZ
    Blend: AUG-CC-PVTZ
  Basis Set: (AUG-CC-PVTZ AUX)
    Blend: AUG-CC-PVTZ-JKFIT
	 Reference Energy          =    -641.4207331585157590 [Eh]
	 Singles Energy            =      -0.0000000000000000 [Eh]
	 Same-Spin Energy          =      -0.5849212075305940 [Eh]
	 Opposite-Spin Energy      =      -1.7205416707298831 [Eh]
	 Correlation Energy        =      -2.3054628782604771 [Eh]
	 Total Energy              =    -643.7261960367762867 [Eh]

	 ================> DF-SCS-MP2 Energies <==================
	-----------------------------------------------------------
	 SCS Same-Spin Scale       =       0.3333333333333333 [-]
	 SCS Opposite-Spin Scale   =       1.2000000000000000 [-]
	 SCS Same-Spin Energy      =      -0.1949737358435313 [Eh]
	 SCS Opposite-Spin Energy  =      -2.0646500048758596 [Eh]
	 SCS Correlation Energy    =      -2.2596237407193911 [Eh]
	 SCS Total Energy          =    -643.6803568992351074 [Eh]
	-----------------------------------------------------------

  Dipole Moment: [D]
     X:    -2.6547      Y:     0.0000      Z:     0.1430     Total:     2.6585

*** Psi4 exiting successfully. Buy a developer a beer!
