                               Psi4 1.3.2 release

  ==> Input File <==

--------------------------------------------------------------------------
#psi4
#
memory 32 gb

molecule  {
0 1
  F        1.7491164     1.0679839     0.8761859
  F        3.0044440    -0.0000070    -0.5300430
  F        1.7125860    -1.0842610     0.8513060
  O        0.8682060    -0.0000060    -0.9288170
  C       -0.4678230    -0.0000020    -0.4748910
  C       -1.1126100    -1.2194340    -0.2924640
  C       -1.1126050     1.2194310    -0.2924660
  C       -2.4550330    -1.2105000     0.0899020
  C       -2.4550290     1.2105020     0.0899000
  C       -3.1253970     0.0000030     0.2834000
  C        1.8036720     0.0000000     0.0528050
  H       -0.5694030    -2.1450100    -0.4559490
  H       -0.5693960     2.1450060    -0.4559500
  H       -2.9767160    -2.1526390     0.2364750
  H       -2.9767080     2.1526440     0.2364700
  H       -4.1710620     0.0000040     0.5794020
units angstrom
no_reorient  #important for SAPT in psi4, default
symmetry c1  #important for SAPT in psi4, default
}

set PROPERTIES_ORIGIN ["COM"]
properties('MP2/aug-cc-pvtz', properties = ['dipole'])
--------------------------------------------------------------------------

    Molecular point group: c1
  Charge       = 0
  Multiplicity = 1
  Basis Set: AUG-CC-PVTZ
    Blend: AUG-CC-PVTZ
  Basis Set: (AUG-CC-PVTZ AUX)
    Blend: AUG-CC-PVTZ-JKFIT

    Orbital Energies [Eh]
    ---------------------

    Doubly Occupied:

       1A    -26.348031     2A    -26.346643     3A    -26.345413
       4A    -20.636412     5A    -11.567174     6A    -11.321356
       7A    -11.258403     8A    -11.258311     9A    -11.257231
      10A    -11.257083    11A    -11.254016    12A     -1.743867
      13A     -1.645359    14A     -1.639531    15A     -1.463487
      16A     -1.171431    17A     -1.043940    18A     -1.039172
      19A     -0.962976    20A     -0.875063    21A     -0.861953
      22A     -0.838339    23A     -0.835912    24A     -0.801153
      25A     -0.732987    26A     -0.720592    27A     -0.712071
      28A     -0.675784    29A     -0.673376    30A     -0.670923
      31A     -0.660164    32A     -0.655684    33A     -0.644280
      34A     -0.614511    35A     -0.610051    36A     -0.560167
      37A     -0.535216    38A     -0.518885    39A     -0.507588
      40A     -0.357669    41A     -0.355491

  @DF-RHF Final Energy:  -641.42104523062983

   => Energetics <=

    Nuclear Repulsion Energy =            630.4790869438716072
    One-Electron Energy =               -2135.8448802307393635
    Two-Electron Energy =                 863.9447480562379269
    Total Energy =                       -641.4210452306298293
  Basis Set: (AUG-CC-PVTZ AUX)
    Blend: AUG-CC-PVTZ-RI
    Molecular point group: c1

    Geometry (in Angstrom), charge = 0, multiplicity = 1:

       Center              X                  Y                   Z               Mass
    ------------   -----------------  -----------------  -----------------  -----------------
         F            1.636272474764     1.069893819528     0.866872474346    18.998403162730
         F            2.891600074764     0.001902919528    -0.539356425654    18.998403162730
         F            1.599742074764    -1.082351080472     0.841992574346    18.998403162730
         O            0.755362074764     0.001903919528    -0.938130425654    15.994914619570
         C           -0.580666925236     0.001907919528    -0.484204425654    12.000000000000
         C           -1.225453925236    -1.217524080472    -0.301777425654    12.000000000000
         C           -1.225448925236     1.221340919528    -0.301779425654    12.000000000000
         C           -2.567876925236    -1.208590080472     0.080588574346    12.000000000000
         C           -2.567872925236     1.212411919528     0.080586574346    12.000000000000
         C           -3.238240925236     0.001912919528     0.274086574346    12.000000000000
         C            1.690828074764     0.001909919528     0.043491574346    12.000000000000
         H           -0.682246925236    -2.143100080472    -0.465262425654     1.007825032230
         H           -0.682239925236     2.146915919528    -0.465263425654     1.007825032230
         H           -3.089559925236    -2.150729080472     0.227161574346     1.007825032230
         H           -3.089551925236     2.154553919528     0.227156574346     1.007825032230
         H           -4.283905925236     0.001913919528     0.570088574346     1.007825032230

  Basis Set: AUG-CC-PVTZ
    Blend: AUG-CC-PVTZ
  Basis Set: (AUG-CC-PVTZ AUX)
    Blend: AUG-CC-PVTZ-JKFIT
	 Reference Energy          =    -641.4210452306298293 [Eh]
	 Singles Energy            =      -0.0000000000000000 [Eh]
	 Same-Spin Energy          =      -0.5849086358377797 [Eh]
	 Opposite-Spin Energy      =      -1.7204479530412979 [Eh]
	 Correlation Energy        =      -2.3053565888790777 [Eh]
	 Total Energy              =    -643.7264018195088511 [Eh]

	 ================> DF-SCS-MP2 Energies <==================
	-----------------------------------------------------------
	 SCS Same-Spin Scale       =       0.3333333333333333 [-]
	 SCS Opposite-Spin Scale   =       1.2000000000000000 [-]
	 SCS Same-Spin Energy      =      -0.1949695452792599 [Eh]
	 SCS Opposite-Spin Energy  =      -2.0645375436495574 [Eh]
	 SCS Correlation Energy    =      -2.2595070889288174 [Eh]
	 SCS Total Energy          =    -643.6805523195586147 [Eh]
	-----------------------------------------------------------

  Dipole Moment: [D]
     X:    -2.6300      Y:     0.0120      Z:     0.0883     Total:     2.6315

*** Psi4 exiting successfully. Buy a developer a beer!
