                               Psi4 1.3.2 release

  ==> Input File <==

--------------------------------------------------------------------------
#psi4
#
memory 32 gb

molecule  {
0 1
  F        1.6943671     1.0919233     0.8384753
  F        3.0044440    -0.0000070    -0.5300430
  F        1.7125860    -1.0842610     0.8513060
  O        0.8682060    -0.0000060    -0.9288170
  C       -0.4678230    -0.0000020    -0.4748910
  C       -1.1126100    -1.2194340    -0.2924640
  C       -1.1126050     1.2194310    -0.2924660
  C       -2.4550330    -1.2105000     0.0899020
  C       -2.4550290     1.2105020     0.0899000
  C       -3.1253970     0.0000030     0.2834000
  C        1.8036720     0.0000000     0.0528050
  H       -0.5694030    -2.1450100    -0.4559490
  H       -0.5693960     2.1450060    -0.4559500
  H       -2.9767160    -2.1526390     0.2364750
  H       -2.9767080     2.1526440     0.2364700
  H       -4.1710620     0.0000040     0.5794020
units angstrom
no_reorient  #important for SAPT in psi4, default
symmetry c1  #important for SAPT in psi4, default
}

set PROPERTIES_ORIGIN ["COM"]
properties('MP2/aug-cc-pvtz', properties = ['dipole'])
--------------------------------------------------------------------------

    Molecular point group: c1
  Charge       = 0
  Multiplicity = 1
  Basis Set: AUG-CC-PVTZ
    Blend: AUG-CC-PVTZ
  Basis Set: (AUG-CC-PVTZ AUX)
    Blend: AUG-CC-PVTZ-JKFIT

    Orbital Energies [Eh]
    ---------------------

    Doubly Occupied:

       1A    -26.350755     2A    -26.348459     3A    -26.347794
       4A    -20.632660     5A    -11.567914     6A    -11.320136
       7A    -11.257461     8A    -11.257391     9A    -11.256279
      10A    -11.256160    11A    -11.253162    12A     -1.744224
      13A     -1.647512    14A     -1.642832    15A     -1.460807
      16A     -1.170496    17A     -1.043198    18A     -1.038266
      19A     -0.963176    20A     -0.873919    21A     -0.861474
      22A     -0.839804    23A     -0.838092    24A     -0.800348
      25A     -0.732569    26A     -0.722997    27A     -0.712256
      28A     -0.677370    29A     -0.676104    30A     -0.671002
      31A     -0.660315    32A     -0.658602    33A     -0.642277
      34A     -0.612904    35A     -0.609136    36A     -0.558085
      37A     -0.534281    38A     -0.517812    39A     -0.506217
      40A     -0.356806    41A     -0.354413

  @DF-RHF Final Energy:  -641.42096510240890

   => Energetics <=

    Nuclear Repulsion Energy =            631.1210262614700923
    One-Electron Energy =               -2137.1330462872920180
    Two-Electron Energy =                 864.5910549234131395
    Total Energy =                       -641.4209651024088998
  Basis Set: (AUG-CC-PVTZ AUX)
    Blend: AUG-CC-PVTZ-RI
    Molecular point group: c1

    Geometry (in Angstrom), charge = 0, multiplicity = 1:

       Center              X                  Y                   Z               Mass
    ------------   -----------------  -----------------  -----------------  -----------------
         F            1.587942690247     1.091026254892     0.833583552441    18.998403162730
         F            2.898019590247    -0.000904045108    -0.534934747559    18.998403162730
         F            1.606161590247    -1.085158045108     0.846414252441    18.998403162730
         O            0.761781590247    -0.000903045108    -0.933708747559    15.994914619570
         C           -0.574247409753    -0.000899045108    -0.479782747559    12.000000000000
         C           -1.219034409753    -1.220331045108    -0.297355747559    12.000000000000
         C           -1.219029409753     1.218533954892    -0.297357747559    12.000000000000
         C           -2.561457409753    -1.211397045108     0.085010252441    12.000000000000
         C           -2.561453409753     1.209604954892     0.085008252441    12.000000000000
         C           -3.231821409753    -0.000894045108     0.278508252441    12.000000000000
         C            1.697247590247    -0.000897045108     0.047913252441    12.000000000000
         H           -0.675827409753    -2.145907045108    -0.460840747559     1.007825032230
         H           -0.675820409753     2.144108954892    -0.460841747559     1.007825032230
         H           -3.083140409753    -2.153536045108     0.231583252441     1.007825032230
         H           -3.083132409753     2.151746954892     0.231578252441     1.007825032230
         H           -4.277486409753    -0.000893045108     0.574510252441     1.007825032230

  Basis Set: AUG-CC-PVTZ
    Blend: AUG-CC-PVTZ
  Basis Set: (AUG-CC-PVTZ AUX)
    Blend: AUG-CC-PVTZ-JKFIT
	 Reference Energy          =    -641.4209651024088998 [Eh]
	 Singles Energy            =      -0.0000000000000000 [Eh]
	 Same-Spin Energy          =      -0.5849908922373044 [Eh]
	 Opposite-Spin Energy      =      -1.7205863826123766 [Eh]
	 Correlation Energy        =      -2.3055772748496812 [Eh]
	 Total Energy              =    -643.7265423772586246 [Eh]

	 ================> DF-SCS-MP2 Energies <==================
	-----------------------------------------------------------
	 SCS Same-Spin Scale       =       0.3333333333333333 [-]
	 SCS Opposite-Spin Scale   =       1.2000000000000000 [-]
	 SCS Same-Spin Energy      =      -0.1949969640791014 [Eh]
	 SCS Opposite-Spin Energy  =      -2.0647036591348518 [Eh]
	 SCS Correlation Energy    =      -2.2597006232139534 [Eh]
	 SCS Total Energy          =    -643.6806657256228164 [Eh]
	-----------------------------------------------------------

  Dipole Moment: [D]
     X:    -2.4948      Y:    -0.0055      Z:     0.1517     Total:     2.4994

*** Psi4 exiting successfully. Buy a developer a beer!
