                               Psi4 1.3.2 release

  ==> Input File <==

--------------------------------------------------------------------------
#psi4
#
memory 32 gb

molecule  {
0 1
  F        1.6038579     1.1251429     0.7708926
  F        3.0044440    -0.0000070    -0.5300430
  F        1.7125860    -1.0842610     0.8513060
  O        0.8682060    -0.0000060    -0.9288170
  C       -0.4678230    -0.0000020    -0.4748910
  C       -1.1126100    -1.2194340    -0.2924640
  C       -1.1126050     1.2194310    -0.2924660
  C       -2.4550330    -1.2105000     0.0899020
  C       -2.4550290     1.2105020     0.0899000
  C       -3.1253970     0.0000030     0.2834000
  C        1.8036720     0.0000000     0.0528050
  H       -0.5694030    -2.1450100    -0.4559490
  H       -0.5693960     2.1450060    -0.4559500
  H       -2.9767160    -2.1526390     0.2364750
  H       -2.9767080     2.1526440     0.2364700
  H       -4.1710620     0.0000040     0.5794020
units angstrom
no_reorient  #important for SAPT in psi4, default
symmetry c1  #important for SAPT in psi4, default
}

set PROPERTIES_ORIGIN ["COM"]
properties('MP2/aug-cc-pvtz', properties = ['dipole'])
--------------------------------------------------------------------------

    Molecular point group: c1
  Charge       = 0
  Multiplicity = 1
  Basis Set: AUG-CC-PVTZ
    Blend: AUG-CC-PVTZ
  Basis Set: (AUG-CC-PVTZ AUX)
    Blend: AUG-CC-PVTZ-JKFIT

    Orbital Energies [Eh]
    ---------------------

    Doubly Occupied:

       1A    -26.355220     2A    -26.353425     3A    -26.348939
       4A    -20.626046     5A    -11.569216     6A    -11.318013
       7A    -11.255951     8A    -11.255746     9A    -11.254718
      10A    -11.254419    11A    -11.251685    12A     -1.745162
      13A     -1.651342    14A     -1.647787    15A     -1.455947
      16A     -1.168903    17A     -1.042010    18A     -1.036715
      19A     -0.963406    20A     -0.872166    21A     -0.860738
      22A     -0.843571    23A     -0.839845    24A     -0.799008
      25A     -0.733259    26A     -0.725955    27A     -0.712540
      28A     -0.681802    29A     -0.680488    30A     -0.670110
      31A     -0.664047    32A     -0.658220    33A     -0.638348
      34A     -0.609792    35A     -0.607438    36A     -0.554240
      37A     -0.532659    38A     -0.515930    39A     -0.503691
      40A     -0.355331    41A     -0.352515

  @DF-RHF Final Energy:  -641.41720337996060

   => Energetics <=

    Nuclear Repulsion Energy =            632.3719039781897209
    One-Electron Energy =               -2139.6455255631231012
    Two-Electron Energy =                 865.8564182049727833
    Total Energy =                       -641.4172033799605970
  Basis Set: (AUG-CC-PVTZ AUX)
    Blend: AUG-CC-PVTZ-RI
    Molecular point group: c1

    Geometry (in Angstrom), charge = 0, multiplicity = 1:

       Center              X                  Y                   Z               Mass
    ------------   -----------------  -----------------  -----------------  -----------------
         F            1.508045958547     1.120350759676     0.773925121591    18.998403162730
         F            2.908632058547    -0.004799140324    -0.527010478409    18.998403162730
         F            1.616774058547    -1.089053140324     0.854338521591    18.998403162730
         O            0.772394058547    -0.004798140324    -0.925784478409    15.994914619570
         C           -0.563634941453    -0.004794140324    -0.471858478409    12.000000000000
         C           -1.208421941453    -1.224226140324    -0.289431478409    12.000000000000
         C           -1.208416941453     1.214638859676    -0.289433478409    12.000000000000
         C           -2.550844941453    -1.215292140324     0.092934521591    12.000000000000
         C           -2.550840941453     1.205709859676     0.092932521591    12.000000000000
         C           -3.221208941453    -0.004789140324     0.286432521591    12.000000000000
         C            1.707860058547    -0.004792140324     0.055837521591    12.000000000000
         H           -0.665214941453    -2.149802140324    -0.452916478409     1.007825032230
         H           -0.665207941453     2.140213859676    -0.452917478409     1.007825032230
         H           -3.072527941453    -2.157431140324     0.239507521591     1.007825032230
         H           -3.072519941453     2.147851859676     0.239502521591     1.007825032230
         H           -4.266873941453    -0.004788140324     0.582434521591     1.007825032230

  Basis Set: AUG-CC-PVTZ
    Blend: AUG-CC-PVTZ
  Basis Set: (AUG-CC-PVTZ AUX)
    Blend: AUG-CC-PVTZ-JKFIT
	 Reference Energy          =    -641.4172033799605970 [Eh]
	 Singles Energy            =      -0.0000000000000000 [Eh]
	 Same-Spin Energy          =      -0.5852428025037364 [Eh]
	 Opposite-Spin Energy      =      -1.7210245189278033 [Eh]
	 Correlation Energy        =      -2.3062673214315397 [Eh]
	 Total Energy              =    -643.7234707013921025 [Eh]

	 ================> DF-SCS-MP2 Energies <==================
	-----------------------------------------------------------
	 SCS Same-Spin Scale       =       0.3333333333333333 [-]
	 SCS Opposite-Spin Scale   =       1.2000000000000000 [-]
	 SCS Same-Spin Energy      =      -0.1950809341679121 [Eh]
	 SCS Opposite-Spin Energy  =      -2.0652294227133638 [Eh]
	 SCS Correlation Energy    =      -2.2603103568812761 [Eh]
	 SCS Total Energy          =    -643.6775137368418882 [Eh]
	-----------------------------------------------------------

  Dipole Moment: [D]
     X:    -2.2654      Y:    -0.0275      Z:     0.2626     Total:     2.2807

*** Psi4 exiting successfully. Buy a developer a beer!
