                               Psi4 1.3.2 release

  ==> Input File <==

--------------------------------------------------------------------------
#psi4
#
memory 32 gb

molecule  {
0 1
  F        1.7125910     1.0842730     0.8512900
  F        3.0044440    -0.0000070    -0.5300430
  F        1.7125860    -1.0842610     0.8513060
  O        0.8682279     0.0246100    -0.9280847
  C       -0.4678230    -0.0000020    -0.4748910
  C       -1.1126100    -1.2194340    -0.2924640
  C       -1.1126050     1.2194310    -0.2924660
  C       -2.4550330    -1.2105000     0.0899020
  C       -2.4550290     1.2105020     0.0899000
  C       -3.1253970     0.0000030     0.2834000
  C        1.8036720     0.0000000     0.0528050
  H       -0.5694030    -2.1450100    -0.4559490
  H       -0.5693960     2.1450060    -0.4559500
  H       -2.9767160    -2.1526390     0.2364750
  H       -2.9767080     2.1526440     0.2364700
  H       -4.1710620     0.0000040     0.5794020
units angstrom
no_reorient  #important for SAPT in psi4, default
symmetry c1  #important for SAPT in psi4, default
}

set PROPERTIES_ORIGIN ["COM"]
properties('MP2/aug-cc-pvtz', properties = ['dipole'])
--------------------------------------------------------------------------

    Molecular point group: c1
  Charge       = 0
  Multiplicity = 1
  Basis Set: AUG-CC-PVTZ
    Blend: AUG-CC-PVTZ
  Basis Set: (AUG-CC-PVTZ AUX)
    Blend: AUG-CC-PVTZ-JKFIT

    Orbital Energies [Eh]
    ---------------------

    Doubly Occupied:

       1A    -26.349848     2A    -26.348813     3A    -26.345981
       4A    -20.633905     5A    -11.567626     6A    -11.320578
       7A    -11.258132     8A    -11.257398     9A    -11.256905
      10A    -11.256128    11A    -11.253447    12A     -1.744087
      13A     -1.646838    14A     -1.641666    15A     -1.461818
      16A     -1.170824    17A     -1.043494    18A     -1.038570
      19A     -0.963098    20A     -0.874358    21A     -0.861635
      22A     -0.839324    23A     -0.837364    24A     -0.800596
      25A     -0.732648    26A     -0.722245    27A     -0.712191
      28A     -0.676772    29A     -0.675108    30A     -0.671086
      31A     -0.660236    32A     -0.657715    33A     -0.642932
      34A     -0.613481    35A     -0.609438    36A     -0.558810
      37A     -0.534603    38A     -0.518181    39A     -0.506660
      40A     -0.357107    41A     -0.354763

  @DF-RHF Final Energy:  -641.42103888333872

   => Energetics <=

    Nuclear Repulsion Energy =            630.9132215486212090
    One-Electron Energy =               -2136.7157015124912505
    Two-Electron Energy =                 864.3814410805314310
    Total Energy =                       -641.4210388833387242
  Basis Set: (AUG-CC-PVTZ AUX)
    Blend: AUG-CC-PVTZ-RI
    Molecular point group: c1

    Geometry (in Angstrom), charge = 0, multiplicity = 1:

       Center              X                  Y                   Z               Mass
    ------------   -----------------  -----------------  -----------------  -----------------
         F            1.604027622810     1.081842976521     0.844823401517    18.998403162730
         F            2.895880622810    -0.002437023479    -0.536509598483    18.998403162730
         F            1.604022622810    -1.086691023479     0.844839401517    18.998403162730
         O            0.759664522810     0.022179976521    -0.934551298483    15.994914619570
         C           -0.576386377190    -0.002432023479    -0.481357598483    12.000000000000
         C           -1.221173377190    -1.221864023479    -0.298930598483    12.000000000000
         C           -1.221168377190     1.217000976521    -0.298932598483    12.000000000000
         C           -2.563596377190    -1.212930023479     0.083435401517    12.000000000000
         C           -2.563592377190     1.208071976521     0.083433401517    12.000000000000
         C           -3.233960377190    -0.002427023479     0.276933401517    12.000000000000
         C            1.695108622810    -0.002430023479     0.046338401517    12.000000000000
         H           -0.677966377190    -2.147440023479    -0.462415598483     1.007825032230
         H           -0.677959377190     2.142575976521    -0.462416598483     1.007825032230
         H           -3.085279377190    -2.155069023479     0.230008401517     1.007825032230
         H           -3.085271377190     2.150213976521     0.230003401517     1.007825032230
         H           -4.279625377190    -0.002426023479     0.572935401517     1.007825032230

  Basis Set: AUG-CC-PVTZ
    Blend: AUG-CC-PVTZ
  Basis Set: (AUG-CC-PVTZ AUX)
    Blend: AUG-CC-PVTZ-JKFIT
	 Reference Energy          =    -641.4210388833387242 [Eh]
	 Singles Energy            =      -0.0000000000000000 [Eh]
	 Same-Spin Energy          =      -0.5849602455671711 [Eh]
	 Opposite-Spin Energy      =      -1.7205284802681629 [Eh]
	 Correlation Energy        =      -2.3054887258353340 [Eh]
	 Total Energy              =    -643.7265276091740134 [Eh]

	 ================> DF-SCS-MP2 Energies <==================
	-----------------------------------------------------------
	 SCS Same-Spin Scale       =       0.3333333333333333 [-]
	 SCS Opposite-Spin Scale   =       1.2000000000000000 [-]
	 SCS Same-Spin Energy      =      -0.1949867485223903 [Eh]
	 SCS Opposite-Spin Energy  =      -2.0646341763217952 [Eh]
	 SCS Correlation Energy    =      -2.2596209248441856 [Eh]
	 SCS Total Energy          =    -643.6806598081828952 [Eh]
	-----------------------------------------------------------

  Dipole Moment: [D]
     X:    -2.5405      Y:    -0.0444      Z:     0.1287     Total:     2.5442

*** Psi4 exiting successfully. Buy a developer a beer!
