                               Psi4 1.3.2 release

  ==> Input File <==

--------------------------------------------------------------------------
#psi4
#
memory 32 gb

molecule  {
0 1
  F        1.7125910     1.0842730     0.8512900
  F        3.0044440    -0.0000070    -0.5300430
  F        1.7125860    -1.0842610     0.8513060
  O        0.8682060    -0.0000060    -0.9288170
  C       -0.6571915    -0.0000014    -0.4105516
  C       -1.1126100    -1.2194340    -0.2924640
  C       -1.1126050     1.2194310    -0.2924660
  C       -2.4550330    -1.2105000     0.0899020
  C       -2.4550290     1.2105020     0.0899000
  C       -3.1253970     0.0000030     0.2834000
  C        1.8036720     0.0000000     0.0528050
  H       -0.5694030    -2.1450100    -0.4559490
  H       -0.5693960     2.1450060    -0.4559500
  H       -2.9767160    -2.1526390     0.2364750
  H       -2.9767080     2.1526440     0.2364700
  H       -4.1710620     0.0000040     0.5794020
units angstrom
no_reorient  #important for SAPT in psi4, default
symmetry c1  #important for SAPT in psi4, default
}

set PROPERTIES_ORIGIN ["COM"]
properties('MP2/aug-cc-pvtz', properties = ['dipole'])
--------------------------------------------------------------------------

    Molecular point group: c1
  Charge       = 0
  Multiplicity = 1
  Basis Set: AUG-CC-PVTZ
    Blend: AUG-CC-PVTZ
  Basis Set: (AUG-CC-PVTZ AUX)
    Blend: AUG-CC-PVTZ-JKFIT

    Orbital Energies [Eh]
    ---------------------

    Doubly Occupied:

       1A    -26.332582     2A    -26.332337     3A    -26.332313
       4A    -20.596367     5A    -11.544618     6A    -11.322786
       7A    -11.267422     8A    -11.267343     9A    -11.259515
      10A    -11.259284    11A    -11.259221    12A     -1.727209
      13A     -1.630852    14A     -1.627285    15A     -1.395426
      16A     -1.205818    17A     -1.065480    18A     -1.047745
      19A     -0.943402    20A     -0.875652    21A     -0.851326
      22A     -0.824517    23A     -0.822182    24A     -0.791583
      25A     -0.732252    26A     -0.706827    27A     -0.705876
      28A     -0.679262    29A     -0.661514    30A     -0.658960
      31A     -0.656584    32A     -0.643419    33A     -0.627313
      34A     -0.626515    35A     -0.585747    36A     -0.546986
      37A     -0.545450    38A     -0.516537    39A     -0.510339
      40A     -0.375742    41A     -0.370205

  @DF-RHF Final Energy:  -641.38205253673937

   => Energetics <=

    Nuclear Repulsion Energy =            630.4545039692859518
    One-Electron Energy =               -2136.2095320779149006
    Two-Electron Energy =                 864.3729755718895831
    Total Energy =                       -641.3820525367393657
  Basis Set: (AUG-CC-PVTZ AUX)
    Blend: AUG-CC-PVTZ-RI
    Molecular point group: c1

    Geometry (in Angstrom), charge = 0, multiplicity = 1:

       Center              X                  Y                   Z               Mass
    ------------   -----------------  -----------------  -----------------  -----------------
         F            1.618054548805     1.084272930496     0.840130670251    18.998403162730
         F            2.909907548805    -0.000007069504    -0.541202329749    18.998403162730
         F            1.618049548805    -1.084261069504     0.840146670251    18.998403162730
         O            0.773669548805    -0.000006069504    -0.939976329749    15.994914619570
         C           -0.751727951195    -0.000001469504    -0.421710929749    12.000000000000
         C           -1.207146451195    -1.219434069504    -0.303623329749    12.000000000000
         C           -1.207141451195     1.219430930496    -0.303625329749    12.000000000000
         C           -2.549569451195    -1.210500069504     0.078742670251    12.000000000000
         C           -2.549565451195     1.210501930496     0.078740670251    12.000000000000
         C           -3.219933451195     0.000002930496     0.272240670251    12.000000000000
         C            1.709135548805    -0.000000069504     0.041645670251    12.000000000000
         H           -0.663939451195    -2.145010069504    -0.467108329749     1.007825032230
         H           -0.663932451195     2.145005930496    -0.467109329749     1.007825032230
         H           -3.071252451195    -2.152639069504     0.225315670251     1.007825032230
         H           -3.071244451195     2.152643930496     0.225310670251     1.007825032230
         H           -4.265598451195     0.000003930496     0.568242670251     1.007825032230

  Basis Set: AUG-CC-PVTZ
    Blend: AUG-CC-PVTZ
  Basis Set: (AUG-CC-PVTZ AUX)
    Blend: AUG-CC-PVTZ-JKFIT
	 Reference Energy          =    -641.3820525367393657 [Eh]
	 Singles Energy            =      -0.0000000000000000 [Eh]
	 Same-Spin Energy          =      -0.5861198215322361 [Eh]
	 Opposite-Spin Energy      =      -1.7229093605585881 [Eh]
	 Correlation Energy        =      -2.3090291820908240 [Eh]
	 Total Energy              =    -643.6910817188302190 [Eh]

	 ================> DF-SCS-MP2 Energies <==================
	-----------------------------------------------------------
	 SCS Same-Spin Scale       =       0.3333333333333333 [-]
	 SCS Opposite-Spin Scale   =       1.2000000000000000 [-]
	 SCS Same-Spin Energy      =      -0.1953732738440787 [Eh]
	 SCS Opposite-Spin Energy  =      -2.0674912326703057 [Eh]
	 SCS Correlation Energy    =      -2.2628645065143842 [Eh]
	 SCS Total Energy          =    -643.6449170432537130 [Eh]
	-----------------------------------------------------------

  Dipole Moment: [D]
     X:    -3.7142      Y:     0.0000      Z:     0.2631     Total:     3.7235

*** Psi4 exiting successfully. Buy a developer a beer!
