                               Psi4 1.3.2 release

  ==> Input File <==

--------------------------------------------------------------------------
#psi4
#
memory 32 gb

molecule  {
0 1
  F        1.7125910     1.0842730     0.8512900
  F        3.0044440    -0.0000070    -0.5300430
  F        1.7125860    -1.0842610     0.8513060
  O        0.8682060    -0.0000060    -0.9288170
  C       -0.2784545    -0.0000026    -0.5392304
  C       -1.1126100    -1.2194340    -0.2924640
  C       -1.1126050     1.2194310    -0.2924660
  C       -2.4550330    -1.2105000     0.0899020
  C       -2.4550290     1.2105020     0.0899000
  C       -3.1253970     0.0000030     0.2834000
  C        1.8036720     0.0000000     0.0528050
  H       -0.5694030    -2.1450100    -0.4559490
  H       -0.5693960     2.1450060    -0.4559500
  H       -2.9767160    -2.1526390     0.2364750
  H       -2.9767080     2.1526440     0.2364700
  H       -4.1710620     0.0000040     0.5794020
units angstrom
no_reorient  #important for SAPT in psi4, default
symmetry c1  #important for SAPT in psi4, default
}

set PROPERTIES_ORIGIN ["COM"]
properties('MP2/aug-cc-pvtz', properties = ['dipole'])
--------------------------------------------------------------------------

    Molecular point group: c1
  Charge       = 0
  Multiplicity = 1
  Basis Set: AUG-CC-PVTZ
    Blend: AUG-CC-PVTZ
  Basis Set: (AUG-CC-PVTZ AUX)
    Blend: AUG-CC-PVTZ-JKFIT

    Orbital Energies [Eh]
    ---------------------

    Doubly Occupied:

       1A    -26.366071     2A    -26.363652     3A    -26.363628
       4A    -20.664069     5A    -11.591265     6A    -11.331561
       7A    -11.256090     8A    -11.256071     9A    -11.249476
      10A    -11.249281    11A    -11.245737    12A     -1.762662
      13A     -1.662591    14A     -1.657036    15A     -1.560147
      16A     -1.143830    17A     -1.061100    18A     -1.020296
      19A     -0.971548    20A     -0.909328    21A     -0.869614
      22A     -0.862503    23A     -0.834672    24A     -0.798111
      25A     -0.750468    26A     -0.739033    27A     -0.716973
      28A     -0.694407    29A     -0.692305    30A     -0.689859
      31A     -0.675712    32A     -0.674718    33A     -0.672666
      34A     -0.618194    35A     -0.592985    36A     -0.569511
      37A     -0.534533    38A     -0.495454    39A     -0.457757
      40A     -0.346630    41A     -0.325923

  @DF-RHF Final Energy:  -641.36253733643082

   => Energetics <=

    Nuclear Repulsion Energy =            632.2151171364697575
    One-Electron Energy =               -2138.5603717677231543
    Two-Electron Energy =                 864.9827172948224643
    Total Energy =                       -641.3625373364308189
  Basis Set: (AUG-CC-PVTZ AUX)
    Blend: AUG-CC-PVTZ-RI
    Molecular point group: c1

    Geometry (in Angstrom), charge = 0, multiplicity = 1:

       Center              X                  Y                   Z               Mass
    ------------   -----------------  -----------------  -----------------  -----------------
         F            1.590005020584     1.084273019369     0.849660712555    18.998403162730
         F            2.881858020584    -0.000006980631    -0.531672287445    18.998403162730
         F            1.590000020584    -1.084260980631     0.849676712555    18.998403162730
         O            0.745620020584    -0.000005980631    -0.930446287445    15.994914619570
         C           -0.401040479416    -0.000002580631    -0.540859687445    12.000000000000
         C           -1.235195979416    -1.219433980631    -0.294093287445    12.000000000000
         C           -1.235190979416     1.219431019369    -0.294095287445    12.000000000000
         C           -2.577618979416    -1.210499980631     0.088272712555    12.000000000000
         C           -2.577614979416     1.210502019369     0.088270712555    12.000000000000
         C           -3.247982979416     0.000003019369     0.281770712555    12.000000000000
         C            1.681086020584     0.000000019369     0.051175712555    12.000000000000
         H           -0.691988979416    -2.145009980631    -0.457578287445     1.007825032230
         H           -0.691981979416     2.145006019369    -0.457579287445     1.007825032230
         H           -3.099301979416    -2.152638980631     0.234845712555     1.007825032230
         H           -3.099293979416     2.152644019369     0.234840712555     1.007825032230
         H           -4.293647979416     0.000004019369     0.577772712555     1.007825032230

  Basis Set: AUG-CC-PVTZ
    Blend: AUG-CC-PVTZ
  Basis Set: (AUG-CC-PVTZ AUX)
    Blend: AUG-CC-PVTZ-JKFIT
	 Reference Energy          =    -641.3625373364308189 [Eh]
	 Singles Energy            =      -0.0000000000000000 [Eh]
	 Same-Spin Energy          =      -0.5876202736527942 [Eh]
	 Opposite-Spin Energy      =      -1.7241294198285604 [Eh]
	 Correlation Energy        =      -2.3117496934813548 [Eh]
	 Total Energy              =    -643.6742870299121932 [Eh]

	 ================> DF-SCS-MP2 Energies <==================
	-----------------------------------------------------------
	 SCS Same-Spin Scale       =       0.3333333333333333 [-]
	 SCS Opposite-Spin Scale   =       1.2000000000000000 [-]
	 SCS Same-Spin Energy      =      -0.1958734245509314 [Eh]
	 SCS Opposite-Spin Energy  =      -2.0689553037942723 [Eh]
	 SCS Correlation Energy    =      -2.2648287283452038 [Eh]
	 SCS Total Energy          =    -643.6273660647759698 [Eh]
	-----------------------------------------------------------

  Dipole Moment: [D]
     X:    -1.2511      Y:     0.0000      Z:    -0.0183     Total:     1.2513

*** Psi4 exiting successfully. Buy a developer a beer!
