                               Psi4 1.3.2 release

  ==> Input File <==

--------------------------------------------------------------------------
#psi4
#
memory 32 gb

molecule  {
0 1
  F        1.7308426     1.0762924     0.8638615
  F        3.0044440    -0.0000070    -0.5300430
  F        1.7125860    -1.0842610     0.8513060
  O        0.8682060    -0.0000060    -0.9288170
  C       -0.4678230    -0.0000020    -0.4748910
  C       -1.1126100    -1.2194340    -0.2924640
  C       -1.1126050     1.2194310    -0.2924660
  C       -2.4550330    -1.2105000     0.0899020
  C       -2.4550290     1.2105020     0.0899000
  C       -3.1253970     0.0000030     0.2834000
  C        1.8036720     0.0000000     0.0528050
  H       -0.5694030    -2.1450100    -0.4559490
  H       -0.5693960     2.1450060    -0.4559500
  H       -2.9767160    -2.1526390     0.2364750
  H       -2.9767080     2.1526440     0.2364700
  H       -4.1710620     0.0000040     0.5794020
units angstrom
no_reorient  #important for SAPT in psi4, default
symmetry c1  #important for SAPT in psi4, default
}

set PROPERTIES_ORIGIN ["COM"]
properties('MP2/aug-cc-pvtz', properties = ['dipole'])
--------------------------------------------------------------------------

    Molecular point group: c1
  Charge       = 0
  Multiplicity = 1
  Basis Set: AUG-CC-PVTZ
    Blend: AUG-CC-PVTZ
  Basis Set: (AUG-CC-PVTZ AUX)
    Blend: AUG-CC-PVTZ-JKFIT

    Orbital Energies [Eh]
    ---------------------

    Doubly Occupied:

       1A    -26.348943     2A    -26.347065     3A    -26.346434
       4A    -20.635179     5A    -11.567417     6A    -11.320954
       7A    -11.258080     8A    -11.258017     9A    -11.256913
      10A    -11.256785    11A    -11.253734    12A     -1.743969
      13A     -1.646068    14A     -1.640657    15A     -1.462612
      16A     -1.171122    17A     -1.043691    18A     -1.038872
      19A     -0.963048    20A     -0.874678    21A     -0.861790
      22A     -0.838737    23A     -0.836754    24A     -0.800885
      25A     -0.732807    26A     -0.721411    27A     -0.712143
      28A     -0.676199    29A     -0.674236    30A     -0.671047
      31A     -0.660244    32A     -0.656750    33A     -0.643646
      34A     -0.613996    35A     -0.609752    36A     -0.559490
      37A     -0.534908    38A     -0.518532    39A     -0.507141
      40A     -0.357383    41A     -0.355137

  @DF-RHF Final Energy:  -641.42119196604926

   => Energetics <=

    Nuclear Repulsion Energy =            630.6841375683975457
    One-Electron Energy =               -2136.2562096151332298
    Two-Electron Energy =                 864.1508800806864201
    Total Energy =                       -641.4211919660492640
  Basis Set: (AUG-CC-PVTZ AUX)
    Blend: AUG-CC-PVTZ-RI
    Molecular point group: c1

    Geometry (in Angstrom), charge = 0, multiplicity = 1:

       Center              X                  Y                   Z               Mass
    ------------   -----------------  -----------------  -----------------  -----------------
         F            1.620141331237     1.077228123614     0.855993146276    18.998403162730
         F            2.893742731237     0.000928723614    -0.537911353724    18.998403162730
         F            1.601884731237    -1.083325276386     0.843437646276    18.998403162730
         O            0.757504731237     0.000929723614    -0.936685353724    15.994914619570
         C           -0.578524268763     0.000933723614    -0.482759353724    12.000000000000
         C           -1.223311268763    -1.218498276386    -0.300332353724    12.000000000000
         C           -1.223306268763     1.220366723614    -0.300334353724    12.000000000000
         C           -2.565734268763    -1.209564276386     0.082033646276    12.000000000000
         C           -2.565730268763     1.211437723614     0.082031646276    12.000000000000
         C           -3.236098268763     0.000938723614     0.275531646276    12.000000000000
         C            1.692970731237     0.000935723614     0.044936646276    12.000000000000
         H           -0.680104268763    -2.144074276386    -0.463817353724     1.007825032230
         H           -0.680097268763     2.145941723614    -0.463818353724     1.007825032230
         H           -3.087417268763    -2.151703276386     0.228606646276     1.007825032230
         H           -3.087409268763     2.153579723614     0.228601646276     1.007825032230
         H           -4.281763268763     0.000939723614     0.571533646276     1.007825032230

  Basis Set: AUG-CC-PVTZ
    Blend: AUG-CC-PVTZ
  Basis Set: (AUG-CC-PVTZ AUX)
    Blend: AUG-CC-PVTZ-JKFIT
	 Reference Energy          =    -641.4211919660492640 [Eh]
	 Singles Energy            =      -0.0000000000000000 [Eh]
	 Same-Spin Energy          =      -0.5849305361000939 [Eh]
	 Opposite-Spin Energy      =      -1.7204839923399611 [Eh]
	 Correlation Energy        =      -2.3054145284400551 [Eh]
	 Total Energy              =    -643.7266064944893742 [Eh]

	 ================> DF-SCS-MP2 Energies <==================
	-----------------------------------------------------------
	 SCS Same-Spin Scale       =       0.3333333333333333 [-]
	 SCS Opposite-Spin Scale   =       1.2000000000000000 [-]
	 SCS Same-Spin Energy      =      -0.1949768453666980 [Eh]
	 SCS Opposite-Spin Energy  =      -2.0645807908079532 [Eh]
	 SCS Correlation Energy    =      -2.2595576361746512 [Eh]
	 SCS Total Energy          =    -643.6807496022239548 [Eh]
	-----------------------------------------------------------

  Dipole Moment: [D]
     X:    -2.5852      Y:     0.0058      Z:     0.1091     Total:     2.5875

*** Psi4 exiting successfully. Buy a developer a beer!
