                               Psi4 1.3.2 release

  ==> Input File <==

--------------------------------------------------------------------------
#psi4
#
memory 32 gb

molecule  {
0 1
  F        1.7125910     1.0842730     0.8512900
  F        3.0044440    -0.0000070    -0.5300430
  F        1.7125860    -1.0842610     0.8513060
  O        0.8682060    -0.0000060    -0.9288170
  C       -0.3731387    -0.0000023    -0.5070607
  C       -1.1126100    -1.2194340    -0.2924640
  C       -1.1126050     1.2194310    -0.2924660
  C       -2.4550330    -1.2105000     0.0899020
  C       -2.4550290     1.2105020     0.0899000
  C       -3.1253970     0.0000030     0.2834000
  C        1.8036720     0.0000000     0.0528050
  H       -0.5694030    -2.1450100    -0.4559490
  H       -0.5693960     2.1450060    -0.4559500
  H       -2.9767160    -2.1526390     0.2364750
  H       -2.9767080     2.1526440     0.2364700
  H       -4.1710620     0.0000040     0.5794020
units angstrom
no_reorient  #important for SAPT in psi4, default
symmetry c1  #important for SAPT in psi4, default
}

set PROPERTIES_ORIGIN ["COM"]
properties('MP2/aug-cc-pvtz', properties = ['dipole'])
--------------------------------------------------------------------------

    Molecular point group: c1
  Charge       = 0
  Multiplicity = 1
  Basis Set: AUG-CC-PVTZ
    Blend: AUG-CC-PVTZ
  Basis Set: (AUG-CC-PVTZ AUX)
    Blend: AUG-CC-PVTZ-JKFIT

    Orbital Energies [Eh]
    ---------------------

    Doubly Occupied:

       1A    -26.357581     2A    -26.355002     3A    -26.354978
       4A    -20.648810     5A    -11.578756     6A    -11.324428
       7A    -11.257147     8A    -11.257124     9A    -11.253342
      10A    -11.253102    11A    -11.250204    12A     -1.752564
      13A     -1.654241    14A     -1.648905    15A     -1.505106
      16A     -1.156412    17A     -1.047180    18A     -1.028846
      19A     -0.970137    20A     -0.891246    21A     -0.861815
      22A     -0.849869    23A     -0.838074    24A     -0.799945
      25A     -0.739866    26A     -0.730001    27A     -0.712089
      28A     -0.685487    29A     -0.682447    30A     -0.681966
      31A     -0.664980    32A     -0.663685    33A     -0.656338
      34A     -0.620401    35A     -0.599223    36A     -0.567531
      37A     -0.536003    38A     -0.506508    39A     -0.485590
      40A     -0.351820    41A     -0.341601

  @DF-RHF Final Energy:  -641.40793385379504

   => Energetics <=

    Nuclear Repulsion Energy =            631.4156122685753871
    One-Electron Energy =               -2137.4063910792920069
    Two-Electron Energy =                 864.5828449569215763
    Total Energy =                       -641.4079338537950434
  Basis Set: (AUG-CC-PVTZ AUX)
    Blend: AUG-CC-PVTZ-RI
    Molecular point group: c1

    Geometry (in Angstrom), charge = 0, multiplicity = 1:

       Center              X                  Y                   Z               Mass
    ------------   -----------------  -----------------  -----------------  -----------------
         F            1.597017398937     1.084272997151     0.847278201979    18.998403162730
         F            2.888870398937    -0.000007002849    -0.534054798021    18.998403162730
         F            1.597012398937    -1.084261002849     0.847294201979    18.998403162730
         O            0.752632398937    -0.000006002849    -0.932828798021    15.994914619570
         C           -0.488712301063    -0.000002302849    -0.511072498021    12.000000000000
         C           -1.228183601063    -1.219434002849    -0.296475798021    12.000000000000
         C           -1.228178601063     1.219430997151    -0.296477798021    12.000000000000
         C           -2.570606601063    -1.210500002849     0.085890201979    12.000000000000
         C           -2.570602601063     1.210501997151     0.085888201979    12.000000000000
         C           -3.240970601063     0.000002997151     0.279388201979    12.000000000000
         C            1.688098398937    -0.000000002849     0.048793201979    12.000000000000
         H           -0.684976601063    -2.145010002849    -0.459960798021     1.007825032230
         H           -0.684969601063     2.145005997151    -0.459961798021     1.007825032230
         H           -3.092289601063    -2.152639002849     0.232463201979     1.007825032230
         H           -3.092281601063     2.152643997151     0.232458201979     1.007825032230
         H           -4.286635601063     0.000003997151     0.575390201979     1.007825032230

  Basis Set: AUG-CC-PVTZ
    Blend: AUG-CC-PVTZ
  Basis Set: (AUG-CC-PVTZ AUX)
    Blend: AUG-CC-PVTZ-JKFIT
	 Reference Energy          =    -641.4079338537950434 [Eh]
	 Singles Energy            =      -0.0000000000000000 [Eh]
	 Same-Spin Energy          =      -0.5857546764170117 [Eh]
	 Opposite-Spin Energy      =      -1.7214665225573735 [Eh]
	 Correlation Energy        =      -2.3072211989743852 [Eh]
	 Total Energy              =    -643.7151550527694326 [Eh]

	 ================> DF-SCS-MP2 Energies <==================
	-----------------------------------------------------------
	 SCS Same-Spin Scale       =       0.3333333333333333 [-]
	 SCS Opposite-Spin Scale   =       1.2000000000000000 [-]
	 SCS Same-Spin Energy      =      -0.1952515588056706 [Eh]
	 SCS Opposite-Spin Energy  =      -2.0657598270688480 [Eh]
	 SCS Correlation Energy    =      -2.2610113858745184 [Eh]
	 SCS Total Energy          =    -643.6689452396695970 [Eh]
	-----------------------------------------------------------

  Dipole Moment: [D]
     X:    -1.9401      Y:     0.0000      Z:     0.0626     Total:     1.9412

*** Psi4 exiting successfully. Buy a developer a beer!
