                               Psi4 1.3.2 release

  ==> Input File <==

--------------------------------------------------------------------------
#psi4
#
memory 32 gb

molecule  {
0 1
  F        1.6761766     1.0992411     0.8254213
  F        3.0044440    -0.0000070    -0.5300430
  F        1.7125860    -1.0842610     0.8513060
  O        0.8682060    -0.0000060    -0.9288170
  C       -0.4678230    -0.0000020    -0.4748910
  C       -1.1126100    -1.2194340    -0.2924640
  C       -1.1126050     1.2194310    -0.2924660
  C       -2.4550330    -1.2105000     0.0899020
  C       -2.4550290     1.2105020     0.0899000
  C       -3.1253970     0.0000030     0.2834000
  C        1.8036720     0.0000000     0.0528050
  H       -0.5694030    -2.1450100    -0.4559490
  H       -0.5693960     2.1450060    -0.4559500
  H       -2.9767160    -2.1526390     0.2364750
  H       -2.9767080     2.1526440     0.2364700
  H       -4.1710620     0.0000040     0.5794020
units angstrom
no_reorient  #important for SAPT in psi4, default
symmetry c1  #important for SAPT in psi4, default
}

set PROPERTIES_ORIGIN ["COM"]
properties('MP2/aug-cc-pvtz', properties = ['dipole'])
--------------------------------------------------------------------------

    Molecular point group: c1
  Charge       = 0
  Multiplicity = 1
  Basis Set: AUG-CC-PVTZ
    Blend: AUG-CC-PVTZ
  Basis Set: (AUG-CC-PVTZ AUX)
    Blend: AUG-CC-PVTZ-JKFIT

    Orbital Energies [Eh]
    ---------------------

    Doubly Occupied:

       1A    -26.351656     2A    -26.349463     3A    -26.348101
       4A    -20.631374     5A    -11.568168     6A    -11.319720
       7A    -11.257161     8A    -11.257065     9A    -11.255966
      10A    -11.255829    11A    -11.252872    12A     -1.744377
      13A     -1.648250    14A     -1.643879    15A     -1.459875
      16A     -1.170180    17A     -1.042954    18A     -1.037960
      19A     -0.963232    20A     -0.873548    21A     -0.861322
      22A     -0.840496    23A     -0.838563    24A     -0.800080
      25A     -0.732532    26A     -0.723736    27A     -0.712307
      28A     -0.678096    29A     -0.677058    30A     -0.670881
      31A     -0.660647    32A     -0.659082    33A     -0.641546
      34A     -0.612325    35A     -0.608818    36A     -0.557356
      37A     -0.533963    38A     -0.517445    39A     -0.505738
      40A     -0.356515    41A     -0.354044

  @DF-RHF Final Energy:  -641.42058549553440

   => Energetics <=

    Nuclear Repulsion Energy =            631.3529590468041306
    One-Electron Energy =               -2137.5987262519602154
    Two-Electron Energy =                 864.8251817096215746
    Total Energy =                       -641.4205854955343966
  Basis Set: (AUG-CC-PVTZ AUX)
    Blend: AUG-CC-PVTZ-RI
    Molecular point group: c1

    Geometry (in Angstrom), charge = 0, multiplicity = 1:

       Center              X                  Y                   Z               Mass
    ------------   -----------------  -----------------  -----------------  -----------------
         F            1.571885079551     1.097486021449     0.822060172104    18.998403162730
         F            2.900152479551    -0.001762078551    -0.533404127896    18.998403162730
         F            1.608294479551    -1.086016078551     0.847944872104    18.998403162730
         O            0.763914479551    -0.001761078551    -0.932178127896    15.994914619570
         C           -0.572114520449    -0.001757078551    -0.478252127896    12.000000000000
         C           -1.216901520449    -1.221189078551    -0.295825127896    12.000000000000
         C           -1.216896520449     1.217675921449    -0.295827127896    12.000000000000
         C           -2.559324520449    -1.212255078551     0.086540872104    12.000000000000
         C           -2.559320520449     1.208746921449     0.086538872104    12.000000000000
         C           -3.229688520449    -0.001752078551     0.280038872104    12.000000000000
         C            1.699380479551    -0.001755078551     0.049443872104    12.000000000000
         H           -0.673694520449    -2.146765078551    -0.459310127896     1.007825032230
         H           -0.673687520449     2.143250921449    -0.459311127896     1.007825032230
         H           -3.081007520449    -2.154394078551     0.233113872104     1.007825032230
         H           -3.080999520449     2.150888921449     0.233108872104     1.007825032230
         H           -4.275353520449    -0.001751078551     0.576040872104     1.007825032230

  Basis Set: AUG-CC-PVTZ
    Blend: AUG-CC-PVTZ
  Basis Set: (AUG-CC-PVTZ AUX)
    Blend: AUG-CC-PVTZ-JKFIT
	 Reference Energy          =    -641.4205854955343966 [Eh]
	 Singles Energy            =      -0.0000000000000000 [Eh]
	 Same-Spin Energy          =      -0.5850295265938261 [Eh]
	 Opposite-Spin Energy      =      -1.7206529160911961 [Eh]
	 Correlation Energy        =      -2.3056824426850220 [Eh]
	 Total Energy              =    -643.7262679382193937 [Eh]

	 ================> DF-SCS-MP2 Energies <==================
	-----------------------------------------------------------
	 SCS Same-Spin Scale       =       0.3333333333333333 [-]
	 SCS Opposite-Spin Scale   =       1.2000000000000000 [-]
	 SCS Same-Spin Energy      =      -0.1950098421979420 [Eh]
	 SCS Opposite-Spin Energy  =      -2.0647834993094354 [Eh]
	 SCS Correlation Energy    =      -2.2597933415073772 [Eh]
	 SCS Total Energy          =    -643.6803788370417578 [Eh]
	-----------------------------------------------------------

  Dipole Moment: [D]
     X:    -2.4493      Y:    -0.0106      Z:     0.1734     Total:     2.4554

*** Psi4 exiting successfully. Buy a developer a beer!
