                               Psi4 1.3.2 release

  ==> Input File <==

--------------------------------------------------------------------------
#psi4
#
memory 32 gb

molecule  {
0 1
  F        1.7125910     1.0842730     0.8512900
  F        3.0044440    -0.0000070    -0.5300430
  F        1.7125860    -1.0842610     0.8513060
  O        0.8682060    -0.0000060    -0.9288170
  C       -0.4329042    -0.0000014    -0.3828001
  C       -1.1126100    -1.2194340    -0.2924640
  C       -1.1126050     1.2194310    -0.2924660
  C       -2.4550330    -1.2105000     0.0899020
  C       -2.4550290     1.2105020     0.0899000
  C       -3.1253970     0.0000030     0.2834000
  C        1.8036720     0.0000000     0.0528050
  H       -0.5694030    -2.1450100    -0.4559490
  H       -0.5693960     2.1450060    -0.4559500
  H       -2.9767160    -2.1526390     0.2364750
  H       -2.9767080     2.1526440     0.2364700
  H       -4.1710620     0.0000040     0.5794020
units angstrom
no_reorient  #important for SAPT in psi4, default
symmetry c1  #important for SAPT in psi4, default
}

set PROPERTIES_ORIGIN ["COM"]
properties('MP2/aug-cc-pvtz', properties = ['dipole'])
--------------------------------------------------------------------------

    Molecular point group: c1
  Charge       = 0
  Multiplicity = 1
  Basis Set: AUG-CC-PVTZ
    Blend: AUG-CC-PVTZ
  Basis Set: (AUG-CC-PVTZ AUX)
    Blend: AUG-CC-PVTZ-JKFIT

    Orbital Energies [Eh]
    ---------------------

    Doubly Occupied:

       1A    -26.349346     2A    -26.348008     3A    -26.347984
       4A    -20.637038     5A    -11.566900     6A    -11.319703
       7A    -11.258492     8A    -11.258471     9A    -11.256558
      10A    -11.256263    11A    -11.254006    12A     -1.744701
      13A     -1.646933    14A     -1.642489    15A     -1.465179
      16A     -1.169030    17A     -1.041624    18A     -1.037514
      19A     -0.962407    20A     -0.873608    21A     -0.860701
      22A     -0.839211    23A     -0.837473    24A     -0.800496
      25A     -0.733544    26A     -0.723060    27A     -0.712027
      28A     -0.677698    29A     -0.675515    30A     -0.669891
      31A     -0.659442    32A     -0.657640    33A     -0.644625
      34A     -0.614576    35A     -0.608610    36A     -0.559811
      37A     -0.534515    38A     -0.517711    39A     -0.505450
      40A     -0.356020    41A     -0.354240

  @DF-RHF Final Energy:  -641.41626397001824

   => Energetics <=

    Nuclear Repulsion Energy =            631.4601878015856755
    One-Electron Energy =               -2137.7958818543770576
    Two-Electron Energy =                 864.9194300827732604
    Total Energy =                       -641.4162639700182353
  Basis Set: (AUG-CC-PVTZ AUX)
    Blend: AUG-CC-PVTZ-RI
    Molecular point group: c1

    Geometry (in Angstrom), charge = 0, multiplicity = 1:

       Center              X                  Y                   Z               Mass
    ------------   -----------------  -----------------  -----------------  -----------------
         F            1.601443673842     1.084272930496     0.838075374670    18.998403162730
         F            2.893296673842    -0.000007069504    -0.543257625330    18.998403162730
         F            1.601438673842    -1.084261069504     0.838091374670    18.998403162730
         O            0.757058673842    -0.000006069504    -0.942031625330    15.994914619570
         C           -0.544051526158    -0.000001469504    -0.396014725330    12.000000000000
         C           -1.223757326158    -1.219434069504    -0.305678625330    12.000000000000
         C           -1.223752326158     1.219430930496    -0.305680625330    12.000000000000
         C           -2.566180326158    -1.210500069504     0.076687374670    12.000000000000
         C           -2.566176326158     1.210501930496     0.076685374670    12.000000000000
         C           -3.236544326158     0.000002930496     0.270185374670    12.000000000000
         C            1.692524673842    -0.000000069504     0.039590374670    12.000000000000
         H           -0.680550326158    -2.145010069504    -0.469163625330     1.007825032230
         H           -0.680543326158     2.145005930496    -0.469164625330     1.007825032230
         H           -3.087863326158    -2.152639069504     0.223260374670     1.007825032230
         H           -3.087855326158     2.152643930496     0.223255374670     1.007825032230
         H           -4.282209326158     0.000003930496     0.566187374670     1.007825032230

  Basis Set: AUG-CC-PVTZ
    Blend: AUG-CC-PVTZ
  Basis Set: (AUG-CC-PVTZ AUX)
    Blend: AUG-CC-PVTZ-JKFIT
	 Reference Energy          =    -641.4162639700182353 [Eh]
	 Singles Energy            =      -0.0000000000000000 [Eh]
	 Same-Spin Energy          =      -0.5854826126828885 [Eh]
	 Opposite-Spin Energy      =      -1.7219688592340185 [Eh]
	 Correlation Energy        =      -2.3074514719169068 [Eh]
	 Total Energy              =    -643.7237154419351555 [Eh]

	 ================> DF-SCS-MP2 Energies <==================
	-----------------------------------------------------------
	 SCS Same-Spin Scale       =       0.3333333333333333 [-]
	 SCS Opposite-Spin Scale   =       1.2000000000000000 [-]
	 SCS Same-Spin Energy      =      -0.1951608708942962 [Eh]
	 SCS Opposite-Spin Energy  =      -2.0663626310808221 [Eh]
	 SCS Correlation Energy    =      -2.2615235019751183 [Eh]
	 SCS Total Energy          =    -643.6777874719933834 [Eh]
	-----------------------------------------------------------

  Dipole Moment: [D]
     X:    -2.5157      Y:     0.0000      Z:     0.1315     Total:     2.5191

*** Psi4 exiting successfully. Buy a developer a beer!
