                               Psi4 1.3.2 release

  ==> Input File <==

--------------------------------------------------------------------------
#psi4
#
memory 32 gb

molecule  {
0 1
  F        1.7125910     1.0842730     0.8512900
  F        3.0044440    -0.0000070    -0.5300430
  F        1.7125860    -1.0842610     0.8513060
  O        0.8682060    -0.0000060    -0.9288170
  C       -0.4130559    -0.0000011    -0.3377246
  C       -1.1126100    -1.2194340    -0.2924640
  C       -1.1126050     1.2194310    -0.2924660
  C       -2.4550330    -1.2105000     0.0899020
  C       -2.4550290     1.2105020     0.0899000
  C       -3.1253970     0.0000030     0.2834000
  C        1.8036720     0.0000000     0.0528050
  H       -0.5694030    -2.1450100    -0.4559490
  H       -0.5693960     2.1450060    -0.4559500
  H       -2.9767160    -2.1526390     0.2364750
  H       -2.9767080     2.1526440     0.2364700
  H       -4.1710620     0.0000040     0.5794020
units angstrom
no_reorient  #important for SAPT in psi4, default
symmetry c1  #important for SAPT in psi4, default
}

set PROPERTIES_ORIGIN ["COM"]
properties('MP2/aug-cc-pvtz', properties = ['dipole'])
--------------------------------------------------------------------------

    Molecular point group: c1
  Charge       = 0
  Multiplicity = 1
  Basis Set: AUG-CC-PVTZ
    Blend: AUG-CC-PVTZ
  Basis Set: (AUG-CC-PVTZ AUX)
    Blend: AUG-CC-PVTZ-JKFIT

    Orbital Energies [Eh]
    ---------------------

    Doubly Occupied:

       1A    -26.348916     2A    -26.348155     3A    -26.348131
       4A    -20.638236     5A    -11.566443     6A    -11.319701
       7A    -11.259764     8A    -11.259737     9A    -11.256463
      10A    -11.255922    11A    -11.254619    12A     -1.744898
      13A     -1.646869    14A     -1.642753    15A     -1.466692
      16A     -1.167617    17A     -1.040352    18A     -1.036732
      19A     -0.961841    20A     -0.873313    21A     -0.859730
      22A     -0.839073    23A     -0.837212    24A     -0.800242
      25A     -0.733714    26A     -0.723405    27A     -0.711881
      28A     -0.678196    29A     -0.675553    30A     -0.669235
      31A     -0.659108    32A     -0.656880    33A     -0.645332
      34A     -0.614773    35A     -0.607992    36A     -0.560208
      37A     -0.534933    38A     -0.516555    39A     -0.504048
      40A     -0.355149    41A     -0.353827

  @DF-RHF Final Energy:  -641.41075569233897

   => Energetics <=

    Nuclear Repulsion Energy =            631.6590320686441373
    One-Electron Energy =               -2138.1911751692432517
    Two-Electron Energy =                 865.1213874082601478
    Total Energy =                       -641.4107556923389666
  Basis Set: (AUG-CC-PVTZ AUX)
    Blend: AUG-CC-PVTZ-RI
    Molecular point group: c1

    Geometry (in Angstrom), charge = 0, multiplicity = 1:

       Center              X                  Y                   Z               Mass
    ------------   -----------------  -----------------  -----------------  -----------------
         F            1.599973694804     1.084272908278     0.834737051482    18.998403162730
         F            2.891826694804    -0.000007091722    -0.546595948518    18.998403162730
         F            1.599968694804    -1.084261091722     0.834753051482    18.998403162730
         O            0.755588694804    -0.000006091722    -0.945369948518    15.994914619570
         C           -0.525673205196    -0.000001191722    -0.354277548518    12.000000000000
         C           -1.225227305196    -1.219434091722    -0.309016948518    12.000000000000
         C           -1.225222305196     1.219430908278    -0.309018948518    12.000000000000
         C           -2.567650305196    -1.210500091722     0.073349051482    12.000000000000
         C           -2.567646305196     1.210501908278     0.073347051482    12.000000000000
         C           -3.238014305196     0.000002908278     0.266847051482    12.000000000000
         C            1.691054694804    -0.000000091722     0.036252051482    12.000000000000
         H           -0.682020305196    -2.145010091722    -0.472501948518     1.007825032230
         H           -0.682013305196     2.145005908278    -0.472502948518     1.007825032230
         H           -3.089333305196    -2.152639091722     0.219922051482     1.007825032230
         H           -3.089325305196     2.152643908278     0.219917051482     1.007825032230
         H           -4.283679305196     0.000003908278     0.562849051482     1.007825032230

  Basis Set: AUG-CC-PVTZ
    Blend: AUG-CC-PVTZ
  Basis Set: (AUG-CC-PVTZ AUX)
    Blend: AUG-CC-PVTZ-JKFIT
	 Reference Energy          =    -641.4107556923389666 [Eh]
	 Singles Energy            =      -0.0000000000000000 [Eh]
	 Same-Spin Energy          =      -0.5858849988626345 [Eh]
	 Opposite-Spin Energy      =      -1.7231207282055172 [Eh]
	 Correlation Energy        =      -2.3090057270681514 [Eh]
	 Total Energy              =    -643.7197614194070638 [Eh]

	 ================> DF-SCS-MP2 Energies <==================
	-----------------------------------------------------------
	 SCS Same-Spin Scale       =       0.3333333333333333 [-]
	 SCS Opposite-Spin Scale   =       1.2000000000000000 [-]
	 SCS Same-Spin Energy      =      -0.1952949996208782 [Eh]
	 SCS Opposite-Spin Energy  =      -2.0677448738466206 [Eh]
	 SCS Correlation Energy    =      -2.2630398734674988 [Eh]
	 SCS Total Energy          =    -643.6737955658064720 [Eh]
	-----------------------------------------------------------

  Dipole Moment: [D]
     X:    -2.5162      Y:     0.0000      Z:     0.1335     Total:     2.5197

*** Psi4 exiting successfully. Buy a developer a beer!
