                               Psi4 1.3.2 release

  ==> Input File <==

--------------------------------------------------------------------------
#psi4
#
memory 32 gb

molecule  {
0 1
  F        1.7125910     1.0842730     0.8512900
  F        3.0044440    -0.0000070    -0.5300430
  F        1.7125860    -1.0842610     0.8513060
  O        0.8682060    -0.0000060    -0.9288170
  C       -0.4755416    -0.0000022    -0.4982771
  C       -1.1126100    -1.2194340    -0.2924640
  C       -1.1126050     1.2194310    -0.2924660
  C       -2.4550330    -1.2105000     0.0899020
  C       -2.4550290     1.2105020     0.0899000
  C       -3.1253970     0.0000030     0.2834000
  C        1.8036720     0.0000000     0.0528050
  H       -0.5694030    -2.1450100    -0.4559490
  H       -0.5693960     2.1450060    -0.4559500
  H       -2.9767160    -2.1526390     0.2364750
  H       -2.9767080     2.1526440     0.2364700
  H       -4.1710620     0.0000040     0.5794020
units angstrom
no_reorient  #important for SAPT in psi4, default
symmetry c1  #important for SAPT in psi4, default
}

set PROPERTIES_ORIGIN ["COM"]
properties('MP2/aug-cc-pvtz', properties = ['dipole'])
--------------------------------------------------------------------------

    Molecular point group: c1
  Charge       = 0
  Multiplicity = 1
  Basis Set: AUG-CC-PVTZ
    Blend: AUG-CC-PVTZ
  Basis Set: (AUG-CC-PVTZ AUX)
    Blend: AUG-CC-PVTZ-JKFIT

    Orbital Energies [Eh]
    ---------------------

    Doubly Occupied:

       1A    -26.349908     2A    -26.347287     3A    -26.347264
       4A    -20.633021     5A    -11.567829     6A    -11.320953
       7A    -11.257833     8A    -11.257773     9A    -11.256648
      10A    -11.256540    11A    -11.253494    12A     -1.743899
      13A     -1.646701    14A     -1.641547    15A     -1.460773
      16A     -1.171012    17A     -1.043757    18A     -1.038706
      19A     -0.963202    20A     -0.874483    21A     -0.861621
      22A     -0.839169    23A     -0.837408    24A     -0.800556
      25A     -0.732351    26A     -0.721982    27A     -0.712222
      28A     -0.676502    29A     -0.675008    30A     -0.671334
      31A     -0.660341    32A     -0.657644    33A     -0.642541
      34A     -0.613030    35A     -0.609567    36A     -0.558506
      37A     -0.534799    38A     -0.517894    39A     -0.506679
      40A     -0.357207    41A     -0.354840

  @DF-RHF Final Energy:  -641.42116650237699

   => Energetics <=

    Nuclear Repulsion Energy =            630.7214127565048329
    One-Electron Energy =               -2136.3374882754324062
    Two-Electron Energy =                 864.1949090165505822
    Total Energy =                       -641.4211665023769910
  Basis Set: (AUG-CC-PVTZ AUX)
    Blend: AUG-CC-PVTZ-RI
    Molecular point group: c1

    Geometry (in Angstrom), charge = 0, multiplicity = 1:

       Center              X                  Y                   Z               Mass
    ------------   -----------------  -----------------  -----------------  -----------------
         F            1.604601429632     1.084272989745     0.846627682394    18.998403162730
         F            2.896454429632    -0.000007010255    -0.534705317606    18.998403162730
         F            1.604596429632    -1.084261010255     0.846643682394    18.998403162730
         O            0.760216429632    -0.000006010255    -0.933479317606    15.994914619570
         C           -0.583531170368    -0.000002210255    -0.502939417606    12.000000000000
         C           -1.220599570368    -1.219434010255    -0.297126317606    12.000000000000
         C           -1.220594570368     1.219430989745    -0.297128317606    12.000000000000
         C           -2.563022570368    -1.210500010255     0.085239682394    12.000000000000
         C           -2.563018570368     1.210501989745     0.085237682394    12.000000000000
         C           -3.233386570368     0.000002989745     0.278737682394    12.000000000000
         C            1.695682429632    -0.000000010255     0.048142682394    12.000000000000
         H           -0.677392570368    -2.145010010255    -0.460611317606     1.007825032230
         H           -0.677385570368     2.145005989745    -0.460612317606     1.007825032230
         H           -3.084705570368    -2.152639010255     0.231812682394     1.007825032230
         H           -3.084697570368     2.152643989745     0.231807682394     1.007825032230
         H           -4.279051570368     0.000003989745     0.574739682394     1.007825032230

  Basis Set: AUG-CC-PVTZ
    Blend: AUG-CC-PVTZ
  Basis Set: (AUG-CC-PVTZ AUX)
    Blend: AUG-CC-PVTZ-JKFIT
	 Reference Energy          =    -641.4211665023769910 [Eh]
	 Singles Energy            =      -0.0000000000000000 [Eh]
	 Same-Spin Energy          =      -0.5848869663090104 [Eh]
	 Opposite-Spin Energy      =      -1.7203592527240894 [Eh]
	 Correlation Energy        =      -2.3052462190330996 [Eh]
	 Total Energy              =    -643.7264127214100426 [Eh]

	 ================> DF-SCS-MP2 Energies <==================
	-----------------------------------------------------------
	 SCS Same-Spin Scale       =       0.3333333333333333 [-]
	 SCS Opposite-Spin Scale   =       1.2000000000000000 [-]
	 SCS Same-Spin Energy      =      -0.1949623221030035 [Eh]
	 SCS Opposite-Spin Energy  =      -2.0644311032689071 [Eh]
	 SCS Correlation Energy    =      -2.2593934253719103 [Eh]
	 SCS Total Energy          =    -643.6805599277488454 [Eh]
	-----------------------------------------------------------

  Dipole Moment: [D]
     X:    -2.5513      Y:     0.0000      Z:     0.1307     Total:     2.5546

*** Psi4 exiting successfully. Buy a developer a beer!
