                               Psi4 1.3.2 release

  ==> Input File <==

--------------------------------------------------------------------------
#psi4
#
memory 32 gb

molecule  {
0 1
  F        1.7125910     1.0842730     0.8512900
  F        3.0044440    -0.0000070    -0.5300430
  F        1.7125860    -1.0842610     0.8513060
  O        0.8658523     0.0983831    -0.9250607
  C       -0.4678230    -0.0000020    -0.4748910
  C       -1.1126100    -1.2194340    -0.2924640
  C       -1.1126050     1.2194310    -0.2924660
  C       -2.4550330    -1.2105000     0.0899020
  C       -2.4550290     1.2105020     0.0899000
  C       -3.1253970     0.0000030     0.2834000
  C        1.8036720     0.0000000     0.0528050
  H       -0.5694030    -2.1450100    -0.4559490
  H       -0.5693960     2.1450060    -0.4559500
  H       -2.9767160    -2.1526390     0.2364750
  H       -2.9767080     2.1526440     0.2364700
  H       -4.1710620     0.0000040     0.5794020
units angstrom
no_reorient  #important for SAPT in psi4, default
symmetry c1  #important for SAPT in psi4, default
}

set PROPERTIES_ORIGIN ["COM"]
properties('MP2/aug-cc-pvtz', properties = ['dipole'])
--------------------------------------------------------------------------

    Molecular point group: c1
  Charge       = 0
  Multiplicity = 1
  Basis Set: AUG-CC-PVTZ
    Blend: AUG-CC-PVTZ
  Basis Set: (AUG-CC-PVTZ AUX)
    Blend: AUG-CC-PVTZ-JKFIT

    Orbital Energies [Eh]
    ---------------------

    Doubly Occupied:

       1A    -26.353174     2A    -26.350288     3A    -26.341892
       4A    -20.633866     5A    -11.567969     6A    -11.320463
       7A    -11.259324     8A    -11.257662     9A    -11.256380
      10A    -11.254538    11A    -11.253223    12A     -1.744301
      13A     -1.647912    14A     -1.641086    15A     -1.460869
      16A     -1.170606    17A     -1.043333    18A     -1.038358
      19A     -0.963237    20A     -0.874545    21A     -0.861386
      22A     -0.840204    23A     -0.836187    24A     -0.800409
      25A     -0.732664    26A     -0.722852    27A     -0.712082
      28A     -0.677514    29A     -0.674973    30A     -0.671026
      31A     -0.660055    32A     -0.657769    33A     -0.641935
      34A     -0.613619    35A     -0.609137    36A     -0.558669
      37A     -0.534385    38A     -0.518101    39A     -0.505991
      40A     -0.357080    41A     -0.354302

  @DF-RHF Final Energy:  -641.41859410086943

   => Energetics <=

    Nuclear Repulsion Energy =            630.8938512310560327
    One-Electron Energy =               -2136.6781657410474509
    Two-Electron Energy =                 864.3657204091219910
    Total Energy =                       -641.4185941008694272
  Basis Set: (AUG-CC-PVTZ AUX)
    Blend: AUG-CC-PVTZ-RI
    Molecular point group: c1

    Geometry (in Angstrom), charge = 0, multiplicity = 1:

       Center              X                  Y                   Z               Mass
    ------------   -----------------  -----------------  -----------------  -----------------
         F            1.604262133056     1.074560375133     0.844524883675    18.998403162730
         F            2.896115133056    -0.009719624867    -0.536808116325    18.998403162730
         F            1.604257133056    -1.093973624867     0.844540883675    18.998403162730
         O            0.757523433056     0.088670475133    -0.931825816325    15.994914619570
         C           -0.576151866944    -0.009714624867    -0.481656116325    12.000000000000
         C           -1.220938866944    -1.229146624867    -0.299229116325    12.000000000000
         C           -1.220933866944     1.209718375133    -0.299231116325    12.000000000000
         C           -2.563361866944    -1.220212624867     0.083136883675    12.000000000000
         C           -2.563357866944     1.200789375133     0.083134883675    12.000000000000
         C           -3.233725866944    -0.009709624867     0.276634883675    12.000000000000
         C            1.695343133056    -0.009712624867     0.046039883675    12.000000000000
         H           -0.677731866944    -2.154722624867    -0.462714116325     1.007825032230
         H           -0.677724866944     2.135293375133    -0.462715116325     1.007825032230
         H           -3.085044866944    -2.162351624867     0.229709883675     1.007825032230
         H           -3.085036866944     2.142931375133     0.229704883675     1.007825032230
         H           -4.279390866944    -0.009708624867     0.572636883675     1.007825032230

  Basis Set: AUG-CC-PVTZ
    Blend: AUG-CC-PVTZ
  Basis Set: (AUG-CC-PVTZ AUX)
    Blend: AUG-CC-PVTZ-JKFIT
	 Reference Energy          =    -641.4185941008694272 [Eh]
	 Singles Energy            =      -0.0000000000000000 [Eh]
	 Same-Spin Energy          =      -0.5850768969975400 [Eh]
	 Opposite-Spin Energy      =      -1.7208092765211549 [Eh]
	 Correlation Energy        =      -2.3058861735186946 [Eh]
	 Total Energy              =    -643.7244802743881564 [Eh]

	 ================> DF-SCS-MP2 Energies <==================
	-----------------------------------------------------------
	 SCS Same-Spin Scale       =       0.3333333333333333 [-]
	 SCS Opposite-Spin Scale   =       1.2000000000000000 [-]
	 SCS Same-Spin Energy      =      -0.1950256323325133 [Eh]
	 SCS Opposite-Spin Energy  =      -2.0649711318253856 [Eh]
	 SCS Correlation Energy    =      -2.2599967641578989 [Eh]
	 SCS Total Energy          =    -643.6785908650273313 [Eh]
	-----------------------------------------------------------

  Dipole Moment: [D]
     X:    -2.5152      Y:    -0.1770      Z:     0.1254     Total:     2.5245

*** Psi4 exiting successfully. Buy a developer a beer!
