                               Psi4 1.3.2 release

  ==> Input File <==

--------------------------------------------------------------------------
#psi4
#
memory 32 gb

molecule  {
0 1
  F        1.7125910     1.0842730     0.8512900
  F        3.0044440    -0.0000070    -0.5300430
  F        1.7125860    -1.0842610     0.8513060
  O        0.8682060    -0.0000060    -0.9288170
  C       -0.5079523    -0.0000029    -0.6170307
  C       -1.1126100    -1.2194340    -0.2924640
  C       -1.1126050     1.2194310    -0.2924660
  C       -2.4550330    -1.2105000     0.0899020
  C       -2.4550290     1.2105020     0.0899000
  C       -3.1253970     0.0000030     0.2834000
  C        1.8036720     0.0000000     0.0528050
  H       -0.5694030    -2.1450100    -0.4559490
  H       -0.5693960     2.1450060    -0.4559500
  H       -2.9767160    -2.1526390     0.2364750
  H       -2.9767080     2.1526440     0.2364700
  H       -4.1710620     0.0000040     0.5794020
units angstrom
no_reorient  #important for SAPT in psi4, default
symmetry c1  #important for SAPT in psi4, default
}

set PROPERTIES_ORIGIN ["COM"]
properties('MP2/aug-cc-pvtz', properties = ['dipole'])
--------------------------------------------------------------------------

    Molecular point group: c1
  Charge       = 0
  Multiplicity = 1
  Basis Set: AUG-CC-PVTZ
    Blend: AUG-CC-PVTZ
  Basis Set: (AUG-CC-PVTZ AUX)
    Blend: AUG-CC-PVTZ-JKFIT

    Orbital Energies [Eh]
    ---------------------

    Doubly Occupied:

       1A    -26.349813     2A    -26.346273     3A    -26.346250
       4A    -20.627816     5A    -11.568493     6A    -11.324133
       7A    -11.259399     8A    -11.259378     9A    -11.257435
      10A    -11.257145    11A    -11.254846    12A     -1.742785
      13A     -1.646032    14A     -1.640390    15A     -1.455612
      16A     -1.170548    17A     -1.044549    18A     -1.038600
      19A     -0.963090    20A     -0.875462    21A     -0.860075
      22A     -0.838712    23A     -0.836568    24A     -0.799616
      25A     -0.730385    26A     -0.720708    27A     -0.712211
      28A     -0.675476    29A     -0.673977    30A     -0.672485
      31A     -0.659526    32A     -0.656839    33A     -0.640362
      34A     -0.609923    35A     -0.609649    36A     -0.556940
      37A     -0.536596    38A     -0.514520    39A     -0.504759
      40A     -0.356794    41A     -0.354742

  @DF-RHF Final Energy:  -641.41405087154442

   => Energetics <=

    Nuclear Repulsion Energy =            629.6154982843031576
    One-Electron Energy =               -2134.1612781825006095
    Two-Electron Energy =                 863.1317290266530335
    Total Energy =                       -641.4140508715444184
  Basis Set: (AUG-CC-PVTZ AUX)
    Blend: AUG-CC-PVTZ-RI
    Molecular point group: c1

    Geometry (in Angstrom), charge = 0, multiplicity = 1:

       Center              X                  Y                   Z               Mass
    ------------   -----------------  -----------------  -----------------  -----------------
         F            1.607001788837     1.084273041587     0.855422657415    18.998403162730
         F            2.898854788837    -0.000006958413    -0.525910342585    18.998403162730
         F            1.606996788837    -1.084260958413     0.855438657415    18.998403162730
         O            0.762616788837    -0.000005958413    -0.924684342585    15.994914619570
         C           -0.613541511163    -0.000002858413    -0.612898042585    12.000000000000
         C           -1.218199211163    -1.219433958413    -0.288331342585    12.000000000000
         C           -1.218194211163     1.219431041587    -0.288333342585    12.000000000000
         C           -2.560622211163    -1.210499958413     0.094034657415    12.000000000000
         C           -2.560618211163     1.210502041587     0.094032657415    12.000000000000
         C           -3.230986211163     0.000003041587     0.287532657415    12.000000000000
         C            1.698082788837     0.000000041587     0.056937657415    12.000000000000
         H           -0.674992211163    -2.145009958413    -0.451816342585     1.007825032230
         H           -0.674985211163     2.145006041587    -0.451817342585     1.007825032230
         H           -3.082305211163    -2.152638958413     0.240607657415     1.007825032230
         H           -3.082297211163     2.152644041587     0.240602657415     1.007825032230
         H           -4.276651211163     0.000004041587     0.583534657415     1.007825032230

  Basis Set: AUG-CC-PVTZ
    Blend: AUG-CC-PVTZ
  Basis Set: (AUG-CC-PVTZ AUX)
    Blend: AUG-CC-PVTZ-JKFIT
	 Reference Energy          =    -641.4140508715444184 [Eh]
	 Singles Energy            =      -0.0000000000000000 [Eh]
	 Same-Spin Energy          =      -0.5848853728136354 [Eh]
	 Opposite-Spin Energy      =      -1.7206137749967998 [Eh]
	 Correlation Energy        =      -2.3054991478104352 [Eh]
	 Total Energy              =    -643.7195500193548696 [Eh]

	 ================> DF-SCS-MP2 Energies <==================
	-----------------------------------------------------------
	 SCS Same-Spin Scale       =       0.3333333333333333 [-]
	 SCS Opposite-Spin Scale   =       1.2000000000000000 [-]
	 SCS Same-Spin Energy      =      -0.1949617909378785 [Eh]
	 SCS Opposite-Spin Energy  =      -2.0647365299961598 [Eh]
	 SCS Correlation Energy    =      -2.2596983209340382 [Eh]
	 SCS Total Energy          =    -643.6737491924784536 [Eh]
	-----------------------------------------------------------

  Dipole Moment: [D]
     X:    -2.6365      Y:     0.0000      Z:     0.1393     Total:     2.6402

*** Psi4 exiting successfully. Buy a developer a beer!
