                               Psi4 1.3.2 release

  ==> Input File <==

--------------------------------------------------------------------------
#psi4
#
memory 32 gb

molecule  {
0 1
  F        1.7125910     1.0842730     0.8512900
  F        3.0044440    -0.0000070    -0.5300430
  F        1.7125860    -1.0842610     0.8513060
  O        0.8682060    -0.0000060    -0.9288170
  C       -0.4511673    -0.0000017    -0.4285408
  C       -1.1126100    -1.2194340    -0.2924640
  C       -1.1126050     1.2194310    -0.2924660
  C       -2.4550330    -1.2105000     0.0899020
  C       -2.4550290     1.2105020     0.0899000
  C       -3.1253970     0.0000030     0.2834000
  C        1.8036720     0.0000000     0.0528050
  H       -0.5694030    -2.1450100    -0.4559490
  H       -0.5693960     2.1450060    -0.4559500
  H       -2.9767160    -2.1526390     0.2364750
  H       -2.9767080     2.1526440     0.2364700
  H       -4.1710620     0.0000040     0.5794020
units angstrom
no_reorient  #important for SAPT in psi4, default
symmetry c1  #important for SAPT in psi4, default
}

set PROPERTIES_ORIGIN ["COM"]
properties('MP2/aug-cc-pvtz', properties = ['dipole'])
--------------------------------------------------------------------------

    Molecular point group: c1
  Charge       = 0
  Multiplicity = 1
  Basis Set: AUG-CC-PVTZ
    Blend: AUG-CC-PVTZ
  Basis Set: (AUG-CC-PVTZ AUX)
    Blend: AUG-CC-PVTZ-JKFIT

    Orbital Energies [Eh]
    ---------------------

    Doubly Occupied:

       1A    -26.349655     2A    -26.347768     3A    -26.347745
       4A    -20.635592     5A    -11.567304     6A    -11.319974
       7A    -11.257836     8A    -11.257823     9A    -11.256618
      10A    -11.256433    11A    -11.253585    12A     -1.744426
      13A     -1.646901    14A     -1.642150    15A     -1.463516
      16A     -1.170108    17A     -1.042649    18A     -1.038138
      19A     -0.962831    20A     -0.873938    21A     -0.861350
      22A     -0.839253    23A     -0.837558    24A     -0.800625
      25A     -0.733185    26A     -0.722660    27A     -0.712136
      28A     -0.677209    29A     -0.675380    30A     -0.670498
      31A     -0.659910    32A     -0.657846    33A     -0.643828
      34A     -0.614138    35A     -0.609098    36A     -0.559336
      37A     -0.534400    38A     -0.518264    39A     -0.506321
      40A     -0.356679    41A     -0.354563

  @DF-RHF Final Energy:  -641.41971015103627

   => Energetics <=

    Nuclear Repulsion Energy =            631.2075623147384249
    One-Electron Energy =               -2137.2960890408789965
    Two-Electron Energy =                 864.6688165751043016
    Total Energy =                       -641.4197101510362700
  Basis Set: (AUG-CC-PVTZ AUX)
    Blend: AUG-CC-PVTZ-RI
    Molecular point group: c1

    Geometry (in Angstrom), charge = 0, multiplicity = 1:

       Center              X                  Y                   Z               Mass
    ------------   -----------------  -----------------  -----------------  -----------------
         F            1.602796251855     1.084272952714     0.841462963037    18.998403162730
         F            2.894649251855    -0.000007047286    -0.539870036963    18.998403162730
         F            1.602791251855    -1.084261047286     0.841478963037    18.998403162730
         O            0.758411251855    -0.000006047286    -0.938644036963    15.994914619570
         C           -0.560962048145    -0.000001747286    -0.438367836963    12.000000000000
         C           -1.222404748145    -1.219434047286    -0.302291036963    12.000000000000
         C           -1.222399748145     1.219430952714    -0.302293036963    12.000000000000
         C           -2.564827748145    -1.210500047286     0.080074963037    12.000000000000
         C           -2.564823748145     1.210501952714     0.080072963037    12.000000000000
         C           -3.235191748145     0.000002952714     0.273572963037    12.000000000000
         C            1.693877251855    -0.000000047286     0.042977963037    12.000000000000
         H           -0.679197748145    -2.145010047286    -0.465776036963     1.007825032230
         H           -0.679190748145     2.145005952714    -0.465777036963     1.007825032230
         H           -3.086510748145    -2.152639047286     0.226647963037     1.007825032230
         H           -3.086502748145     2.152643952714     0.226642963037     1.007825032230
         H           -4.280856748145     0.000003952714     0.569574963037     1.007825032230

  Basis Set: AUG-CC-PVTZ
    Blend: AUG-CC-PVTZ
  Basis Set: (AUG-CC-PVTZ AUX)
    Blend: AUG-CC-PVTZ-JKFIT
	 Reference Energy          =    -641.4197101510362700 [Eh]
	 Singles Energy            =      -0.0000000000000000 [Eh]
	 Same-Spin Energy          =      -0.5851727751843652 [Eh]
	 Opposite-Spin Energy      =      -1.7210989716898268 [Eh]
	 Correlation Energy        =      -2.3062717468741920 [Eh]
	 Total Energy              =    -643.7259818979105148 [Eh]

	 ================> DF-SCS-MP2 Energies <==================
	-----------------------------------------------------------
	 SCS Same-Spin Scale       =       0.3333333333333333 [-]
	 SCS Opposite-Spin Scale   =       1.2000000000000000 [-]
	 SCS Same-Spin Energy      =      -0.1950575917281217 [Eh]
	 SCS Opposite-Spin Energy  =      -2.0653187660277923 [Eh]
	 SCS Correlation Energy    =      -2.2603763577559142 [Eh]
	 SCS Total Energy          =    -643.6800865087922148 [Eh]
	-----------------------------------------------------------

  Dipole Moment: [D]
     X:    -2.5238      Y:     0.0000      Z:     0.1304     Total:     2.5271

*** Psi4 exiting successfully. Buy a developer a beer!
