                               Psi4 1.3.2 release

  ==> Input File <==

--------------------------------------------------------------------------
#psi4
#
memory 32 gb

molecule  {
0 1
  F        1.7125910     1.0842730     0.8512900
  F        3.0044440    -0.0000070    -0.5300430
  F        1.7125860    -1.0842610     0.8513060
  O        0.8682060    -0.0000060    -0.9288170
  C       -0.4678230    -0.0000020    -0.4748910
  C       -1.1126100    -1.2194340    -0.2924640
  C       -1.1126050     1.2194310    -0.2924660
  C       -2.4550330    -1.2105000     0.0899020
  C       -2.4550290     1.2105020     0.0899000
  C       -3.1253970     0.0000030     0.2834000
  C        1.9416485     0.0000009     0.1975893
  H       -0.5694030    -2.1450100    -0.4559490
  H       -0.5693960     2.1450060    -0.4559500
  H       -2.9767160    -2.1526390     0.2364750
  H       -2.9767080     2.1526440     0.2364700
  H       -4.1710620     0.0000040     0.5794020
units angstrom
no_reorient  #important for SAPT in psi4, default
symmetry c1  #important for SAPT in psi4, default
}

set PROPERTIES_ORIGIN ["COM"]
properties('MP2/aug-cc-pvtz', properties = ['dipole'])
--------------------------------------------------------------------------

    Molecular point group: c1
  Charge       = 0
  Multiplicity = 1
  Basis Set: AUG-CC-PVTZ
    Blend: AUG-CC-PVTZ
  Basis Set: (AUG-CC-PVTZ AUX)
    Blend: AUG-CC-PVTZ-JKFIT

    Orbital Energies [Eh]
    ---------------------

    Doubly Occupied:

       1A    -26.384273     2A    -26.384250     3A    -26.379953
       4A    -20.586017     5A    -11.583147     6A    -11.298503
       7A    -11.245598     8A    -11.245481     9A    -11.240597
      10A    -11.240593    11A    -11.240070    12A     -1.793797
      13A     -1.699405    14A     -1.696820    15A     -1.372959
      16A     -1.152542    17A     -1.024837    18A     -1.023451
      19A     -0.984253    20A     -0.889195    21A     -0.888066
      22A     -0.861614    23A     -0.842159    24A     -0.802361
      25A     -0.753266    26A     -0.751200    27A     -0.723585
      28A     -0.720302    29A     -0.699328    30A     -0.694359
      31A     -0.648418    32A     -0.646839    33A     -0.602682
      34A     -0.596781    35A     -0.577158    36A     -0.527772
      37A     -0.517550    38A     -0.496259    39A     -0.478767
      40A     -0.345248    41A     -0.335001

  @DF-RHF Final Energy:  -641.38689300991564

   => Energetics <=

    Nuclear Repulsion Energy =            629.7961827693707164
    One-Electron Energy =               -2134.4172420959644114
    Two-Electron Energy =                 863.2341663166780563
    Total Energy =                       -641.3868930099156387
  Basis Set: (AUG-CC-PVTZ AUX)
    Blend: AUG-CC-PVTZ-RI
    Molecular point group: c1

    Geometry (in Angstrom), charge = 0, multiplicity = 1:

       Center              X                  Y                   Z               Mass
    ------------   -----------------  -----------------  -----------------  -----------------
         F            1.593811148199     1.084272908278     0.834172864457    18.998403162730
         F            2.885664148199    -0.000007091722    -0.547160135543    18.998403162730
         F            1.593806148199    -1.084261091722     0.834188864457    18.998403162730
         O            0.749426148199    -0.000006091722    -0.945934135543    15.994914619570
         C           -0.586602851801    -0.000002091722    -0.492008135543    12.000000000000
         C           -1.231389851801    -1.219434091722    -0.309581135543    12.000000000000
         C           -1.231384851801     1.219430908278    -0.309583135543    12.000000000000
         C           -2.573812851801    -1.210500091722     0.072784864457    12.000000000000
         C           -2.573808851801     1.210501908278     0.072782864457    12.000000000000
         C           -3.244176851801     0.000002908278     0.266282864457    12.000000000000
         C            1.822868648199     0.000000808278     0.180472164457    12.000000000000
         H           -0.688182851801    -2.145010091722    -0.473066135543     1.007825032230
         H           -0.688175851801     2.145005908278    -0.473067135543     1.007825032230
         H           -3.095495851801    -2.152639091722     0.219357864457     1.007825032230
         H           -3.095487851801     2.152643908278     0.219352864457     1.007825032230
         H           -4.289841851801     0.000003908278     0.562284864457     1.007825032230

  Basis Set: AUG-CC-PVTZ
    Blend: AUG-CC-PVTZ
  Basis Set: (AUG-CC-PVTZ AUX)
    Blend: AUG-CC-PVTZ-JKFIT
	 Reference Energy          =    -641.3868930099156387 [Eh]
	 Singles Energy            =      -0.0000000000000000 [Eh]
	 Same-Spin Energy          =      -0.5862627879378897 [Eh]
	 Opposite-Spin Energy      =      -1.7220820960122749 [Eh]
	 Correlation Energy        =      -2.3083448839501646 [Eh]
	 Total Energy              =    -643.6952378938658512 [Eh]

	 ================> DF-SCS-MP2 Energies <==================
	-----------------------------------------------------------
	 SCS Same-Spin Scale       =       0.3333333333333333 [-]
	 SCS Opposite-Spin Scale   =       1.2000000000000000 [-]
	 SCS Same-Spin Energy      =      -0.1954209293126299 [Eh]
	 SCS Opposite-Spin Energy  =      -2.0664985152147297 [Eh]
	 SCS Correlation Energy    =      -2.2619194445273596 [Eh]
	 SCS Total Energy          =    -643.6488124544430320 [Eh]
	-----------------------------------------------------------

  Dipole Moment: [D]
     X:    -0.5427      Y:     0.0000      Z:     1.2656     Total:     1.3770

*** Psi4 exiting successfully. Buy a developer a beer!
