                               Psi4 1.3.2 release

  ==> Input File <==

--------------------------------------------------------------------------
#psi4
#
memory 32 gb

molecule  {
0 1
  F        1.6399175     1.1128699     0.7986113
  F        3.0044440    -0.0000070    -0.5300430
  F        1.7125860    -1.0842610     0.8513060
  O        0.8682060    -0.0000060    -0.9288170
  C       -0.4678230    -0.0000020    -0.4748910
  C       -1.1126100    -1.2194340    -0.2924640
  C       -1.1126050     1.2194310    -0.2924660
  C       -2.4550330    -1.2105000     0.0899020
  C       -2.4550290     1.2105020     0.0899000
  C       -3.1253970     0.0000030     0.2834000
  C        1.8036720     0.0000000     0.0528050
  H       -0.5694030    -2.1450100    -0.4559490
  H       -0.5693960     2.1450060    -0.4559500
  H       -2.9767160    -2.1526390     0.2364750
  H       -2.9767080     2.1526440     0.2364700
  H       -4.1710620     0.0000040     0.5794020
units angstrom
no_reorient  #important for SAPT in psi4, default
symmetry c1  #important for SAPT in psi4, default
}

set PROPERTIES_ORIGIN ["COM"]
properties('MP2/aug-cc-pvtz', properties = ['dipole'])
--------------------------------------------------------------------------

    Molecular point group: c1
  Charge       = 0
  Multiplicity = 1
  Basis Set: AUG-CC-PVTZ
    Blend: AUG-CC-PVTZ
  Basis Set: (AUG-CC-PVTZ AUX)
    Blend: AUG-CC-PVTZ-JKFIT

    Orbital Energies [Eh]
    ---------------------

    Doubly Occupied:

       1A    -26.353446     2A    -26.351455     3A    -26.348599
       4A    -20.628748     5A    -11.568686     6A    -11.318875
       7A    -11.256560     8A    -11.256407     9A    -11.255344
      10A    -11.255139    11A    -11.252284    12A     -1.744735
      13A     -1.649763    14A     -1.645891    15A     -1.457953
      16A     -1.169544    17A     -1.042475    18A     -1.037341
      19A     -0.963329    20A     -0.872832    21A     -0.861025
      22A     -0.842027    23A     -0.839272    24A     -0.799544
      25A     -0.732691    26A     -0.725024    27A     -0.712412
      28A     -0.679818    29A     -0.678860    30A     -0.670533
      31A     -0.662236    32A     -0.658886    33A     -0.639998
      34A     -0.611100    35A     -0.608156    36A     -0.555840
      37A     -0.533317    38A     -0.516697    39A     -0.504742
      40A     -0.355926    41A     -0.353290

  @DF-RHF Final Energy:  -641.41927596188282

   => Energetics <=

    Nuclear Repulsion Energy =            631.8440822726736315
    One-Electron Energy =               -2138.5851208638796379
    Two-Electron Energy =                 865.3217626293231888
    Total Energy =                       -641.4192759618828177
  Basis Set: (AUG-CC-PVTZ AUX)
    Blend: AUG-CC-PVTZ-RI
    Molecular point group: c1

    Geometry (in Angstrom), charge = 0, multiplicity = 1:

       Center              X                  Y                   Z               Mass
    ------------   -----------------  -----------------  -----------------  -----------------
         F            1.539877465028     1.109516804806     0.798393722982    18.998403162730
         F            2.904403965028    -0.003360095194    -0.530260577018    18.998403162730
         F            1.612545965028    -1.087614095194     0.851088422982    18.998403162730
         O            0.768165965028    -0.003359095194    -0.929034577018    15.994914619570
         C           -0.567863034972    -0.003355095194    -0.475108577018    12.000000000000
         C           -1.212650034972    -1.222787095194    -0.292681577018    12.000000000000
         C           -1.212645034972     1.216077904806    -0.292683577018    12.000000000000
         C           -2.555073034972    -1.213853095194     0.089684422982    12.000000000000
         C           -2.555069034972     1.207148904806     0.089682422982    12.000000000000
         C           -3.225437034972    -0.003350095194     0.283182422982    12.000000000000
         C            1.703631965028    -0.003353095194     0.052587422982    12.000000000000
         H           -0.669443034972    -2.148363095194    -0.456166577018     1.007825032230
         H           -0.669436034972     2.141652904806    -0.456167577018     1.007825032230
         H           -3.076756034972    -2.155992095194     0.236257422982     1.007825032230
         H           -3.076748034972     2.149290904806     0.236252422982     1.007825032230
         H           -4.271102034972    -0.003349095194     0.579184422982     1.007825032230

  Basis Set: AUG-CC-PVTZ
    Blend: AUG-CC-PVTZ
  Basis Set: (AUG-CC-PVTZ AUX)
    Blend: AUG-CC-PVTZ-JKFIT
	 Reference Energy          =    -641.4192759618828177 [Eh]
	 Singles Energy            =      -0.0000000000000000 [Eh]
	 Same-Spin Energy          =      -0.5851241965893935 [Eh]
	 Opposite-Spin Energy      =      -1.7208172830217014 [Eh]
	 Correlation Energy        =      -2.3059414796110951 [Eh]
	 Total Energy              =    -643.7252174414938963 [Eh]

	 ================> DF-SCS-MP2 Energies <==================
	-----------------------------------------------------------
	 SCS Same-Spin Scale       =       0.3333333333333333 [-]
	 SCS Opposite-Spin Scale   =       1.2000000000000000 [-]
	 SCS Same-Spin Energy      =      -0.1950413988631312 [Eh]
	 SCS Opposite-Spin Energy  =      -2.0649807396260416 [Eh]
	 SCS Correlation Energy    =      -2.2600221384891728 [Eh]
	 SCS Total Energy          =    -643.6792981003719660 [Eh]
	-----------------------------------------------------------

  Dipole Moment: [D]
     X:    -2.3577      Y:    -0.0198      Z:     0.2175     Total:     2.3678

*** Psi4 exiting successfully. Buy a developer a beer!
