                               Psi4 1.4a3.dev225

  ==> Input File <==

--------------------------------------------------------------------------
#psi4
#
memory 32 gb

molecule  {
0 1
  F        1.7125910     1.0842730     0.8512900
  F        3.0044440    -0.0000070    -0.5300430
  F        1.7125860    -1.0842610     0.8513060
  O        0.8682060    -0.0000060    -0.9288170
  C       -0.5151651    -0.0000019    -0.4588062
  C       -1.1126100    -1.2194340    -0.2924640
  C       -1.1126050     1.2194310    -0.2924660
  C       -2.4550330    -1.2105000     0.0899020
  C       -2.4550290     1.2105020     0.0899000
  C       -3.1253970     0.0000030     0.2834000
  C        1.8036720     0.0000000     0.0528050
  H       -0.5694030    -2.1450100    -0.4559490
  H       -0.5693960     2.1450060    -0.4559500
  H       -2.9767160    -2.1526390     0.2364750
  H       -2.9767080     2.1526440     0.2364700
  H       -4.1710620     0.0000040     0.5794020
units angstrom
no_reorient  #important for SAPT in psi4, default
symmetry c1  #important for SAPT in psi4, default
}

set PROPERTIES_ORIGIN ["COM"]
properties('MP2/aug-cc-pvtz', properties = ['dipole'])
--------------------------------------------------------------------------

    Molecular point group: c1
  Charge       = 0
  Multiplicity = 1
  Basis Set: AUG-CC-PVTZ
    Blend: AUG-CC-PVTZ
  Basis Set: (AUG-CC-PVTZ AUX)
    Blend: AUG-CC-PVTZ-JKFIT

    Orbital Energies [Eh]
    ---------------------

    Doubly Occupied:

       1A    -26.345926     2A    -26.343820     3A    -26.343797
       4A    -20.625861     5A    -11.562216     6A    -11.319819
       7A    -11.259522     8A    -11.259392     9A    -11.257021
      10A    -11.257016    11A    -11.254880    12A     -1.740033
      13A     -1.643080    14A     -1.638288    15A     -1.443250
      16A     -1.178771    17A     -1.044194    18A     -1.043711
      19A     -0.958559    20A     -0.866921    21A     -0.864107
      22A     -0.835242    23A     -0.834383    24A     -0.799928
      25A     -0.730655    26A     -0.718490    27A     -0.712099
      28A     -0.672715    29A     -0.672170    30A     -0.665547
      31A     -0.660907    32A     -0.654421    33A     -0.639528
      34A     -0.615001    35A     -0.606080    36A     -0.553206
      37A     -0.533161    38A     -0.523455    39A     -0.514373
      40A     -0.360577    41A     -0.359956

  @DF-RHF Final Energy:  -641.41841731503393

   => Energetics <=

    Nuclear Repulsion Energy =            630.7243639130228985
    One-Electron Energy =               -2136.4614051392136389
    Two-Electron Energy =                 864.3186239111568057
    Total Energy =                       -641.4184173150339348
  Basis Set: (AUG-CC-PVTZ AUX)
    Blend: AUG-CC-PVTZ-RI
    Molecular point group: c1

    Geometry (in Angstrom), charge = 0, multiplicity = 1:

       Center              X                  Y                   Z               Mass
    ------------   -----------------  -----------------  -----------------  -----------------
         F            1.607535973871     1.084272967527     0.843704439818    18.998403162730
         F            2.899388973871    -0.000007032473    -0.537628560182    18.998403162730
         F            1.607530973871    -1.084261032473     0.843720439818    18.998403162730
         O            0.763150973871    -0.000006032473    -0.936402560182    15.994914619570
         C           -0.620220126129    -0.000001932473    -0.466391760182    12.000000000000
         C           -1.217665026129    -1.219434032473    -0.300049560182    12.000000000000
         C           -1.217660026129     1.219430967527    -0.300051560182    12.000000000000
         C           -2.560088026129    -1.210500032473     0.082316439818    12.000000000000
         C           -2.560084026129     1.210501967527     0.082314439818    12.000000000000
         C           -3.230452026129     0.000002967527     0.275814439818    12.000000000000
         C            1.698616973871    -0.000000032473     0.045219439818    12.000000000000
         H           -0.674458026129    -2.145010032473    -0.463534560182     1.007825032230
         H           -0.674451026129     2.145005967527    -0.463535560182     1.007825032230
         H           -3.081771026129    -2.152639032473     0.228889439818     1.007825032230
         H           -3.081763026129     2.152643967527     0.228884439818     1.007825032230
         H           -4.276117026129     0.000003967527     0.571816439818     1.007825032230

  Basis Set: AUG-CC-PVTZ
    Blend: AUG-CC-PVTZ
  Basis Set: (AUG-CC-PVTZ AUX)
    Blend: AUG-CC-PVTZ-JKFIT
	 Reference Energy          =    -641.4184173150339348 [Eh]
	 Singles Energy            =      -0.0000000000000000 [Eh]
	 Same-Spin Energy          =      -0.5849376407167266 [Eh]
	 Opposite-Spin Energy      =      -1.7206726462261224 [Eh]
	 Correlation Energy        =      -2.3056102869428488 [Eh]
	 Total Energy              =    -643.7240276019767862 [Eh]

	 ================> DF-SCS-MP2 Energies <==================
	-----------------------------------------------------------
	 SCS Same-Spin Scale       =       0.3333333333333333 [-]
	 SCS Opposite-Spin Scale   =       1.2000000000000000 [-]
	 SCS Same-Spin Energy      =      -0.1949792135722422 [Eh]
	 SCS Opposite-Spin Energy  =      -2.0648071754713468 [Eh]
	 SCS Correlation Energy    =      -2.2597863890435890 [Eh]
	 SCS Total Energy          =    -643.6782037040775322 [Eh]
	-----------------------------------------------------------

  Dipole Moment: [D]
     X:    -2.8255      Y:     0.0000      Z:     0.1620     Total:     2.8301

*** Psi4 exiting successfully. Buy a developer a beer!
