                               Psi4 1.3.2 release

  ==> Input File <==

--------------------------------------------------------------------------
#psi4
#
memory 32 gb

molecule  {
0 1
  F        1.7125910     1.0842730     0.8512900
  F        3.0044440    -0.0000070    -0.5300430
  F        1.7125860    -1.0842610     0.8513060
  O        0.8682060    -0.0000060    -0.9288170
  C       -0.5625073    -0.0000017    -0.4427213
  C       -1.1126100    -1.2194340    -0.2924640
  C       -1.1126050     1.2194310    -0.2924660
  C       -2.4550330    -1.2105000     0.0899020
  C       -2.4550290     1.2105020     0.0899000
  C       -3.1253970     0.0000030     0.2834000
  C        1.8036720     0.0000000     0.0528050
  H       -0.5694030    -2.1450100    -0.4559490
  H       -0.5693960     2.1450060    -0.4559500
  H       -2.9767160    -2.1526390     0.2364750
  H       -2.9767080     2.1526440     0.2364700
  H       -4.1710620     0.0000040     0.5794020
units angstrom
no_reorient  #important for SAPT in psi4, default
symmetry c1  #important for SAPT in psi4, default
}

set PROPERTIES_ORIGIN ["COM"]
properties('MP2/aug-cc-pvtz', properties = ['dipole'])
--------------------------------------------------------------------------

    Molecular point group: c1
  Charge       = 0
  Multiplicity = 1
  Basis Set: AUG-CC-PVTZ
    Blend: AUG-CC-PVTZ
  Basis Set: (AUG-CC-PVTZ AUX)
    Blend: AUG-CC-PVTZ-JKFIT

    Orbital Energies [Eh]
    ---------------------

    Doubly Occupied:

       1A    -26.341803     2A    -26.340138     3A    -26.340114
       4A    -20.617039     5A    -11.556637     6A    -11.319932
       7A    -11.261798     8A    -11.261681     9A    -11.257410
      10A    -11.257396    11A    -11.256304    12A     -1.735931
      13A     -1.639246    14A     -1.634768    15A     -1.426311
      16A     -1.187262    17A     -1.050488    18A     -1.044691
      19A     -0.953698    20A     -0.867527    21A     -0.860551
      22A     -0.832181    23A     -0.829930    24A     -0.798274
      25A     -0.730005    26A     -0.714736    27A     -0.711063
      28A     -0.670507    29A     -0.668862    30A     -0.662384
      31A     -0.661007    32A     -0.650953    33A     -0.636306
      34A     -0.620078    35A     -0.598062    36A     -0.547936
      37A     -0.534813    38A     -0.524229    39A     -0.519552
      40A     -0.365952    41A     -0.363057

  @DF-RHF Final Energy:  -641.41051414769242

   => Energetics <=

    Nuclear Repulsion Energy =            630.5972192430016321
    One-Electron Energy =               -2136.3142397663800693
    Two-Electron Energy =                 864.3065063756858990
    Total Energy =                       -641.4105141476924246
  Basis Set: (AUG-CC-PVTZ AUX)
    Blend: AUG-CC-PVTZ-RI
    Molecular point group: c1

    Geometry (in Angstrom), charge = 0, multiplicity = 1:

       Center              X                  Y                   Z               Mass
    ------------   -----------------  -----------------  -----------------  -----------------
         F            1.611042170453     1.084272952714     0.842513180827    18.998403162730
         F            2.902895170453    -0.000007047286    -0.538819819173    18.998403162730
         F            1.611037170453    -1.084261047286     0.842529180827    18.998403162730
         O            0.766657170453    -0.000006047286    -0.937593819173    15.994914619570
         C           -0.664056129547    -0.000001747286    -0.451498119173    12.000000000000
         C           -1.214158829547    -1.219434047286    -0.301240819173    12.000000000000
         C           -1.214153829547     1.219430952714    -0.301242819173    12.000000000000
         C           -2.556581829547    -1.210500047286     0.081125180827    12.000000000000
         C           -2.556577829547     1.210501952714     0.081123180827    12.000000000000
         C           -3.226945829547     0.000002952714     0.274623180827    12.000000000000
         C            1.702123170453    -0.000000047286     0.044028180827    12.000000000000
         H           -0.670951829547    -2.145010047286    -0.464725819173     1.007825032230
         H           -0.670944829547     2.145005952714    -0.464726819173     1.007825032230
         H           -3.078264829547    -2.152639047286     0.227698180827     1.007825032230
         H           -3.078256829547     2.152643952714     0.227693180827     1.007825032230
         H           -4.272610829547     0.000003952714     0.570625180827     1.007825032230

  Basis Set: AUG-CC-PVTZ
    Blend: AUG-CC-PVTZ
  Basis Set: (AUG-CC-PVTZ AUX)
    Blend: AUG-CC-PVTZ-JKFIT
	 Reference Energy          =    -641.4105141476924246 [Eh]
	 Singles Energy            =      -0.0000000000000000 [Eh]
	 Same-Spin Energy          =      -0.5851433314694566 [Eh]
	 Opposite-Spin Energy      =      -1.7211642973765295 [Eh]
	 Correlation Energy        =      -2.3063076288459863 [Eh]
	 Total Energy              =    -643.7168217765383815 [Eh]

	 ================> DF-SCS-MP2 Energies <==================
	-----------------------------------------------------------
	 SCS Same-Spin Scale       =       0.3333333333333333 [-]
	 SCS Opposite-Spin Scale   =       1.2000000000000000 [-]
	 SCS Same-Spin Energy      =      -0.1950477771564855 [Eh]
	 SCS Opposite-Spin Energy  =      -2.0653971568518354 [Eh]
	 SCS Correlation Energy    =      -2.2604449340083210 [Eh]
	 SCS Total Energy          =    -643.6709590817007438 [Eh]
	-----------------------------------------------------------

  Dipole Moment: [D]
     X:    -3.1115      Y:     0.0000      Z:     0.1939     Total:     3.1176

*** Psi4 exiting successfully. Buy a developer a beer!
