                               Psi4 1.3.2 release

  ==> Input File <==

--------------------------------------------------------------------------
#psi4
#
memory 32 gb

molecule  {
0 1
  F        1.7125910     1.0842730     0.8512900
  F        3.0044440    -0.0000070    -0.5300430
  F        1.7125860    -1.0842610     0.8513060
  O        0.8595372    -0.1474397    -0.9303021
  C       -0.4678230    -0.0000020    -0.4748910
  C       -1.1126100    -1.2194340    -0.2924640
  C       -1.1126050     1.2194310    -0.2924660
  C       -2.4550330    -1.2105000     0.0899020
  C       -2.4550290     1.2105020     0.0899000
  C       -3.1253970     0.0000030     0.2834000
  C        1.8036720     0.0000000     0.0528050
  H       -0.5694030    -2.1450100    -0.4559490
  H       -0.5693960     2.1450060    -0.4559500
  H       -2.9767160    -2.1526390     0.2364750
  H       -2.9767080     2.1526440     0.2364700
  H       -4.1710620     0.0000040     0.5794020
units angstrom
no_reorient  #important for SAPT in psi4, default
symmetry c1  #important for SAPT in psi4, default
}

set PROPERTIES_ORIGIN ["COM"]
properties('MP2/aug-cc-pvtz', properties = ['dipole'])
--------------------------------------------------------------------------

    Molecular point group: c1
  Charge       = 0
  Multiplicity = 1
  Basis Set: AUG-CC-PVTZ
    Blend: AUG-CC-PVTZ
  Basis Set: (AUG-CC-PVTZ AUX)
    Blend: AUG-CC-PVTZ-JKFIT

    Orbital Energies [Eh]
    ---------------------

    Doubly Occupied:

       1A    -26.357032     2A    -26.351390     3A    -26.340457
       4A    -20.634175     5A    -11.569431     6A    -11.319676
       7A    -11.259802     8A    -11.257770     9A    -11.255492
      10A    -11.253045    11A    -11.252675    12A     -1.744835
      13A     -1.649590    14A     -1.641268    15A     -1.456900
      16A     -1.169834    17A     -1.042109    18A     -1.037815
      19A     -0.963870    20A     -0.873932    21A     -0.860709
      22A     -0.840805    23A     -0.835216    24A     -0.800335
      25A     -0.732968    26A     -0.723788    27A     -0.712059
      28A     -0.678720    29A     -0.675253    30A     -0.670646
      31A     -0.660069    32A     -0.658468    33A     -0.640223
      34A     -0.613576    35A     -0.608564    36A     -0.558118
      37A     -0.533722    38A     -0.517730    39A     -0.504808
      40A     -0.356808    41A     -0.353444

  @DF-RHF Final Energy:  -641.41464902664654

   => Energetics <=

    Nuclear Repulsion Energy =            630.5852246385460376
    One-Electron Energy =               -2136.0654897448953307
    Two-Electron Energy =                 864.0656160797026359
    Total Energy =                       -641.4146490266465435
  Basis Set: (AUG-CC-PVTZ AUX)
    Blend: AUG-CC-PVTZ-RI
    Molecular point group: c1

    Geometry (in Angstrom), charge = 0, multiplicity = 1:

       Center              X                  Y                   Z               Mass
    ------------   -----------------  -----------------  -----------------  -----------------
         F            1.604885535842     1.098827072135     0.845042294858    18.998403162730
         F            2.896738535842     0.014547072135    -0.536290705142    18.998403162730
         F            1.604880535842    -1.069706927865     0.845058294858    18.998403162730
         O            0.751831735842    -0.132885627865    -0.936549805142    15.994914619570
         C           -0.575528464158     0.014552072135    -0.481138705142    12.000000000000
         C           -1.220315464158    -1.204879927865    -0.298711705142    12.000000000000
         C           -1.220310464158     1.233985072135    -0.298713705142    12.000000000000
         C           -2.562738464158    -1.195945927865     0.083654294858    12.000000000000
         C           -2.562734464158     1.225056072135     0.083652294858    12.000000000000
         C           -3.233102464158     0.014557072135     0.277152294858    12.000000000000
         C            1.695966535842     0.014554072135     0.046557294858    12.000000000000
         H           -0.677108464158    -2.130455927865    -0.462196705142     1.007825032230
         H           -0.677101464158     2.159560072135    -0.462197705142     1.007825032230
         H           -3.084421464158    -2.138084927865     0.230227294858     1.007825032230
         H           -3.084413464158     2.167198072135     0.230222294858     1.007825032230
         H           -4.278767464158     0.014558072135     0.573154294858     1.007825032230

  Basis Set: AUG-CC-PVTZ
    Blend: AUG-CC-PVTZ
  Basis Set: (AUG-CC-PVTZ AUX)
    Blend: AUG-CC-PVTZ-JKFIT
	 Reference Energy          =    -641.4146490266465435 [Eh]
	 Singles Energy            =      -0.0000000000000000 [Eh]
	 Same-Spin Energy          =      -0.5853290560224241 [Eh]
	 Opposite-Spin Energy      =      -1.7215416377312760 [Eh]
	 Correlation Energy        =      -2.3068706937537002 [Eh]
	 Total Energy              =    -643.7215197204002379 [Eh]

	 ================> DF-SCS-MP2 Energies <==================
	-----------------------------------------------------------
	 SCS Same-Spin Scale       =       0.3333333333333333 [-]
	 SCS Opposite-Spin Scale   =       1.2000000000000000 [-]
	 SCS Same-Spin Energy      =      -0.1951096853408080 [Eh]
	 SCS Opposite-Spin Energy  =      -2.0658499652775313 [Eh]
	 SCS Correlation Energy    =      -2.2609596506183394 [Eh]
	 SCS Total Energy          =    -643.6756086772649041 [Eh]
	-----------------------------------------------------------

  Dipole Moment: [D]
     X:    -2.4466      Y:     0.2627      Z:     0.1439     Total:     2.4648

*** Psi4 exiting successfully. Buy a developer a beer!
