                               Psi4 1.3.2 release

  ==> Input File <==

--------------------------------------------------------------------------
#psi4
#
memory 32 gb

molecule  {
0 1
  F        1.7125910     1.0842730     0.8512900
  F        3.0044440    -0.0000070    -0.5300430
  F        1.7125860    -1.0842610     0.8513060
  O        0.8682060    -0.0000060    -0.9288170
  C       -0.4678230    -0.0000020    -0.4748910
  C       -1.1126100    -1.2194340    -0.2924640
  C       -1.1126050     1.2194310    -0.2924660
  C       -2.4550330    -1.2105000     0.0899020
  C       -2.4550290     1.2105020     0.0899000
  C       -3.1253970     0.0000030     0.2834000
  C        1.8726602     0.0000004     0.1251971
  H       -0.5694030    -2.1450100    -0.4559490
  H       -0.5693960     2.1450060    -0.4559500
  H       -2.9767160    -2.1526390     0.2364750
  H       -2.9767080     2.1526440     0.2364700
  H       -4.1710620     0.0000040     0.5794020
units angstrom
no_reorient  #important for SAPT in psi4, default
symmetry c1  #important for SAPT in psi4, default
}

set PROPERTIES_ORIGIN ["COM"]
properties('MP2/aug-cc-pvtz', properties = ['dipole'])
--------------------------------------------------------------------------

    Molecular point group: c1
  Charge       = 0
  Multiplicity = 1
  Basis Set: AUG-CC-PVTZ
    Blend: AUG-CC-PVTZ
  Basis Set: (AUG-CC-PVTZ AUX)
    Blend: AUG-CC-PVTZ-JKFIT

    Orbital Energies [Eh]
    ---------------------

    Doubly Occupied:

       1A    -26.365966     2A    -26.365943     3A    -26.364917
       4A    -20.610912     5A    -11.573209     6A    -11.309300
       7A    -11.251495     8A    -11.251362     9A    -11.248726
      10A    -11.248721    11A    -11.246824    12A     -1.769838
      13A     -1.672963    14A     -1.671343    15A     -1.413347
      16A     -1.161422    17A     -1.031671    18A     -1.031355
      19A     -0.974287    20A     -0.873864    21A     -0.866399
      22A     -0.855107    23A     -0.847827    24A     -0.801857
      25A     -0.741759    26A     -0.736745    27A     -0.713678
      28A     -0.697503    29A     -0.694672    30A     -0.676641
      31A     -0.660142    32A     -0.654953    33A     -0.622926
      34A     -0.603137    35A     -0.598649    36A     -0.542307
      37A     -0.526358    38A     -0.508191    39A     -0.494111
      40A     -0.351145    41A     -0.345283

  @DF-RHF Final Energy:  -641.41240858098399

   => Energetics <=

    Nuclear Repulsion Energy =            630.3934742956699893
    One-Electron Energy =               -2135.6580571944673466
    Two-Electron Energy =                 863.8521743178134784
    Total Energy =                       -641.4124085809839926
  Basis Set: (AUG-CC-PVTZ AUX)
    Blend: AUG-CC-PVTZ-RI
    Molecular point group: c1

    Geometry (in Angstrom), charge = 0, multiplicity = 1:

       Center              X                  Y                   Z               Mass
    ------------   -----------------  -----------------  -----------------  -----------------
         F            1.598920470150     1.084272945308     0.839534281633    18.998403162730
         F            2.890773470150    -0.000007054692    -0.541798718367    18.998403162730
         F            1.598915470150    -1.084261054692     0.839550281633    18.998403162730
         O            0.754535470150    -0.000006054692    -0.940572718367    15.994914619570
         C           -0.581493529850    -0.000002054692    -0.486646718367    12.000000000000
         C           -1.226280529850    -1.219434054692    -0.304219718367    12.000000000000
         C           -1.226275529850     1.219430945308    -0.304221718367    12.000000000000
         C           -2.568703529850    -1.210500054692     0.078146281633    12.000000000000
         C           -2.568699529850     1.210501945308     0.078144281633    12.000000000000
         C           -3.239067529850     0.000002945308     0.271644281633    12.000000000000
         C            1.758989670150     0.000000345308     0.113441381633    12.000000000000
         H           -0.683073529850    -2.145010054692    -0.467704718367     1.007825032230
         H           -0.683066529850     2.145005945308    -0.467705718367     1.007825032230
         H           -3.090386529850    -2.152639054692     0.224719281633     1.007825032230
         H           -3.090378529850     2.152643945308     0.224714281633     1.007825032230
         H           -4.284732529850     0.000003945308     0.567646281633     1.007825032230

  Basis Set: AUG-CC-PVTZ
    Blend: AUG-CC-PVTZ
  Basis Set: (AUG-CC-PVTZ AUX)
    Blend: AUG-CC-PVTZ-JKFIT
	 Reference Energy          =    -641.4124085809839926 [Eh]
	 Singles Energy            =      -0.0000000000000000 [Eh]
	 Same-Spin Energy          =      -0.5851131875505813 [Eh]
	 Opposite-Spin Energy      =      -1.7203875658485246 [Eh]
	 Correlation Energy        =      -2.3055007533991061 [Eh]
	 Total Energy              =    -643.7179093343830800 [Eh]

	 ================> DF-SCS-MP2 Energies <==================
	-----------------------------------------------------------
	 SCS Same-Spin Scale       =       0.3333333333333333 [-]
	 SCS Opposite-Spin Scale   =       1.2000000000000000 [-]
	 SCS Same-Spin Energy      =      -0.1950377291835271 [Eh]
	 SCS Opposite-Spin Energy  =      -2.0644650790182295 [Eh]
	 SCS Correlation Energy    =      -2.2595028082017565 [Eh]
	 SCS Total Energy          =    -643.6719113891857660 [Eh]
	-----------------------------------------------------------

  Dipole Moment: [D]
     X:    -1.5249      Y:     0.0000      Z:     0.7044     Total:     1.6797

*** Psi4 exiting successfully. Buy a developer a beer!
