                               Psi4 1.4a3.dev225

  ==> Input File <==

--------------------------------------------------------------------------
#psi4
#
memory 32 gb

molecule  {
0 1
  F        1.7125910     1.0842730     0.8512900
  F        3.0044440    -0.0000070    -0.5300430
  F        1.7125860    -1.0842610     0.8513060
  O        0.8682060    -0.0000060    -0.9288170
  C       -0.4678230    -0.0000020    -0.4748910
  C       -1.1126100    -1.2194340    -0.2924640
  C       -1.1126050     1.2194310    -0.2924660
  C       -2.4550330    -1.2105000     0.0899020
  C       -2.4550290     1.2105020     0.0899000
  C       -3.1253970     0.0000030     0.2834000
  C        1.7898744    -0.0000001     0.0383266
  H       -0.5694030    -2.1450100    -0.4559490
  H       -0.5693960     2.1450060    -0.4559500
  H       -2.9767160    -2.1526390     0.2364750
  H       -2.9767080     2.1526440     0.2364700
  H       -4.1710620     0.0000040     0.5794020
units angstrom
no_reorient  #important for SAPT in psi4, default
symmetry c1  #important for SAPT in psi4, default
}

set PROPERTIES_ORIGIN ["COM"]
properties('MP2/aug-cc-pvtz', properties = ['dipole'])
--------------------------------------------------------------------------

    Molecular point group: c1
  Charge       = 0
  Multiplicity = 1
  Basis Set: AUG-CC-PVTZ
    Blend: AUG-CC-PVTZ
  Basis Set: (AUG-CC-PVTZ AUX)
    Blend: AUG-CC-PVTZ-JKFIT

    Orbital Energies [Eh]
    ---------------------

    Doubly Occupied:

       1A    -26.346697     2A    -26.343594     3A    -26.343571
       4A    -20.638466     5A    -11.566846     6A    -11.322914
       7A    -11.259244     8A    -11.259227     9A    -11.258051
      10A    -11.257890    11A    -11.254809    12A     -1.738755
      13A     -1.641246    14A     -1.635628    15A     -1.472534
      16A     -1.172808    17A     -1.046269    18A     -1.040004
      19A     -0.961099    20A     -0.875413    21A     -0.862927
      22A     -0.835710    23A     -0.833557    24A     -0.800634
      25A     -0.731445    26A     -0.719419    27A     -0.711347
      28A     -0.675292    29A     -0.671745    30A     -0.670401
      31A     -0.659566    32A     -0.653903    33A     -0.646092
      34A     -0.615855    35A     -0.610734    36A     -0.562255
      37A     -0.536234    38A     -0.520073    39A     -0.508975
      40A     -0.358330    41A     -0.356660

  @DF-RHF Final Energy:  -641.42038113912770

   => Energetics <=

    Nuclear Repulsion Energy =            630.9968862265329790
    One-Electron Energy =               -2136.8820928954942246
    Two-Electron Energy =                 864.4648255298335471
    Total Energy =                       -641.4203811391276986
  Basis Set: (AUG-CC-PVTZ AUX)
    Blend: AUG-CC-PVTZ-RI
    Molecular point group: c1

    Geometry (in Angstrom), charge = 0, multiplicity = 1:

       Center              X                  Y                   Z               Mass
    ------------   -----------------  -----------------  -----------------  -----------------
         F            1.605051644641     1.084272982339     0.845967971876    18.998403162730
         F            2.896904644641    -0.000007017661    -0.535365028124    18.998403162730
         F            1.605046644641    -1.084261017661     0.845983971876    18.998403162730
         O            0.760666644641    -0.000006017661    -0.934139028124    15.994914619570
         C           -0.575362355359    -0.000002017661    -0.480213028124    12.000000000000
         C           -1.220149355359    -1.219434017661    -0.297786028124    12.000000000000
         C           -1.220144355359     1.219430982339    -0.297788028124    12.000000000000
         C           -2.562572355359    -1.210500017661     0.084579971876    12.000000000000
         C           -2.562568355359     1.210501982339     0.084577971876    12.000000000000
         C           -3.232936355359     0.000002982339     0.278077971876    12.000000000000
         C            1.682335044641    -0.000000117661     0.033004571876    12.000000000000
         H           -0.676942355359    -2.145010017661    -0.461271028124     1.007825032230
         H           -0.676935355359     2.145005982339    -0.461272028124     1.007825032230
         H           -3.084255355359    -2.152639017661     0.231152971876     1.007825032230
         H           -3.084247355359     2.152643982339     0.231147971876     1.007825032230
         H           -4.278601355359     0.000003982339     0.574079971876     1.007825032230

  Basis Set: AUG-CC-PVTZ
    Blend: AUG-CC-PVTZ
  Basis Set: (AUG-CC-PVTZ AUX)
    Blend: AUG-CC-PVTZ-JKFIT
	 Reference Energy          =    -641.4203811391276986 [Eh]
	 Singles Energy            =      -0.0000000000000000 [Eh]
	 Same-Spin Energy          =      -0.5850541104664291 [Eh]
	 Opposite-Spin Energy      =      -1.7208016752039170 [Eh]
	 Correlation Energy        =      -2.3058557856703459 [Eh]
	 Total Energy              =    -643.7262369247980587 [Eh]

	 ================> DF-SCS-MP2 Energies <==================
	-----------------------------------------------------------
	 SCS Same-Spin Scale       =       0.3333333333333333 [-]
	 SCS Opposite-Spin Scale   =       1.2000000000000000 [-]
	 SCS Same-Spin Energy      =      -0.1950180368221430 [Eh]
	 SCS Opposite-Spin Energy  =      -2.0649620102447002 [Eh]
	 SCS Correlation Energy    =      -2.2599800470668430 [Eh]
	 SCS Total Energy          =    -643.6803611861945456 [Eh]
	-----------------------------------------------------------

  Dipole Moment: [D]
     X:    -2.7514      Y:     0.0000      Z:     0.0122     Total:     2.7514

*** Psi4 exiting successfully. Buy a developer a beer!
