                               Psi4 1.3.2 release

  ==> Input File <==

--------------------------------------------------------------------------
#psi4
#
memory 32 gb

molecule  {
0 1
  F        1.7125910     1.0842730     0.8512900
  F        3.0044440    -0.0000070    -0.5300430
  F        1.7125860    -1.0842610     0.8513060
  O        0.8682060    -0.0000060    -0.9288170
  C       -0.4596974    -0.0000018    -0.4516432
  C       -1.1126100    -1.2194340    -0.2924640
  C       -1.1126050     1.2194310    -0.2924660
  C       -2.4550330    -1.2105000     0.0899020
  C       -2.4550290     1.2105020     0.0899000
  C       -3.1253970     0.0000030     0.2834000
  C        1.8036720     0.0000000     0.0528050
  H       -0.5694030    -2.1450100    -0.4559490
  H       -0.5693960     2.1450060    -0.4559500
  H       -2.9767160    -2.1526390     0.2364750
  H       -2.9767080     2.1526440     0.2364700
  H       -4.1710620     0.0000040     0.5794020
units angstrom
no_reorient  #important for SAPT in psi4, default
symmetry c1  #important for SAPT in psi4, default
}

set PROPERTIES_ORIGIN ["COM"]
properties('MP2/aug-cc-pvtz', properties = ['dipole'])
--------------------------------------------------------------------------

    Molecular point group: c1
  Charge       = 0
  Multiplicity = 1
  Basis Set: AUG-CC-PVTZ
    Blend: AUG-CC-PVTZ
  Basis Set: (AUG-CC-PVTZ AUX)
    Blend: AUG-CC-PVTZ-JKFIT

    Orbital Energies [Eh]
    ---------------------

    Doubly Occupied:

       1A    -26.349766     2A    -26.347622     3A    -26.347598
       4A    -20.634786     5A    -11.567489     6A    -11.320222
       7A    -11.257752     8A    -11.257714     9A    -11.256598
      10A    -11.256455    11A    -11.253480    12A     -1.744264
      13A     -1.646853    14A     -1.641960    15A     -1.462633
      16A     -1.170508    17A     -1.043074    18A     -1.038380
      19A     -0.962991    20A     -0.874115    21A     -0.861539
      22A     -0.839243    23A     -0.837542    24A     -0.800639
      25A     -0.732943    26A     -0.722443    27A     -0.712174
      28A     -0.676970    29A     -0.675278    30A     -0.670786
      31A     -0.660114    32A     -0.657821    33A     -0.643408
      34A     -0.613830    35A     -0.609290    36A     -0.559074
      37A     -0.534461    38A     -0.518299    39A     -0.506566
      40A     -0.356919    41A     -0.354685

  @DF-RHF Final Energy:  -641.42068289548001

   => Energetics <=

    Nuclear Repulsion Energy =            631.0600834520594162
    One-Electron Energy =               -2137.0049641551445347
    Two-Electron Energy =                 864.5241978076051055
    Total Energy =                       -641.4206828954800130
  Basis Set: (AUG-CC-PVTZ AUX)
    Blend: AUG-CC-PVTZ-RI
    Molecular point group: c1

    Geometry (in Angstrom), charge = 0, multiplicity = 1:

       Center              X                  Y                   Z               Mass
    ------------   -----------------  -----------------  -----------------  -----------------
         F            1.603427997052     1.084272960120     0.843173943007    18.998403162730
         F            2.895280997052    -0.000007039880    -0.538159056993    18.998403162730
         F            1.603422997052    -1.084261039880     0.843189943007    18.998403162730
         O            0.759042997052    -0.000006039880    -0.936933056993    15.994914619570
         C           -0.568860402948    -0.000001839880    -0.459759256993    12.000000000000
         C           -1.221773002948    -1.219434039880    -0.300580056993    12.000000000000
         C           -1.221768002948     1.219430960120    -0.300582056993    12.000000000000
         C           -2.564196002948    -1.210500039880     0.081785943007    12.000000000000
         C           -2.564192002948     1.210501960120     0.081783943007    12.000000000000
         C           -3.234560002948     0.000002960120     0.275283943007    12.000000000000
         C            1.694508997052    -0.000000039880     0.044688943007    12.000000000000
         H           -0.678566002948    -2.145010039880    -0.464065056993     1.007825032230
         H           -0.678559002948     2.145005960120    -0.464066056993     1.007825032230
         H           -3.085879002948    -2.152639039880     0.228358943007     1.007825032230
         H           -3.085871002948     2.152643960120     0.228353943007     1.007825032230
         H           -4.280225002948     0.000003960120     0.571285943007     1.007825032230

  Basis Set: AUG-CC-PVTZ
    Blend: AUG-CC-PVTZ
  Basis Set: (AUG-CC-PVTZ AUX)
    Blend: AUG-CC-PVTZ-JKFIT
	 Reference Energy          =    -641.4206828954800130 [Eh]
	 Singles Energy            =      -0.0000000000000000 [Eh]
	 Same-Spin Energy          =      -0.5850533531391101 [Eh]
	 Opposite-Spin Energy      =      -1.7207762580574053 [Eh]
	 Correlation Energy        =      -2.3058296111965153 [Eh]
	 Total Energy              =    -643.7265125066764995 [Eh]

	 ================> DF-SCS-MP2 Energies <==================
	-----------------------------------------------------------
	 SCS Same-Spin Scale       =       0.3333333333333333 [-]
	 SCS Opposite-Spin Scale   =       1.2000000000000000 [-]
	 SCS Same-Spin Energy      =      -0.1950177843797034 [Eh]
	 SCS Opposite-Spin Energy  =      -2.0649315096688863 [Eh]
	 SCS Correlation Energy    =      -2.2599492940485897 [Eh]
	 SCS Total Energy          =    -643.6806321895286374 [Eh]
	-----------------------------------------------------------

  Dipole Moment: [D]
     X:    -2.5309      Y:     0.0000      Z:     0.1302     Total:     2.5343

*** Psi4 exiting successfully. Buy a developer a beer!
