                               Psi4 1.3.2 release

  ==> Input File <==

--------------------------------------------------------------------------
#psi4
#
memory 32 gb

molecule  {
0 1
  F        1.8223220     1.0315236     0.9229390
  F        3.0044440    -0.0000070    -0.5300430
  F        1.7125860    -1.0842610     0.8513060
  O        0.8682060    -0.0000060    -0.9288170
  C       -0.4678230    -0.0000020    -0.4748910
  C       -1.1126100    -1.2194340    -0.2924640
  C       -1.1126050     1.2194310    -0.2924660
  C       -2.4550330    -1.2105000     0.0899020
  C       -2.4550290     1.2105020     0.0899000
  C       -3.1253970     0.0000030     0.2834000
  C        1.8036720     0.0000000     0.0528050
  H       -0.5694030    -2.1450100    -0.4559490
  H       -0.5693960     2.1450060    -0.4559500
  H       -2.9767160    -2.1526390     0.2364750
  H       -2.9767080     2.1526440     0.2364700
  H       -4.1710620     0.0000040     0.5794020
units angstrom
no_reorient  #important for SAPT in psi4, default
symmetry c1  #important for SAPT in psi4, default
}

set PROPERTIES_ORIGIN ["COM"]
properties('MP2/aug-cc-pvtz', properties = ['dipole'])
--------------------------------------------------------------------------

    Molecular point group: c1
  Charge       = 0
  Multiplicity = 1
  Basis Set: AUG-CC-PVTZ
    Blend: AUG-CC-PVTZ
  Basis Set: (AUG-CC-PVTZ AUX)
    Blend: AUG-CC-PVTZ-JKFIT

    Orbital Energies [Eh]
    ---------------------

    Doubly Occupied:

       1A    -26.344575     2A    -26.344344     3A    -26.341275
       4A    -20.641181     5A    -11.566242     6A    -11.322915
       7A    -11.259708     8A    -11.259442     9A    -11.258469
      10A    -11.258217    11A    -11.255116    12A     -1.743637
      13A     -1.642589    14A     -1.634763    15A     -1.466812
      16A     -1.172646    17A     -1.044942    18A     -1.040345
      19A     -0.962639    20A     -0.876603    21A     -0.862640
      22A     -0.837029    23A     -0.832043    24A     -0.802223
      25A     -0.733979    26A     -0.717494    27A     -0.711455
      28A     -0.675412    29A     -0.670883    30A     -0.669292
      31A     -0.658577    32A     -0.650995    33A     -0.646437
      34A     -0.616381    35A     -0.611195    36A     -0.562715
      37A     -0.536416    38A     -0.520252    39A     -0.509275
      40A     -0.358787    41A     -0.356859

  @DF-RHF Final Energy:  -641.41877610788833

   => Energetics <=

    Nuclear Repulsion Energy =            629.7470113722411043
    One-Electron Energy =               -2134.3779795221958011
    Two-Electron Energy =                 863.2121920420663628
    Total Energy =                       -641.4187761078883341
  Basis Set: (AUG-CC-PVTZ AUX)
    Blend: AUG-CC-PVTZ-RI
    Molecular point group: c1

    Geometry (in Angstrom), charge = 0, multiplicity = 1:

       Center              X                  Y                   Z               Mass
    ------------   -----------------  -----------------  -----------------  -----------------
         F            1.700894504151     1.037708596293     0.908143636690    18.998403162730
         F            2.883016504151     0.006177996293    -0.544838363310    18.998403162730
         F            1.591158504151    -1.078076003707     0.836510636690    18.998403162730
         O            0.746778504151     0.006178996293    -0.943612363310    15.994914619570
         C           -0.589250495849     0.006182996293    -0.489686363310    12.000000000000
         C           -1.234037495849    -1.213249003707    -0.307259363310    12.000000000000
         C           -1.234032495849     1.225615996293    -0.307261363310    12.000000000000
         C           -2.576460495849    -1.204315003707     0.075106636690    12.000000000000
         C           -2.576456495849     1.216686996293     0.075104636690    12.000000000000
         C           -3.246824495849     0.006187996293     0.268604636690    12.000000000000
         C            1.682244504151     0.006184996293     0.038009636690    12.000000000000
         H           -0.690830495849    -2.138825003707    -0.470744363310     1.007825032230
         H           -0.690823495849     2.151190996293    -0.470745363310     1.007825032230
         H           -3.098143495849    -2.146454003707     0.221679636690     1.007825032230
         H           -3.098135495849     2.158828996293     0.221674636690     1.007825032230
         H           -4.292489495849     0.006188996293     0.564606636690     1.007825032230

  Basis Set: AUG-CC-PVTZ
    Blend: AUG-CC-PVTZ
  Basis Set: (AUG-CC-PVTZ AUX)
    Blend: AUG-CC-PVTZ-JKFIT
	 Reference Energy          =    -641.4187761078883341 [Eh]
	 Singles Energy            =      -0.0000000000000000 [Eh]
	 Same-Spin Energy          =      -0.5848744500682832 [Eh]
	 Opposite-Spin Energy      =      -1.7204039238296731 [Eh]
	 Correlation Energy        =      -2.3052783738979565 [Eh]
	 Total Energy              =    -643.7240544817863110 [Eh]

	 ================> DF-SCS-MP2 Energies <==================
	-----------------------------------------------------------
	 SCS Same-Spin Scale       =       0.3333333333333333 [-]
	 SCS Opposite-Spin Scale   =       1.2000000000000000 [-]
	 SCS Same-Spin Energy      =      -0.1949581500227611 [Eh]
	 SCS Opposite-Spin Energy  =      -2.0644847085956077 [Eh]
	 SCS Correlation Energy    =      -2.2594428586183688 [Eh]
	 SCS Total Energy          =    -643.6782189665067335 [Eh]
	-----------------------------------------------------------

  Dipole Moment: [D]
     X:    -2.8070      Y:     0.0398      Z:     0.0075     Total:     2.8073

*** Psi4 exiting successfully. Buy a developer a beer!
