                               Psi4 1.4a3.dev225

  ==> Input File <==

--------------------------------------------------------------------------
#psi4
#
memory 32 gb

molecule  {
0 1
  F        1.7125910     1.0842730     0.8512900
  F        3.0044440    -0.0000070    -0.5300430
  F        1.7125860    -1.0842610     0.8513060
  O        0.8682060    -0.0000060    -0.9288170
  C       -0.4204809    -0.0000021    -0.4909758
  C       -1.1126100    -1.2194340    -0.2924640
  C       -1.1126050     1.2194310    -0.2924660
  C       -2.4550330    -1.2105000     0.0899020
  C       -2.4550290     1.2105020     0.0899000
  C       -3.1253970     0.0000030     0.2834000
  C        1.8036720     0.0000000     0.0528050
  H       -0.5694030    -2.1450100    -0.4559490
  H       -0.5693960     2.1450060    -0.4559500
  H       -2.9767160    -2.1526390     0.2364750
  H       -2.9767080     2.1526440     0.2364700
  H       -4.1710620     0.0000040     0.5794020
units angstrom
no_reorient  #important for SAPT in psi4, default
symmetry c1  #important for SAPT in psi4, default
}

set PROPERTIES_ORIGIN ["COM"]
properties('MP2/aug-cc-pvtz', properties = ['dipole'])
--------------------------------------------------------------------------

    Molecular point group: c1
  Charge       = 0
  Multiplicity = 1
  Basis Set: AUG-CC-PVTZ
    Blend: AUG-CC-PVTZ
  Basis Set: (AUG-CC-PVTZ AUX)
    Blend: AUG-CC-PVTZ-JKFIT

    Orbital Energies [Eh]
    ---------------------

    Doubly Occupied:

       1A    -26.353692     2A    -26.351152     3A    -26.351129
       4A    -20.641484     5A    -11.573124     6A    -11.322089
       7A    -11.257289     8A    -11.257268     9A    -11.255149
      10A    -11.254925    11A    -11.251923    12A     -1.748217
      13A     -1.650467    14A     -1.645264    15A     -1.482178
      16A     -1.163366    17A     -1.044374    18A     -1.033497
      19A     -0.967113    20A     -0.882489    21A     -0.860710
      22A     -0.844368    23A     -0.838512    24A     -0.800553
      25A     -0.735804    26A     -0.726015    27A     -0.711943
      28A     -0.681076    29A     -0.678594    30A     -0.676680
      31A     -0.661711    32A     -0.660663    33A     -0.648370
      34A     -0.618463    35A     -0.604004    36A     -0.563773
      37A     -0.535676    38A     -0.512296    39A     -0.497036
      40A     -0.354408    41A     -0.348476

  @DF-RHF Final Energy:  -641.41797613460869

   => Energetics <=

    Nuclear Repulsion Energy =            631.1258927812079946
    One-Electron Energy =               -2136.9970988530262730
    Two-Electron Energy =                 864.4532299372095849
    Total Energy =                       -641.4179761346086934
  Basis Set: (AUG-CC-PVTZ AUX)
    Blend: AUG-CC-PVTZ-RI
    Molecular point group: c1

    Geometry (in Angstrom), charge = 0, multiplicity = 1:

       Center              X                  Y                   Z               Mass
    ------------   -----------------  -----------------  -----------------  -----------------
         F            1.600523595519     1.084272982339     0.846086942988    18.998403162730
         F            2.892376595519    -0.000007017661    -0.535246057012    18.998403162730
         F            1.600518595519    -1.084261017661     0.846102942988    18.998403162730
         O            0.756138595519    -0.000006017661    -0.934020057012    15.994914619570
         C           -0.532548304481    -0.000002117661    -0.496178857012    12.000000000000
         C           -1.224677404481    -1.219434017661    -0.297667057012    12.000000000000
         C           -1.224672404481     1.219430982339    -0.297669057012    12.000000000000
         C           -2.567100404481    -1.210500017661     0.084698942988    12.000000000000
         C           -2.567096404481     1.210501982339     0.084696942988    12.000000000000
         C           -3.237464404481     0.000002982339     0.278196942988    12.000000000000
         C            1.691604595519    -0.000000017661     0.047601942988    12.000000000000
         H           -0.681470404481    -2.145010017661    -0.461152057012     1.007825032230
         H           -0.681463404481     2.145005982339    -0.461153057012     1.007825032230
         H           -3.088783404481    -2.152639017661     0.231271942988     1.007825032230
         H           -3.088775404481     2.152643982339     0.231266942988     1.007825032230
         H           -4.283129404481     0.000003982339     0.574198942988     1.007825032230

  Basis Set: AUG-CC-PVTZ
    Blend: AUG-CC-PVTZ
  Basis Set: (AUG-CC-PVTZ AUX)
    Blend: AUG-CC-PVTZ-JKFIT
	 Reference Energy          =    -641.4179761346086934 [Eh]
	 Singles Energy            =      -0.0000000000000000 [Eh]
	 Same-Spin Energy          =      -0.5852253508777463 [Eh]
	 Opposite-Spin Energy      =      -1.7207852672504034 [Eh]
	 Correlation Energy        =      -2.3060106181281497 [Eh]
	 Total Energy              =    -643.7239867527368915 [Eh]

	 ================> DF-SCS-MP2 Energies <==================
	-----------------------------------------------------------
	 SCS Same-Spin Scale       =       0.3333333333333333 [-]
	 SCS Opposite-Spin Scale   =       1.2000000000000000 [-]
	 SCS Same-Spin Energy      =      -0.1950751169592488 [Eh]
	 SCS Opposite-Spin Energy  =      -2.0649423207004838 [Eh]
	 SCS Correlation Energy    =      -2.2600174376597324 [Eh]
	 SCS Total Energy          =    -643.6779935722684058 [Eh]
	-----------------------------------------------------------

  Dipole Moment: [D]
     X:    -2.2476      Y:     0.0000      Z:     0.0976     Total:     2.2497

*** Psi4 exiting successfully. Buy a developer a beer!
