                               Psi4 1.4a3.dev225

  ==> Input File <==

--------------------------------------------------------------------------
#psi4
#
memory 32 gb

molecule  {
0 1
  F        1.7125910     1.0842730     0.8512900
  F        3.0044440    -0.0000070    -0.5300430
  F        1.7125860    -1.0842610     0.8513060
  O        0.8682060    -0.0000060    -0.9288170
  C       -0.4678230    -0.0000020    -0.4748910
  C       -1.1126100    -1.2194340    -0.2924640
  C       -1.1126050     1.2194310    -0.2924660
  C       -2.4550330    -1.2105000     0.0899020
  C       -2.4550290     1.2105020     0.0899000
  C       -3.1253970     0.0000030     0.2834000
  C        1.8174696     0.0000001     0.0672834
  H       -0.5694030    -2.1450100    -0.4559490
  H       -0.5693960     2.1450060    -0.4559500
  H       -2.9767160    -2.1526390     0.2364750
  H       -2.9767080     2.1526440     0.2364700
  H       -4.1710620     0.0000040     0.5794020
units angstrom
no_reorient  #important for SAPT in psi4, default
symmetry c1  #important for SAPT in psi4, default
}

set PROPERTIES_ORIGIN ["COM"]
properties('MP2/aug-cc-pvtz', properties = ['dipole'])
--------------------------------------------------------------------------

    Molecular point group: c1
  Charge       = 0
  Multiplicity = 1
  Basis Set: AUG-CC-PVTZ
    Blend: AUG-CC-PVTZ
  Basis Set: (AUG-CC-PVTZ AUX)
    Blend: AUG-CC-PVTZ-JKFIT

    Orbital Energies [Eh]
    ---------------------

    Doubly Occupied:

       1A    -26.352940     2A    -26.351254     3A    -26.351231
       4A    -20.629391     5A    -11.568547     6A    -11.318228
       7A    -11.256402     8A    -11.256311     9A    -11.255071
      10A    -11.254999    11A    -11.252108    12A     -1.749372
      13A     -1.652220    14A     -1.647812    15A     -1.451296
      16A     -1.168860    17A     -1.040753    18A     -1.037160
      19A     -0.965256    20A     -0.873334    21A     -0.860676
      22A     -0.842797    23A     -0.841259    24A     -0.800722
      25A     -0.734109    26A     -0.725076    27A     -0.712780
      28A     -0.680346    29A     -0.679283    30A     -0.669378
      31A     -0.662000    32A     -0.659522    33A     -0.639432
      34A     -0.610907    35A     -0.608171    36A     -0.555375
      37A     -0.532962    38A     -0.516257    39A     -0.504334
      40A     -0.355881    41A     -0.352899

  @DF-RHF Final Energy:  -641.42103517034093

   => Energetics <=

    Nuclear Repulsion Energy =            630.7997529495863773
    One-Electron Energy =               -2136.4881548145654051
    Two-Electron Energy =                 864.2673666946379853
    Total Energy =                       -641.4210351703409287
  Basis Set: (AUG-CC-PVTZ AUX)
    Blend: AUG-CC-PVTZ-RI
    Molecular point group: c1

    Geometry (in Angstrom), charge = 0, multiplicity = 1:

       Center              X                  Y                   Z               Mass
    ------------   -----------------  -----------------  -----------------  -----------------
         F            1.603007924748     1.084272967527     0.843823410930    18.998403162730
         F            2.894860924748    -0.000007032473    -0.537509589070    18.998403162730
         F            1.603002924748    -1.084261032473     0.843839410930    18.998403162730
         O            0.758622924748    -0.000006032473    -0.936283589070    15.994914619570
         C           -0.577406075252    -0.000002032473    -0.482357589070    12.000000000000
         C           -1.222193075252    -1.219434032473    -0.299930589070    12.000000000000
         C           -1.222188075252     1.219430967527    -0.299932589070    12.000000000000
         C           -2.564616075252    -1.210500032473     0.082435410930    12.000000000000
         C           -2.564612075252     1.210501967527     0.082433410930    12.000000000000
         C           -3.234980075252     0.000002967527     0.275933410930    12.000000000000
         C            1.707886524748     0.000000067527     0.059816810930    12.000000000000
         H           -0.678986075252    -2.145010032473    -0.463415589070     1.007825032230
         H           -0.678979075252     2.145005967527    -0.463416589070     1.007825032230
         H           -3.086299075252    -2.152639032473     0.229008410930     1.007825032230
         H           -3.086291075252     2.152643967527     0.229003410930     1.007825032230
         H           -4.280645075252     0.000003967527     0.571935410930     1.007825032230

  Basis Set: AUG-CC-PVTZ
    Blend: AUG-CC-PVTZ
  Basis Set: (AUG-CC-PVTZ AUX)
    Blend: AUG-CC-PVTZ-JKFIT
	 Reference Energy          =    -641.4210351703409287 [Eh]
	 Singles Energy            =      -0.0000000000000000 [Eh]
	 Same-Spin Energy          =      -0.5849039466133543 [Eh]
	 Opposite-Spin Energy      =      -1.7203402659607292 [Eh]
	 Correlation Energy        =      -2.3052442125740837 [Eh]
	 Total Energy              =    -643.7262793829149814 [Eh]

	 ================> DF-SCS-MP2 Energies <==================
	-----------------------------------------------------------
	 SCS Same-Spin Scale       =       0.3333333333333333 [-]
	 SCS Opposite-Spin Scale   =       1.2000000000000000 [-]
	 SCS Same-Spin Energy      =      -0.1949679822044514 [Eh]
	 SCS Opposite-Spin Energy  =      -2.0644083191528750 [Eh]
	 SCS Correlation Energy    =      -2.2593763013573263 [Eh]
	 SCS Total Energy          =    -643.6804114716982212 [Eh]
	-----------------------------------------------------------

  Dipole Moment: [D]
     X:    -2.3321      Y:     0.0000      Z:     0.2471     Total:     2.3452

*** Psi4 exiting successfully. Buy a developer a beer!
