                               Psi4 1.3.2 release

  ==> Input File <==

--------------------------------------------------------------------------
#psi4
#
memory 32 gb

molecule  {
0 1
  F        1.7125910     1.0842730     0.8512900
  F        3.0044440    -0.0000070    -0.5300430
  F        1.7125860    -1.0842610     0.8513060
  O        0.8678428     0.0492185    -0.9272144
  C       -0.4678230    -0.0000020    -0.4748910
  C       -1.1126100    -1.2194340    -0.2924640
  C       -1.1126050     1.2194310    -0.2924660
  C       -2.4550330    -1.2105000     0.0899020
  C       -2.4550290     1.2105020     0.0899000
  C       -3.1253970     0.0000030     0.2834000
  C        1.8036720     0.0000000     0.0528050
  H       -0.5694030    -2.1450100    -0.4559490
  H       -0.5693960     2.1450060    -0.4559500
  H       -2.9767160    -2.1526390     0.2364750
  H       -2.9767080     2.1526440     0.2364700
  H       -4.1710620     0.0000040     0.5794020
units angstrom
no_reorient  #important for SAPT in psi4, default
symmetry c1  #important for SAPT in psi4, default
}

set PROPERTIES_ORIGIN ["COM"]
properties('MP2/aug-cc-pvtz', properties = ['dipole'])
--------------------------------------------------------------------------

    Molecular point group: c1
  Charge       = 0
  Multiplicity = 1
  Basis Set: AUG-CC-PVTZ
    Blend: AUG-CC-PVTZ
  Basis Set: (AUG-CC-PVTZ AUX)
    Blend: AUG-CC-PVTZ-JKFIT

    Orbital Energies [Eh]
    ---------------------

    Doubly Occupied:

       1A    -26.350226     2A    -26.349920     3A    -26.344563
       4A    -20.633887     5A    -11.567665     6A    -11.320574
       7A    -11.258535     8A    -11.257243     9A    -11.257025
      10A    -11.255657    11A    -11.253409    12A     -1.744123
      13A     -1.647059    14A     -1.641506    15A     -1.461708
      16A     -1.170795    17A     -1.043492    18A     -1.038535
      19A     -0.963113    20A     -0.874421    21A     -0.861595
      22A     -0.839571    23A     -0.837057    24A     -0.800554
      25A     -0.732642    26A     -0.722362    27A     -0.712165
      28A     -0.676928    29A     -0.675053    30A     -0.671085
      31A     -0.660189    32A     -0.657710    33A     -0.642743
      34A     -0.613515    35A     -0.609383    36A     -0.558793
      37A     -0.534571    38A     -0.518173    39A     -0.506535
      40A     -0.357110    41A     -0.354677

  @DF-RHF Final Energy:  -641.42056815075193

   => Energetics <=

    Nuclear Repulsion Energy =            630.9175244698324150
    One-Electron Energy =               -2136.7244580964634224
    Two-Electron Energy =                 864.3863654758790744
    Total Energy =                       -641.4205681507519330
  Basis Set: (AUG-CC-PVTZ AUX)
    Blend: AUG-CC-PVTZ-RI
    Molecular point group: c1

    Geometry (in Angstrom), charge = 0, multiplicity = 1:

       Center              X                  Y                   Z               Mass
    ------------   -----------------  -----------------  -----------------  -----------------
         F            1.604065638425     1.079413718482     0.844737488793    18.998403162730
         F            2.895918638425    -0.004866281518    -0.536595511207    18.998403162730
         F            1.604060638425    -1.089120281518     0.844753488793    18.998403162730
         O            0.759317438425     0.044359218482    -0.933766911207    15.994914619570
         C           -0.576348361575    -0.004861281518    -0.481443511207    12.000000000000
         C           -1.221135361575    -1.224293281518    -0.299016511207    12.000000000000
         C           -1.221130361575     1.214571718482    -0.299018511207    12.000000000000
         C           -2.563558361575    -1.215359281518     0.083349488793    12.000000000000
         C           -2.563554361575     1.205642718482     0.083347488793    12.000000000000
         C           -3.233922361575    -0.004856281518     0.276847488793    12.000000000000
         C            1.695146638425    -0.004859281518     0.046252488793    12.000000000000
         H           -0.677928361575    -2.149869281518    -0.462501511207     1.007825032230
         H           -0.677921361575     2.140146718482    -0.462502511207     1.007825032230
         H           -3.085241361575    -2.157498281518     0.229922488793     1.007825032230
         H           -3.085233361575     2.147784718482     0.229917488793     1.007825032230
         H           -4.279587361575    -0.004855281518     0.572849488793     1.007825032230

  Basis Set: AUG-CC-PVTZ
    Blend: AUG-CC-PVTZ
  Basis Set: (AUG-CC-PVTZ AUX)
    Blend: AUG-CC-PVTZ-JKFIT
	 Reference Energy          =    -641.4205681507519330 [Eh]
	 Singles Energy            =      -0.0000000000000000 [Eh]
	 Same-Spin Energy          =      -0.5849808288055046 [Eh]
	 Opposite-Spin Energy      =      -1.7205745007063911 [Eh]
	 Correlation Energy        =      -2.3055553295118956 [Eh]
	 Total Energy              =    -643.7261234802638228 [Eh]

	 ================> DF-SCS-MP2 Energies <==================
	-----------------------------------------------------------
	 SCS Same-Spin Scale       =       0.3333333333333333 [-]
	 SCS Opposite-Spin Scale   =       1.2000000000000000 [-]
	 SCS Same-Spin Energy      =      -0.1949936096018349 [Eh]
	 SCS Opposite-Spin Energy  =      -2.0646894008476693 [Eh]
	 SCS Correlation Energy    =      -2.2596830104495043 [Eh]
	 SCS Total Energy          =    -643.6802511612014541 [Eh]
	-----------------------------------------------------------

  Dipole Moment: [D]
     X:    -2.5365      Y:    -0.0888      Z:     0.1274     Total:     2.5412

*** Psi4 exiting successfully. Buy a developer a beer!
