                               Psi4 1.4a3.dev225

  ==> Input File <==

--------------------------------------------------------------------------
#psi4
#
memory 32 gb

molecule  {
0 1
  F        1.7125910     1.0842730     0.8512900
  F        3.0044440    -0.0000070    -0.5300430
  F        1.7125860    -1.0842610     0.8513060
  O        0.8682060    -0.0000060    -0.9288170
  C       -0.4488861    -0.0000021    -0.4813249
  C       -1.1126100    -1.2194340    -0.2924640
  C       -1.1126050     1.2194310    -0.2924660
  C       -2.4550330    -1.2105000     0.0899020
  C       -2.4550290     1.2105020     0.0899000
  C       -3.1253970     0.0000030     0.2834000
  C        1.8036720     0.0000000     0.0528050
  H       -0.5694030    -2.1450100    -0.4559490
  H       -0.5693960     2.1450060    -0.4559500
  H       -2.9767160    -2.1526390     0.2364750
  H       -2.9767080     2.1526440     0.2364700
  H       -4.1710620     0.0000040     0.5794020
units angstrom
no_reorient  #important for SAPT in psi4, default
symmetry c1  #important for SAPT in psi4, default
}

set PROPERTIES_ORIGIN ["COM"]
properties('MP2/aug-cc-pvtz', properties = ['dipole'])
--------------------------------------------------------------------------

    Molecular point group: c1
  Charge       = 0
  Multiplicity = 1
  Basis Set: AUG-CC-PVTZ
    Blend: AUG-CC-PVTZ
  Basis Set: (AUG-CC-PVTZ AUX)
    Blend: AUG-CC-PVTZ-JKFIT

    Orbital Energies [Eh]
    ---------------------

    Doubly Occupied:

       1A    -26.351390     2A    -26.348926     3A    -26.348902
       4A    -20.636997     5A    -11.569838     6A    -11.321068
       7A    -11.257437     8A    -11.257436     9A    -11.256130
      10A    -11.255947    11A    -11.252856    12A     -1.745723
      13A     -1.648255    14A     -1.643151    15A     -1.469637
      16A     -1.167771    17A     -1.043638    18A     -1.036482
      19A     -0.964801    20A     -0.877488    21A     -0.861040
      22A     -0.841238    23A     -0.838070    24A     -0.800670
      25A     -0.733799    26A     -0.723721    27A     -0.712103
      28A     -0.678429    29A     -0.676485    30A     -0.673341
      31A     -0.660527    32A     -0.659009    33A     -0.644824
      34A     -0.615826    35A     -0.607223    36A     -0.560897
      37A     -0.535116    38A     -0.515829    39A     -0.503048
      40A     -0.356004    41A     -0.352321

  @DF-RHF Final Energy:  -641.42065039637441

   => Energetics <=

    Nuclear Repulsion Energy =            630.9823011694762727
    One-Electron Energy =               -2136.7991163274941755
    Two-Electron Energy =                 864.3961647616436039
    Total Energy =                       -641.4206503963744126
  Basis Set: (AUG-CC-PVTZ AUX)
    Blend: AUG-CC-PVTZ-RI
    Molecular point group: c1

    Geometry (in Angstrom), charge = 0, multiplicity = 1:

       Center              X                  Y                   Z               Mass
    ------------   -----------------  -----------------  -----------------  -----------------
         F            1.602627304581     1.084272982339     0.845372190556    18.998403162730
         F            2.894480304581    -0.000007017661    -0.535960809444    18.998403162730
         F            1.602622304581    -1.084261017661     0.845388190556    18.998403162730
         O            0.758242304581    -0.000006017661    -0.934734809444    15.994914619570
         C           -0.558849795419    -0.000002117661    -0.487242709444    12.000000000000
         C           -1.222573695419    -1.219434017661    -0.298381809444    12.000000000000
         C           -1.222568695419     1.219430982339    -0.298383809444    12.000000000000
         C           -2.564996695419    -1.210500017661     0.083984190556    12.000000000000
         C           -2.564992695419     1.210501982339     0.083982190556    12.000000000000
         C           -3.235360695419     0.000002982339     0.277482190556    12.000000000000
         C            1.693708304581    -0.000000017661     0.046887190556    12.000000000000
         H           -0.679366695419    -2.145010017661    -0.461866809444     1.007825032230
         H           -0.679359695419     2.145005982339    -0.461867809444     1.007825032230
         H           -3.086679695419    -2.152639017661     0.230557190556     1.007825032230
         H           -3.086671695419     2.152643982339     0.230552190556     1.007825032230
         H           -4.281025695419     0.000003982339     0.573484190556     1.007825032230

  Basis Set: AUG-CC-PVTZ
    Blend: AUG-CC-PVTZ
  Basis Set: (AUG-CC-PVTZ AUX)
    Blend: AUG-CC-PVTZ-JKFIT
	 Reference Energy          =    -641.4206503963744126 [Eh]
	 Singles Energy            =      -0.0000000000000000 [Eh]
	 Same-Spin Energy          =      -0.5850342571372786 [Eh]
	 Opposite-Spin Energy      =      -1.7205824123350666 [Eh]
	 Correlation Energy        =      -2.3056166694723452 [Eh]
	 Total Energy              =    -643.7262670658467414 [Eh]

	 ================> DF-SCS-MP2 Energies <==================
	-----------------------------------------------------------
	 SCS Same-Spin Scale       =       0.3333333333333333 [-]
	 SCS Opposite-Spin Scale   =       1.2000000000000000 [-]
	 SCS Same-Spin Energy      =      -0.1950114190457595 [Eh]
	 SCS Opposite-Spin Energy  =      -2.0646988948020799 [Eh]
	 SCS Correlation Energy    =      -2.2597103138478394 [Eh]
	 SCS Total Energy          =    -643.6803607102222031 [Eh]
	-----------------------------------------------------------

  Dipole Moment: [D]
     X:    -2.4244      Y:     0.0000      Z:     0.1174     Total:     2.4272

*** Psi4 exiting successfully. Buy a developer a beer!
