                               Psi4 1.3.2 release

  ==> Input File <==

--------------------------------------------------------------------------
#psi4
#
memory 32 gb

molecule  {
0 1
  F        1.7125910     1.0842730     0.8512900
  F        3.0044440    -0.0000070    -0.5300430
  F        1.7125860    -1.0842610     0.8513060
  O        0.8677771    -0.0246220    -0.9294110
  C       -0.4678230    -0.0000020    -0.4748910
  C       -1.1126100    -1.2194340    -0.2924640
  C       -1.1126050     1.2194310    -0.2924660
  C       -2.4550330    -1.2105000     0.0899020
  C       -2.4550290     1.2105020     0.0899000
  C       -3.1253970     0.0000030     0.2834000
  C        1.8036720     0.0000000     0.0528050
  H       -0.5694030    -2.1450100    -0.4559490
  H       -0.5693960     2.1450060    -0.4559500
  H       -2.9767160    -2.1526390     0.2364750
  H       -2.9767080     2.1526440     0.2364700
  H       -4.1710620     0.0000040     0.5794020
units angstrom
no_reorient  #important for SAPT in psi4, default
symmetry c1  #important for SAPT in psi4, default
}

set PROPERTIES_ORIGIN ["COM"]
properties('MP2/aug-cc-pvtz', properties = ['dipole'])
--------------------------------------------------------------------------

    Molecular point group: c1
  Charge       = 0
  Multiplicity = 1
  Basis Set: AUG-CC-PVTZ
    Blend: AUG-CC-PVTZ
  Basis Set: (AUG-CC-PVTZ AUX)
    Blend: AUG-CC-PVTZ-JKFIT

    Orbital Energies [Eh]
    ---------------------

    Doubly Occupied:

       1A    -26.349927     2A    -26.348962     3A    -26.346136
       4A    -20.633955     5A    -11.567778     6A    -11.320483
       7A    -11.258095     8A    -11.257363     9A    -11.256869
      10A    -11.256090    11A    -11.253416    12A     -1.744124
      13A     -1.646914    14A     -1.641773    15A     -1.461411
      16A     -1.170753    17A     -1.043341    18A     -1.038535
      19A     -0.963162    20A     -0.874235    21A     -0.861582
      22A     -0.839304    23A     -0.837380    24A     -0.800616
      25A     -0.732692    26A     -0.722279    27A     -0.712200
      28A     -0.676824    29A     -0.675179    30A     -0.671024
      31A     -0.660266    32A     -0.657811    33A     -0.642881
      34A     -0.613456    35A     -0.609408    36A     -0.558752
      37A     -0.534548    38A     -0.518151    39A     -0.506608
      40A     -0.357077    41A     -0.354720

  @DF-RHF Final Energy:  -641.42094972897996

   => Energetics <=

    Nuclear Repulsion Energy =            630.8721900362668293
    One-Electron Energy =               -2136.6341118449331589
    Two-Electron Energy =                 864.3409720796863667
    Total Energy =                       -641.4209497289799629
  Basis Set: (AUG-CC-PVTZ AUX)
    Blend: AUG-CC-PVTZ-RI
    Molecular point group: c1

    Geometry (in Angstrom), charge = 0, multiplicity = 1:

       Center              X                  Y                   Z               Mass
    ------------   -----------------  -----------------  -----------------  -----------------
         F            1.604072124081     1.086702973344     0.844954328836    18.998403162730
         F            2.895925124081     0.002422973344    -0.536378671164    18.998403162730
         F            1.604067124081    -1.081831026656     0.844970328836    18.998403162730
         O            0.759258224081    -0.022192026656    -0.935746671164    15.994914619570
         C           -0.576341875919     0.002427973344    -0.481226671164    12.000000000000
         C           -1.221128875919    -1.217004026656    -0.298799671164    12.000000000000
         C           -1.221123875919     1.221860973344    -0.298801671164    12.000000000000
         C           -2.563551875919    -1.208070026656     0.083566328836    12.000000000000
         C           -2.563547875919     1.212931973344     0.083564328836    12.000000000000
         C           -3.233915875919     0.002432973344     0.277064328836    12.000000000000
         C            1.695153124081     0.002429973344     0.046469328836    12.000000000000
         H           -0.677921875919    -2.142580026656    -0.462284671164     1.007825032230
         H           -0.677914875919     2.147435973344    -0.462285671164     1.007825032230
         H           -3.085234875919    -2.150209026656     0.230139328836     1.007825032230
         H           -3.085226875919     2.155073973344     0.230134328836     1.007825032230
         H           -4.279580875919     0.002433973344     0.573066328836     1.007825032230

  Basis Set: AUG-CC-PVTZ
    Blend: AUG-CC-PVTZ
  Basis Set: (AUG-CC-PVTZ AUX)
    Blend: AUG-CC-PVTZ-JKFIT
	 Reference Energy          =    -641.4209497289799629 [Eh]
	 Singles Energy            =      -0.0000000000000000 [Eh]
	 Same-Spin Energy          =      -0.5849738692140347 [Eh]
	 Opposite-Spin Energy      =      -1.7205794204584968 [Eh]
	 Correlation Energy        =      -2.3055532896725315 [Eh]
	 Total Energy              =    -643.7265030186524655 [Eh]

	 ================> DF-SCS-MP2 Energies <==================
	-----------------------------------------------------------
	 SCS Same-Spin Scale       =       0.3333333333333333 [-]
	 SCS Opposite-Spin Scale   =       1.2000000000000000 [-]
	 SCS Same-Spin Energy      =      -0.1949912897380116 [Eh]
	 SCS Opposite-Spin Energy  =      -2.0646953045501961 [Eh]
	 SCS Correlation Energy    =      -2.2596865942882078 [Eh]
	 SCS Total Energy          =    -643.6806363232681178 [Eh]
	-----------------------------------------------------------

  Dipole Moment: [D]
     X:    -2.5353      Y:     0.0444      Z:     0.1321     Total:     2.5391

*** Psi4 exiting successfully. Buy a developer a beer!
