                               Psi4 1.4a3.dev225

  ==> Input File <==

--------------------------------------------------------------------------
#psi4
#
memory 32 gb

molecule  {
0 1
  F        1.7125910     1.0842730     0.8512900
  F        3.0044440    -0.0000070    -0.5300430
  F        1.7125860    -1.0842610     0.8513060
  O        0.8682060    -0.0000060    -0.9288170
  C       -0.4678230    -0.0000020    -0.4748910
  C       -1.1126100    -1.2194340    -0.2924640
  C       -1.1126050     1.2194310    -0.2924660
  C       -2.4550330    -1.2105000     0.0899020
  C       -2.4550290     1.2105020     0.0899000
  C       -3.1253970     0.0000030     0.2834000
  C        1.8381661     0.0000002     0.0890011
  H       -0.5694030    -2.1450100    -0.4559490
  H       -0.5693960     2.1450060    -0.4559500
  H       -2.9767160    -2.1526390     0.2364750
  H       -2.9767080     2.1526440     0.2364700
  H       -4.1710620     0.0000040     0.5794020
units angstrom
no_reorient  #important for SAPT in psi4, default
symmetry c1  #important for SAPT in psi4, default
}

set PROPERTIES_ORIGIN ["COM"]
properties('MP2/aug-cc-pvtz', properties = ['dipole'])
--------------------------------------------------------------------------

    Molecular point group: c1
  Charge       = 0
  Multiplicity = 1
  Basis Set: AUG-CC-PVTZ
    Blend: AUG-CC-PVTZ
  Basis Set: (AUG-CC-PVTZ AUX)
    Blend: AUG-CC-PVTZ-JKFIT

    Orbital Energies [Eh]
    ---------------------

    Doubly Occupied:

       1A    -26.357483     2A    -26.356837     3A    -26.356813
       4A    -20.622548     5A    -11.570047     6A    -11.314824
       7A    -11.254498     8A    -11.254377     9A    -11.252713
      10A    -11.252682    11A    -11.250118    12A     -1.757181
      13A     -1.660181    14A     -1.656760    15A     -1.436386
      16A     -1.166011    17A     -1.036969    18A     -1.035081
      19A     -0.968609    20A     -0.872459    21A     -0.860522
      22A     -0.848036    23A     -0.845877    24A     -0.801064
      25A     -0.736676    26A     -0.729431    27A     -0.713206
      28A     -0.686125    29A     -0.685997    30A     -0.667518
      31A     -0.666077    32A     -0.658267    33A     -0.633542
      34A     -0.606737    35A     -0.606275    36A     -0.550344
      37A     -0.530506    38A     -0.513324    39A     -0.500671
      40A     -0.354088    41A     -0.350074

  @DF-RHF Final Energy:  -641.41924107452041

   => Energetics <=

    Nuclear Repulsion Energy =            630.6511353870682797
    One-Electron Energy =               -2136.1868841147497733
    Two-Electron Energy =                 864.1165076531610794
    Total Energy =                       -641.4192410745204143
  Basis Set: (AUG-CC-PVTZ AUX)
    Blend: AUG-CC-PVTZ-RI
    Molecular point group: c1

    Geometry (in Angstrom), charge = 0, multiplicity = 1:

       Center              X                  Y                   Z               Mass
    ------------   -----------------  -----------------  -----------------  -----------------
         F            1.601475127422     1.084272960120     0.842214982815    18.998403162730
         F            2.893328127422    -0.000007039880    -0.539118017185    18.998403162730
         F            1.601470127422    -1.084261039880     0.842230982815    18.998403162730
         O            0.757090127422    -0.000006039880    -0.937892017185    15.994914619570
         C           -0.578938872578    -0.000002039880    -0.483966017185    12.000000000000
         C           -1.223725872578    -1.219434039880    -0.301539017185    12.000000000000
         C           -1.223720872578     1.219430960120    -0.301541017185    12.000000000000
         C           -2.566148872578    -1.210500039880     0.080826982815    12.000000000000
         C           -2.566144872578     1.210501960120     0.080824982815    12.000000000000
         C           -3.236512872578     0.000002960120     0.274324982815    12.000000000000
         C            1.727050227422     0.000000160120     0.079926082815    12.000000000000
         H           -0.680518872578    -2.145010039880    -0.465024017185     1.007825032230
         H           -0.680511872578     2.145005960120    -0.465025017185     1.007825032230
         H           -3.087831872578    -2.152639039880     0.227399982815     1.007825032230
         H           -3.087823872578     2.152643960120     0.227394982815     1.007825032230
         H           -4.282177872578     0.000003960120     0.570326982815     1.007825032230

  Basis Set: AUG-CC-PVTZ
    Blend: AUG-CC-PVTZ
  Basis Set: (AUG-CC-PVTZ AUX)
    Blend: AUG-CC-PVTZ-JKFIT
	 Reference Energy          =    -641.4192410745204143 [Eh]
	 Singles Energy            =      -0.0000000000000000 [Eh]
	 Same-Spin Energy          =      -0.5849030106346986 [Eh]
	 Opposite-Spin Energy      =      -1.7202084951484418 [Eh]
	 Correlation Energy        =      -2.3051115057831404 [Eh]
	 Total Energy              =    -643.7243525803035027 [Eh]

	 ================> DF-SCS-MP2 Energies <==================
	-----------------------------------------------------------
	 SCS Same-Spin Scale       =       0.3333333333333333 [-]
	 SCS Opposite-Spin Scale   =       1.2000000000000000 [-]
	 SCS Same-Spin Energy      =      -0.1949676702115662 [Eh]
	 SCS Opposite-Spin Energy  =      -2.0642501941781299 [Eh]
	 SCS Correlation Energy    =      -2.2592178643896963 [Eh]
	 SCS Total Energy          =    -643.6784589389101257 [Eh]
	-----------------------------------------------------------

  Dipole Moment: [D]
     X:    -2.0254      Y:     0.0000      Z:     0.4202     Total:     2.0686

*** Psi4 exiting successfully. Buy a developer a beer!
