                               Psi4 1.3.2 release

  ==> Input File <==

--------------------------------------------------------------------------
#psi4
#
memory 32 gb

molecule  {
0 1
  F        1.7125910     1.0842730     0.8512900
  F        3.0044440    -0.0000070    -0.5300430
  F        1.7125860    -1.0842610     0.8513060
  O        0.8640507    -0.0983951    -0.9303618
  C       -0.4678230    -0.0000020    -0.4748910
  C       -1.1126100    -1.2194340    -0.2924640
  C       -1.1126050     1.2194310    -0.2924660
  C       -2.4550330    -1.2105000     0.0899020
  C       -2.4550290     1.2105020     0.0899000
  C       -3.1253970     0.0000030     0.2834000
  C        1.8036720     0.0000000     0.0528050
  H       -0.5694030    -2.1450100    -0.4559490
  H       -0.5693960     2.1450060    -0.4559500
  H       -2.9767160    -2.1526390     0.2364750
  H       -2.9767080     2.1526440     0.2364700
  H       -4.1710620     0.0000040     0.5794020
units angstrom
no_reorient  #important for SAPT in psi4, default
symmetry c1  #important for SAPT in psi4, default
}

set PROPERTIES_ORIGIN ["COM"]
properties('MP2/aug-cc-pvtz', properties = ['dipole'])
--------------------------------------------------------------------------

    Molecular point group: c1
  Charge       = 0
  Multiplicity = 1
  Basis Set: AUG-CC-PVTZ
    Blend: AUG-CC-PVTZ
  Basis Set: (AUG-CC-PVTZ AUX)
    Blend: AUG-CC-PVTZ-JKFIT

    Orbital Energies [Eh]
    ---------------------

    Doubly Occupied:

       1A    -26.353725     2A    -26.350596     3A    -26.342542
       4A    -20.634066     5A    -11.568563     6A    -11.320092
       7A    -11.259166     8A    -11.257537     9A    -11.256254
      10A    -11.254377    11A    -11.253102    12A     -1.744448
      13A     -1.648217    14A     -1.641496    15A     -1.459271
      16A     -1.170325    17A     -1.042737    18A     -1.038214
      19A     -0.963492    20A     -0.874056    21A     -0.861180
      22A     -0.840160    23A     -0.836227    24A     -0.800497
      25A     -0.732831    26A     -0.722972    27A     -0.712125
      28A     -0.677746    29A     -0.675191    30A     -0.670815
      31A     -0.660158    32A     -0.658158    33A     -0.641725
      34A     -0.613517    35A     -0.609020    36A     -0.558445
      37A     -0.534167    38A     -0.517974    39A     -0.505794
      40A     -0.356958    41A     -0.354139

  @DF-RHF Final Energy:  -641.41822323526856

   => Energetics <=

    Nuclear Repulsion Energy =            630.7307293479614145
    One-Electron Energy =               -2136.3537482132451260
    Two-Electron Energy =                 864.2047956300151554
    Total Energy =                       -641.4182232352685560
  Basis Set: (AUG-CC-PVTZ AUX)
    Blend: AUG-CC-PVTZ-RI
    Molecular point group: c1

    Geometry (in Angstrom), charge = 0, multiplicity = 1:

       Center              X                  Y                   Z               Mass
    ------------   -----------------  -----------------  -----------------  -----------------
         F            1.604439980194     1.093985574732     0.845048188216    18.998403162730
         F            2.896292980194     0.009705574732    -0.536284811784    18.998403162730
         F            1.604434980194    -1.074548425268     0.845064188216    18.998403162730
         O            0.755899680194    -0.088682525268    -0.936603611784    15.994914619570
         C           -0.575974019806     0.009710574732    -0.481132811784    12.000000000000
         C           -1.220761019806    -1.209721425268    -0.298705811784    12.000000000000
         C           -1.220756019806     1.229143574732    -0.298707811784    12.000000000000
         C           -2.563184019806    -1.200787425268     0.083660188216    12.000000000000
         C           -2.563180019806     1.220214574732     0.083658188216    12.000000000000
         C           -3.233548019806     0.009715574732     0.277158188216    12.000000000000
         C            1.695520980194     0.009712574732     0.046563188216    12.000000000000
         H           -0.677554019806    -2.135297425268    -0.462190811784     1.007825032230
         H           -0.677547019806     2.154718574732    -0.462191811784     1.007825032230
         H           -3.084867019806    -2.142926425268     0.230233188216     1.007825032230
         H           -3.084859019806     2.162356574732     0.230228188216     1.007825032230
         H           -4.279213019806     0.009716574732     0.573160188216     1.007825032230

  Basis Set: AUG-CC-PVTZ
    Blend: AUG-CC-PVTZ
  Basis Set: (AUG-CC-PVTZ AUX)
    Blend: AUG-CC-PVTZ-JKFIT
	 Reference Energy          =    -641.4182232352685560 [Eh]
	 Singles Energy            =      -0.0000000000000000 [Eh]
	 Same-Spin Energy          =      -0.5851315865955929 [Eh]
	 Opposite-Spin Energy      =      -1.7210135679959637 [Eh]
	 Correlation Energy        =      -2.3061451545915568 [Eh]
	 Total Energy              =    -643.7243683898601603 [Eh]

	 ================> DF-SCS-MP2 Energies <==================
	-----------------------------------------------------------
	 SCS Same-Spin Scale       =       0.3333333333333333 [-]
	 SCS Opposite-Spin Scale   =       1.2000000000000000 [-]
	 SCS Same-Spin Energy      =      -0.1950438621985310 [Eh]
	 SCS Opposite-Spin Energy  =      -2.0652162815951565 [Eh]
	 SCS Correlation Energy    =      -2.2602601437936873 [Eh]
	 SCS Total Energy          =    -643.6784833790622997 [Eh]
	-----------------------------------------------------------

  Dipole Moment: [D]
     X:    -2.4946      Y:     0.1765      Z:     0.1388     Total:     2.5047

*** Psi4 exiting successfully. Buy a developer a beer!
