                               Psi4 1.3.2 release

  ==> Input File <==

--------------------------------------------------------------------------
#psi4
#
memory 32 gb

molecule  {
0 1
  F        1.7125910     1.0842730     0.8512900
  F        3.0044440    -0.0000070    -0.5300430
  F        1.7125860    -1.0842610     0.8513060
  O        0.8682060    -0.0000060    -0.9288170
  C       -0.4678230    -0.0000020    -0.4748910
  C       -1.1126100    -1.2194340    -0.2924640
  C       -1.1126050     1.2194310    -0.2924660
  C       -2.4550330    -1.2105000     0.0899020
  C       -2.4550290     1.2105020     0.0899000
  C       -3.1253970     0.0000030     0.2834000
  C        1.7346838    -0.0000004    -0.0195871
  H       -0.5694030    -2.1450100    -0.4559490
  H       -0.5693960     2.1450060    -0.4559500
  H       -2.9767160    -2.1526390     0.2364750
  H       -2.9767080     2.1526440     0.2364700
  H       -4.1710620     0.0000040     0.5794020
units angstrom
no_reorient  #important for SAPT in psi4, default
symmetry c1  #important for SAPT in psi4, default
}

set PROPERTIES_ORIGIN ["COM"]
properties('MP2/aug-cc-pvtz', properties = ['dipole'])
--------------------------------------------------------------------------

    Molecular point group: c1
  Charge       = 0
  Multiplicity = 1
  Basis Set: AUG-CC-PVTZ
    Blend: AUG-CC-PVTZ
  Basis Set: (AUG-CC-PVTZ AUX)
    Blend: AUG-CC-PVTZ-JKFIT

    Orbital Energies [Eh]
    ---------------------

    Doubly Occupied:

       1A    -26.333196     2A    -26.327158     3A    -26.327133
       4A    -20.656961     5A    -11.563754     6A    -11.332969
       7A    -11.266178     8A    -11.266151     9A    -11.263550
      10A    -11.263304    11A    -11.260510    12A     -1.717509
      13A     -1.618005    14A     -1.610291    15A     -1.519490
      16A     -1.181407    17A     -1.058977    18A     -1.046065
      19A     -0.955514    20A     -0.879277    21A     -0.869849
      22A     -0.824989    23A     -0.819025    24A     -0.801827
      25A     -0.728171    26A     -0.709400    27A     -0.705848
      28A     -0.679888    29A     -0.667555    30A     -0.660409
      31A     -0.647441    32A     -0.644712    33A     -0.636991
      34A     -0.623919    35A     -0.615950    36A     -0.575988
      37A     -0.542919    38A     -0.527657    39A     -0.517728
      40A     -0.364369    41A     -0.363536

  @DF-RHF Final Energy:  -641.40679450106984

   => Energetics <=

    Nuclear Repulsion Energy =            631.4145943734657749
    One-Electron Energy =               -2137.6916368819561285
    Two-Electron Energy =                 864.8702480074206278
    Total Energy =                       -641.4067945010698395
  Basis Set: (AUG-CC-PVTZ AUX)
    Blend: AUG-CC-PVTZ-RI
    Molecular point group: c1

    Geometry (in Angstrom), charge = 0, multiplicity = 1:

       Center              X                  Y                   Z               Mass
    ------------   -----------------  -----------------  -----------------  -----------------
         F            1.609139099240     1.084273004557     0.850257101173    18.998403162730
         F            2.900992099240    -0.000006995443    -0.531075898827    18.998403162730
         F            1.609134099240    -1.084260995443     0.850273101173    18.998403162730
         O            0.764754099240    -0.000005995443    -0.929849898827    15.994914619570
         C           -0.571274900760    -0.000001995443    -0.475923898827    12.000000000000
         C           -1.216061900760    -1.219433995443    -0.293496898827    12.000000000000
         C           -1.216056900760     1.219431004557    -0.293498898827    12.000000000000
         C           -2.558484900760    -1.210499995443     0.088869101173    12.000000000000
         C           -2.558480900760     1.210502004557     0.088867101173    12.000000000000
         C           -3.228848900760     0.000003004557     0.282367101173    12.000000000000
         C            1.631231899240    -0.000000395443    -0.020619998827    12.000000000000
         H           -0.672854900760    -2.145009995443    -0.456981898827     1.007825032230
         H           -0.672847900760     2.145006004557    -0.456982898827     1.007825032230
         H           -3.080167900760    -2.152638995443     0.235442101173     1.007825032230
         H           -3.080159900760     2.152644004557     0.235437101173     1.007825032230
         H           -4.274513900760     0.000004004557     0.578369101173     1.007825032230

  Basis Set: AUG-CC-PVTZ
    Blend: AUG-CC-PVTZ
  Basis Set: (AUG-CC-PVTZ AUX)
    Blend: AUG-CC-PVTZ-JKFIT
	 Reference Energy          =    -641.4067945010698395 [Eh]
	 Singles Energy            =      -0.0000000000000000 [Eh]
	 Same-Spin Energy          =      -0.5858364879080118 [Eh]
	 Opposite-Spin Energy      =      -1.7226800774255717 [Eh]
	 Correlation Energy        =      -2.3085165653335835 [Eh]
	 Total Energy              =    -643.7153110664033875 [Eh]

	 ================> DF-SCS-MP2 Energies <==================
	-----------------------------------------------------------
	 SCS Same-Spin Scale       =       0.3333333333333333 [-]
	 SCS Opposite-Spin Scale   =       1.2000000000000000 [-]
	 SCS Same-Spin Energy      =      -0.1952788293026706 [Eh]
	 SCS Opposite-Spin Energy  =      -2.0672160929106860 [Eh]
	 SCS Correlation Energy    =      -2.2624949222133566 [Eh]
	 SCS Total Energy          =    -643.6692894232832032 [Eh]
	-----------------------------------------------------------

  Dipole Moment: [D]
     X:    -3.6370      Y:     0.0000      Z:    -0.4766     Total:     3.6680

*** Psi4 exiting successfully. Buy a developer a beer!
