                               Psi4 1.3.2 release

  ==> Input File <==

--------------------------------------------------------------------------
#psi4
#
memory 32 gb

molecule  {
0 1
  F        1.7125910     1.0842730     0.8512900
  F        3.0044440    -0.0000070    -0.5300430
  F        1.7125860    -1.0842610     0.8513060
  O        0.8682060    -0.0000060    -0.9288170
  C       -0.4678230    -0.0000020    -0.4748910
  C       -1.1126100    -1.2194340    -0.2924640
  C       -1.1126050     1.2194310    -0.2924660
  C       -2.4550330    -1.2105000     0.0899020
  C       -2.4550290     1.2105020     0.0899000
  C       -3.1253970     0.0000030     0.2834000
  C        1.8036720     0.0000000     0.0528050
  H       -0.5694030    -2.1450100    -0.4559490
  H       -0.5693960     2.1450060    -0.4559500
  H       -2.9767160    -2.1526390     0.2364750
  H       -2.9767080     2.1526440     0.2364700
  H       -4.1710620     0.0000040     0.5794020
units angstrom
no_reorient  #important for SAPT in psi4, default
symmetry c1  #important for SAPT in psi4, default
}

set PROPERTIES_ORIGIN ["COM"]
properties('MP2/aug-cc-pvtz', properties = ['dipole'])
--------------------------------------------------------------------------

    Molecular point group: c1
  Charge       = 0
  Multiplicity = 1
  Basis Set: AUG-CC-PVTZ
    Blend: AUG-CC-PVTZ
  Basis Set: (AUG-CC-PVTZ AUX)
    Blend: AUG-CC-PVTZ-JKFIT

    Orbital Energies [Eh]
    ---------------------

    Doubly Occupied:

       1A    -26.349851     2A    -26.347461     3A    -26.347437
       4A    -20.633928     5A    -11.567664     6A    -11.320548
       7A    -11.257765     8A    -11.257711     9A    -11.256595
      10A    -11.256478    11A    -11.253450    12A     -1.744088
      13A     -1.646786    14A     -1.641758    15A     -1.461719
      16A     -1.170810    17A     -1.043443    18A     -1.038570
      19A     -0.963114    20A     -0.874296    21A     -0.861630
      22A     -0.839215    23A     -0.837491    24A     -0.800617
      25A     -0.732665    26A     -0.722217    27A     -0.712203
      28A     -0.676734    29A     -0.675154    30A     -0.671065
      31A     -0.660263    32A     -0.657749    33A     -0.642978
      34A     -0.613461    35A     -0.609447    36A     -0.558796
      37A     -0.534596    38A     -0.518174    39A     -0.506685
      40A     -0.357096    41A     -0.354777

  @DF-RHF Final Energy:  -641.42116618312525

   => Energetics <=

    Nuclear Repulsion Energy =            630.8981012113421230
    One-Electron Energy =               -2136.6855686622857320
    Two-Electron Energy =                 864.3663012678182440
    Total Energy =                       -641.4211661831252513
  Basis Set: (AUG-CC-PVTZ AUX)
    Blend: AUG-CC-PVTZ-RI
    Molecular point group: c1

    Geometry (in Angstrom), charge = 0, multiplicity = 1:

       Center              X                  Y                   Z               Mass
    ------------   -----------------  -----------------  -----------------  -----------------
         F            1.604029784695     1.084272974933     0.844895691403    18.998403162730
         F            2.895882784695    -0.000007025067    -0.536437308597    18.998403162730
         F            1.604024784695    -1.084261025067     0.844911691403    18.998403162730
         O            0.759644784695    -0.000006025067    -0.935211308597    15.994914619570
         C           -0.576384215305    -0.000002025067    -0.481285308597    12.000000000000
         C           -1.221171215305    -1.219434025067    -0.298858308597    12.000000000000
         C           -1.221166215305     1.219430974933    -0.298860308597    12.000000000000
         C           -2.563594215305    -1.210500025067     0.083507691403    12.000000000000
         C           -2.563590215305     1.210501974933     0.083505691403    12.000000000000
         C           -3.233958215305     0.000002974933     0.277005691403    12.000000000000
         C            1.695110784695    -0.000000025067     0.046410691403    12.000000000000
         H           -0.677964215305    -2.145010025067    -0.462343308597     1.007825032230
         H           -0.677957215305     2.145005974933    -0.462344308597     1.007825032230
         H           -3.085277215305    -2.152639025067     0.230080691403     1.007825032230
         H           -3.085269215305     2.152643974933     0.230075691403     1.007825032230
         H           -4.279623215305     0.000003974933     0.573007691403     1.007825032230

  Basis Set: AUG-CC-PVTZ
    Blend: AUG-CC-PVTZ
  Basis Set: (AUG-CC-PVTZ AUX)
    Blend: AUG-CC-PVTZ-JKFIT
	 Reference Energy          =    -641.4211661831252513 [Eh]
	 Singles Energy            =      -0.0000000000000000 [Eh]
	 Same-Spin Energy          =      -0.5849579260711630 [Eh]
	 Opposite-Spin Energy      =      -1.7205301088361782 [Eh]
	 Correlation Energy        =      -2.3054880349073414 [Eh]
	 Total Energy              =    -643.7266542180325359 [Eh]

	 ================> DF-SCS-MP2 Energies <==================
	-----------------------------------------------------------
	 SCS Same-Spin Scale       =       0.3333333333333333 [-]
	 SCS Opposite-Spin Scale   =       1.2000000000000000 [-]
	 SCS Same-Spin Energy      =      -0.1949859753570543 [Eh]
	 SCS Opposite-Spin Energy  =      -2.0646361306034136 [Eh]
	 SCS Correlation Energy    =      -2.2596221059604678 [Eh]
	 SCS Total Energy          =    -643.6807882890857400 [Eh]
	-----------------------------------------------------------

  Dipole Moment: [D]
     X:    -2.5401      Y:     0.0000      Z:     0.1303     Total:     2.5434

*** Psi4 exiting successfully. Buy a developer a beer!
