                               Psi4 1.3.2 release

  ==> Input File <==

--------------------------------------------------------------------------
#psi4
#
memory 32 gb

molecule  {
0 1
  F        1.7125910     1.0842730     0.8512900
  F        3.0044440    -0.0000070    -0.5300430
  F        1.7125860    -1.0842610     0.8513060
  O        0.8682060    -0.0000060    -0.9288170
  C       -0.4962328    -0.0000026    -0.5691934
  C       -1.1126100    -1.2194340    -0.2924640
  C       -1.1126050     1.2194310    -0.2924660
  C       -2.4550330    -1.2105000     0.0899020
  C       -2.4550290     1.2105020     0.0899000
  C       -3.1253970     0.0000030     0.2834000
  C        1.8036720     0.0000000     0.0528050
  H       -0.5694030    -2.1450100    -0.4559490
  H       -0.5693960     2.1450060    -0.4559500
  H       -2.9767160    -2.1526390     0.2364750
  H       -2.9767080     2.1526440     0.2364700
  H       -4.1710620     0.0000040     0.5794020
units angstrom
no_reorient  #important for SAPT in psi4, default
symmetry c1  #important for SAPT in psi4, default
}

set PROPERTIES_ORIGIN ["COM"]
properties('MP2/aug-cc-pvtz', properties = ['dipole'])
--------------------------------------------------------------------------

    Molecular point group: c1
  Charge       = 0
  Multiplicity = 1
  Basis Set: AUG-CC-PVTZ
    Blend: AUG-CC-PVTZ
  Basis Set: (AUG-CC-PVTZ AUX)
    Blend: AUG-CC-PVTZ-JKFIT

    Orbital Energies [Eh]
    ---------------------

    Doubly Occupied:

       1A    -26.349926     2A    -26.346704     3A    -26.346680
       4A    -20.630029     5A    -11.568261     6A    -11.322641
       7A    -11.258375     8A    -11.258363     9A    -11.257149
      10A    -11.256966    11A    -11.254082    12A     -1.743262
      13A     -1.646346    14A     -1.640869    15A     -1.457761
      16A     -1.171022    17A     -1.044384    18A     -1.038792
      19A     -0.963247    20A     -0.875063    21A     -0.860987
      22A     -0.838937    23A     -0.836982    24A     -0.800126
      25A     -0.731239    26A     -0.721235    27A     -0.712230
      28A     -0.675846    29A     -0.674446    30A     -0.672076
      31A     -0.660100    32A     -0.657203    33A     -0.641223
      34A     -0.611361    35A     -0.609716    36A     -0.557581
      37A     -0.535748    38A     -0.516220    39A     -0.505911
      40A     -0.357146    41A     -0.354857

  @DF-RHF Final Energy:  -641.41831203049674

   => Energetics <=

    Nuclear Repulsion Energy =            630.1022020003165380
    One-Electron Energy =               -2135.1188416191384931
    Two-Electron Energy =                 863.5983275883252190
    Total Energy =                       -641.4183120304967360
  Basis Set: (AUG-CC-PVTZ AUX)
    Blend: AUG-CC-PVTZ-RI
    Molecular point group: c1

    Geometry (in Angstrom), charge = 0, multiplicity = 1:

       Center              X                  Y                   Z               Mass
    ------------   -----------------  -----------------  -----------------  -----------------
         F            1.606133834436     1.084273019369     0.851879793379    18.998403162730
         F            2.897986834436    -0.000006980631    -0.529453206621    18.998403162730
         F            1.606128834436    -1.084260980631     0.851895793379    18.998403162730
         O            0.761748834436    -0.000005980631    -0.928227206621    15.994914619570
         C           -0.602689965564    -0.000002580631    -0.568603606621    12.000000000000
         C           -1.219067165564    -1.219433980631    -0.291874206621    12.000000000000
         C           -1.219062165564     1.219431019369    -0.291876206621    12.000000000000
         C           -2.561490165564    -1.210499980631     0.090491793379    12.000000000000
         C           -2.561486165564     1.210502019369     0.090489793379    12.000000000000
         C           -3.231854165564     0.000003019369     0.283989793379    12.000000000000
         C            1.697214834436     0.000000019369     0.053394793379    12.000000000000
         H           -0.675860165564    -2.145009980631    -0.455359206621     1.007825032230
         H           -0.675853165564     2.145006019369    -0.455360206621     1.007825032230
         H           -3.083173165564    -2.152638980631     0.237064793379     1.007825032230
         H           -3.083165165564     2.152644019369     0.237059793379     1.007825032230
         H           -4.277519165564     0.000004019369     0.579991793379     1.007825032230

  Basis Set: AUG-CC-PVTZ
    Blend: AUG-CC-PVTZ
  Basis Set: (AUG-CC-PVTZ AUX)
    Blend: AUG-CC-PVTZ-JKFIT
	 Reference Energy          =    -641.4183120304967360 [Eh]
	 Singles Energy            =      -0.0000000000000000 [Eh]
	 Same-Spin Energy          =      -0.5848187396137734 [Eh]
	 Opposite-Spin Energy      =      -1.7202949884816987 [Eh]
	 Correlation Energy        =      -2.3051137280954723 [Eh]
	 Total Energy              =    -643.7234257585921569 [Eh]

	 ================> DF-SCS-MP2 Energies <==================
	-----------------------------------------------------------
	 SCS Same-Spin Scale       =       0.3333333333333333 [-]
	 SCS Opposite-Spin Scale   =       1.2000000000000000 [-]
	 SCS Same-Spin Energy      =      -0.1949395798712578 [Eh]
	 SCS Opposite-Spin Energy  =      -2.0643539861780384 [Eh]
	 SCS Correlation Energy    =      -2.2592935660492963 [Eh]
	 SCS Total Energy          =    -643.6776055965460728 [Eh]
	-----------------------------------------------------------

  Dipole Moment: [D]
     X:    -2.5966      Y:     0.0000      Z:     0.1345     Total:     2.6000

*** Psi4 exiting successfully. Buy a developer a beer!
