                               Psi4 1.3.2 release

  ==> Input File <==

--------------------------------------------------------------------------
#psi4
#
memory 32 gb

molecule  {
0 1
  F        1.7857083     1.0503936     0.9000786
  F        3.0044440    -0.0000070    -0.5300430
  F        1.7125860    -1.0842610     0.8513060
  O        0.8682060    -0.0000060    -0.9288170
  C       -0.4678230    -0.0000020    -0.4748910
  C       -1.1126100    -1.2194340    -0.2924640
  C       -1.1126050     1.2194310    -0.2924660
  C       -2.4550330    -1.2105000     0.0899020
  C       -2.4550290     1.2105020     0.0899000
  C       -3.1253970     0.0000030     0.2834000
  C        1.8036720     0.0000000     0.0528050
  H       -0.5694030    -2.1450100    -0.4559490
  H       -0.5693960     2.1450060    -0.4559500
  H       -2.9767160    -2.1526390     0.2364750
  H       -2.9767080     2.1526440     0.2364700
  H       -4.1710620     0.0000040     0.5794020
units angstrom
no_reorient  #important for SAPT in psi4, default
symmetry c1  #important for SAPT in psi4, default
}

set PROPERTIES_ORIGIN ["COM"]
properties('MP2/aug-cc-pvtz', properties = ['dipole'])
--------------------------------------------------------------------------

    Molecular point group: c1
  Charge       = 0
  Multiplicity = 1
  Basis Set: AUG-CC-PVTZ
    Blend: AUG-CC-PVTZ
  Basis Set: (AUG-CC-PVTZ AUX)
    Blend: AUG-CC-PVTZ-JKFIT

    Orbital Energies [Eh]
    ---------------------

    Doubly Occupied:

       1A    -26.346196     2A    -26.345684     3A    -26.343355
       4A    -20.638829     5A    -11.566700     6A    -11.322146
       7A    -11.259056     8A    -11.258884     9A    -11.257858
      10A    -11.257659    11A    -11.254572    12A     -1.743716
      13A     -1.643962    14A     -1.637199    15A     -1.465184
      16A     -1.172044    17A     -1.044440    18A     -1.039764
      19A     -0.962817    20A     -0.875835    21A     -0.862290
      22A     -0.837656    23A     -0.834048    24A     -0.801689
      25A     -0.733437    26A     -0.718973    27A     -0.711855
      28A     -0.675363    29A     -0.671917    30A     -0.670300
      31A     -0.659663    32A     -0.653416    33A     -0.645438
      34A     -0.615482    35A     -0.610633    36A     -0.561472
      37A     -0.535823    38A     -0.519577    39A     -0.508450
      40A     -0.358232    41A     -0.356185

  @DF-RHF Final Energy:  -641.42024352053545

   => Energetics <=

    Nuclear Repulsion Energy =            630.0955183604372678
    One-Electron Energy =               -2135.0759248818399101
    Two-Electron Energy =                 863.5601630008670782
    Total Energy =                       -641.4202435205354504
  Basis Set: (AUG-CC-PVTZ AUX)
    Blend: AUG-CC-PVTZ-RI
    Molecular point group: c1

    Geometry (in Angstrom), charge = 0, multiplicity = 1:

       Center              X                  Y                   Z               Mass
    ------------   -----------------  -----------------  -----------------  -----------------
         F            1.668573867514     1.054366033628     0.887963685421    18.998403162730
         F            2.887309567514     0.003965433628    -0.542157914579    18.998403162730
         F            1.595451567514    -1.080288566372     0.839191085421    18.998403162730
         O            0.751071567514     0.003966433628    -0.940931914579    15.994914619570
         C           -0.584957432486     0.003970433628    -0.487005914579    12.000000000000
         C           -1.229744432486    -1.215461566372    -0.304578914579    12.000000000000
         C           -1.229739432486     1.223403433628    -0.304580914579    12.000000000000
         C           -2.572167432486    -1.206527566372     0.077787085421    12.000000000000
         C           -2.572163432486     1.214474433628     0.077785085421    12.000000000000
         C           -3.242531432486     0.003975433628     0.271285085421    12.000000000000
         C            1.686537567514     0.003972433628     0.040690085421    12.000000000000
         H           -0.686537432486    -2.141037566372    -0.468063914579     1.007825032230
         H           -0.686530432486     2.148978433628    -0.468064914579     1.007825032230
         H           -3.093850432486    -2.148666566372     0.224360085421     1.007825032230
         H           -3.093842432486     2.156616433628     0.224355085421     1.007825032230
         H           -4.288196432486     0.003976433628     0.567287085421     1.007825032230

  Basis Set: AUG-CC-PVTZ
    Blend: AUG-CC-PVTZ
  Basis Set: (AUG-CC-PVTZ AUX)
    Blend: AUG-CC-PVTZ-JKFIT
	 Reference Energy          =    -641.4202435205354504 [Eh]
	 Singles Energy            =      -0.0000000000000000 [Eh]
	 Same-Spin Energy          =      -0.5848809967979576 [Eh]
	 Opposite-Spin Energy      =      -1.7204059372024578 [Eh]
	 Correlation Energy        =      -2.3052869340004154 [Eh]
	 Total Energy              =    -643.7255304545358285 [Eh]

	 ================> DF-SCS-MP2 Energies <==================
	-----------------------------------------------------------
	 SCS Same-Spin Scale       =       0.3333333333333333 [-]
	 SCS Opposite-Spin Scale   =       1.2000000000000000 [-]
	 SCS Same-Spin Energy      =      -0.1949603322659859 [Eh]
	 SCS Opposite-Spin Energy  =      -2.0644871246429495 [Eh]
	 SCS Correlation Energy    =      -2.2594474569089353 [Eh]
	 SCS Total Energy          =    -643.6796909774443520 [Eh]
	-----------------------------------------------------------

  Dipole Moment: [D]
     X:    -2.7190      Y:     0.0253      Z:     0.0473     Total:     2.7196

*** Psi4 exiting successfully. Buy a developer a beer!
