                               Psi4 1.3.2 release

  ==> Input File <==

--------------------------------------------------------------------------
#psi4
#
memory 32 gb

molecule  {
0 1
  C       -2.1511020    -0.0065270     0.0000480
  C       -0.6578330     0.0187880    -0.0000310
  C        0.2958682     1.0163800    -0.0000194
  C        1.3448400    -0.7705710    -0.0000450
  N        0.0761070    -1.1507890    -0.0000380
  N        1.4605000     0.5893150     0.0000860
  H       -2.5302630    -0.5301450    -0.8821160
  H       -2.5568780     1.0090980    -0.0003890
  H        0.0003360     2.1751570    -0.0003990
  H        2.2046270    -1.4277370     0.0000190
  H        2.3225060     1.1195640     0.0001590
  H       -2.5302120    -0.5293840     0.8826800
units angstrom
no_reorient  #important for SAPT in psi4, default
symmetry c1  #important for SAPT in psi4, default
}

set PROPERTIES_ORIGIN ["COM"]
properties('MP2/aug-cc-pvtz', properties = ['dipole'])
--------------------------------------------------------------------------

    Molecular point group: c1
  Charge       = 0
  Multiplicity = 1
  Basis Set: AUG-CC-PVTZ
    Blend: AUG-CC-PVTZ
  Basis Set: (AUG-CC-PVTZ AUX)
    Blend: AUG-CC-PVTZ-JKFIT

    Orbital Energies [Eh]
    ---------------------

    Doubly Occupied:

       1A    -15.625746     2A    -15.543747     3A    -11.285567
       4A    -11.256977     5A    -11.237793     6A    -11.217173
       7A     -1.374333     8A     -1.182220     9A     -1.023379
      10A     -0.941656    11A     -0.833007    12A     -0.777686
      13A     -0.746017    14A     -0.627245    15A     -0.625609
      16A     -0.560162    17A     -0.554006    18A     -0.544843
      19A     -0.521727    20A     -0.427761    21A     -0.401415
      22A     -0.297574

  @DF-RHF Final Energy:  -263.91916358167805

   => Energetics <=

    Nuclear Repulsion Energy =            226.1123112368798616
    One-Electron Energy =                -804.8516613006560192
    Two-Electron Energy =                 314.8201864820980518
    Total Energy =                       -263.9191635816780490
  Basis Set: (AUG-CC-PVTZ AUX)
    Blend: AUG-CC-PVTZ-RI
    Molecular point group: c1

    Geometry (in Angstrom), charge = 0, multiplicity = 1:

       Center              X                  Y                   Z               Mass
    ------------   -----------------  -----------------  -----------------  -----------------
         C           -2.204536149239     0.029239527433     0.000047305479    12.000000000000
         C           -0.711267149239     0.054554527433    -0.000031694521    12.000000000000
         C            0.242434050761     1.052146527433    -0.000020094521    12.000000000000
         C            1.291405850761    -0.734804472567    -0.000045694521    12.000000000000
         N            0.022672850761    -1.115022472567    -0.000038694521    14.003074004430
         N            1.407065850761     0.625081527433     0.000085305479    14.003074004430
         H           -2.583697149239    -0.494378472567    -0.882116694521     1.007825032230
         H           -2.610312149239     1.044864527433    -0.000389694521     1.007825032230
         H           -0.053098149239     2.210923527433    -0.000399694521     1.007825032230
         H            2.151192850761    -1.391970472567     0.000018305479     1.007825032230
         H            2.269071850761     1.155330527433     0.000158305479     1.007825032230
         H           -2.583646149239    -0.493617472567     0.882679305479     1.007825032230

  Basis Set: AUG-CC-PVTZ
    Blend: AUG-CC-PVTZ
  Basis Set: (AUG-CC-PVTZ AUX)
    Blend: AUG-CC-PVTZ-JKFIT
	 Reference Energy          =    -263.9191635816780490 [Eh]
	 Singles Energy            =      -0.0000000000000000 [Eh]
	 Same-Spin Energy          =      -0.2882819382283248 [Eh]
	 Opposite-Spin Energy      =      -0.8971611781415361 [Eh]
	 Correlation Energy        =      -1.1854431163698609 [Eh]
	 Total Energy              =    -265.1046066980479168 [Eh]

	 ================> DF-SCS-MP2 Energies <==================
	-----------------------------------------------------------
	 SCS Same-Spin Scale       =       0.3333333333333333 [-]
	 SCS Opposite-Spin Scale   =       1.2000000000000000 [-]
	 SCS Same-Spin Energy      =      -0.0960939794094416 [Eh]
	 SCS Opposite-Spin Energy  =      -1.0765934137698432 [Eh]
	 SCS Correlation Energy    =      -1.1726873931792847 [Eh]
	 SCS Total Energy          =    -265.0918509748573229 [Eh]
	-----------------------------------------------------------

  Dipole Moment: [D]
     X:     2.2086      Y:     2.9270      Z:     0.0000     Total:     3.6667

*** Psi4 exiting successfully. Buy a developer a beer!
