                               Psi4 1.3.2 release

  ==> Input File <==

--------------------------------------------------------------------------
#psi4
#
memory 32 gb

molecule  {
0 1
  C       -2.1511020    -0.0065270     0.0000480
  C       -0.6578330     0.0187880    -0.0000310
  C        0.0676165     1.1928658    -0.0000187
  C        1.3448400    -0.7705710    -0.0000450
  N        0.0761070    -1.1507890    -0.0000380
  N        1.4605000     0.5893150     0.0000860
  H       -2.5302630    -0.5301450    -0.8821160
  H       -2.5568780     1.0090980    -0.0003890
  H        0.0003360     2.1751570    -0.0003990
  H        2.2046270    -1.4277370     0.0000190
  H        2.3225060     1.1195640     0.0001590
  H       -2.5302120    -0.5293840     0.8826800
units angstrom
no_reorient  #important for SAPT in psi4, default
symmetry c1  #important for SAPT in psi4, default
}

set PROPERTIES_ORIGIN ["COM"]
properties('MP2/aug-cc-pvtz', properties = ['dipole'])
--------------------------------------------------------------------------

    Molecular point group: c1
  Charge       = 0
  Multiplicity = 1
  Basis Set: AUG-CC-PVTZ
    Blend: AUG-CC-PVTZ
  Basis Set: (AUG-CC-PVTZ AUX)
    Blend: AUG-CC-PVTZ-JKFIT

    Orbital Energies [Eh]
    ---------------------

    Doubly Occupied:

       1A    -15.611953     2A    -15.541717     3A    -11.308429
       4A    -11.261640     5A    -11.255550     6A    -11.215354
       7A     -1.311002     8A     -1.148879     9A     -1.036401
      10A     -0.934100    11A     -0.824747    12A     -0.777379
      13A     -0.719051    14A     -0.641583    15A     -0.592450
      16A     -0.589795    17A     -0.542975    18A     -0.530611
      19A     -0.521283    20A     -0.437414    21A     -0.383429
      22A     -0.320782

  @DF-RHF Final Energy:  -263.92536531465947

   => Energetics <=

    Nuclear Repulsion Energy =            221.9062873251054953
    One-Electron Energy =                -796.6502542514266452
    Two-Electron Energy =                 310.8186016116616770
    Total Energy =                       -263.9253653146594729
  Basis Set: (AUG-CC-PVTZ AUX)
    Blend: AUG-CC-PVTZ-RI
    Molecular point group: c1

    Geometry (in Angstrom), charge = 0, multiplicity = 1:

       Center              X                  Y                   Z               Mass
    ------------   -----------------  -----------------  -----------------  -----------------
         C           -2.171155076982     0.003429050481     0.000047203106    12.000000000000
         C           -0.677886076982     0.028744050481    -0.000031796894    12.000000000000
         C            0.047563423018     1.202821850481    -0.000019496894    12.000000000000
         C            1.324786923018    -0.760614949519    -0.000045796894    12.000000000000
         N            0.056053923018    -1.140832949519    -0.000038796894    14.003074004430
         N            1.440446923018     0.599271050481     0.000085203106    14.003074004430
         H           -2.550316076982    -0.520188949519    -0.882116796894     1.007825032230
         H           -2.576931076982     1.019054050481    -0.000389796894     1.007825032230
         H           -0.019717076982     2.185113050481    -0.000399796894     1.007825032230
         H            2.184573923018    -1.417780949519     0.000018203106     1.007825032230
         H            2.302452923018     1.129520050481     0.000158203106     1.007825032230
         H           -2.550265076982    -0.519427949519     0.882679203106     1.007825032230

  Basis Set: AUG-CC-PVTZ
    Blend: AUG-CC-PVTZ
  Basis Set: (AUG-CC-PVTZ AUX)
    Blend: AUG-CC-PVTZ-JKFIT
	 Reference Energy          =    -263.9253653146594729 [Eh]
	 Singles Energy            =      -0.0000000000000000 [Eh]
	 Same-Spin Energy          =      -0.2859821958769961 [Eh]
	 Opposite-Spin Energy      =      -0.8981276267116285 [Eh]
	 Correlation Energy        =      -1.1841098225886246 [Eh]
	 Total Energy              =    -265.1094751372481255 [Eh]

	 ================> DF-SCS-MP2 Energies <==================
	-----------------------------------------------------------
	 SCS Same-Spin Scale       =       0.3333333333333333 [-]
	 SCS Opposite-Spin Scale   =       1.2000000000000000 [-]
	 SCS Same-Spin Energy      =      -0.0953273986256654 [Eh]
	 SCS Opposite-Spin Energy  =      -1.0777531520539541 [Eh]
	 SCS Correlation Energy    =      -1.1730805506796194 [Eh]
	 SCS Total Energy          =    -265.0984458653391016 [Eh]
	-----------------------------------------------------------

  Dipole Moment: [D]
     X:     1.9474      Y:     2.7295      Z:    -0.0001     Total:     3.3530

*** Psi4 exiting successfully. Buy a developer a beer!
