                               Psi4 1.3.2 release

  ==> Input File <==

--------------------------------------------------------------------------
#psi4
#
memory 32 gb

molecule  {
0 1
  C       -2.1511020    -0.0065270     0.0000480
  C       -0.6578330     0.0187880    -0.0000310
  C        0.1863670     1.1106040    -0.0000190
  C        1.3448400    -0.7705710    -0.0000450
  N        0.0901493    -1.1948355    -0.0000429
  N        1.4605000     0.5893150     0.0000860
  H       -2.5302630    -0.5301450    -0.8821160
  H       -2.5568780     1.0090980    -0.0003890
  H        0.0003360     2.1751570    -0.0003990
  H        2.2046270    -1.4277370     0.0000190
  H        2.3225060     1.1195640     0.0001590
  H       -2.5302120    -0.5293840     0.8826800
units angstrom
no_reorient  #important for SAPT in psi4, default
symmetry c1  #important for SAPT in psi4, default
}

set PROPERTIES_ORIGIN ["COM"]
properties('MP2/aug-cc-pvtz', properties = ['dipole'])
--------------------------------------------------------------------------

    Molecular point group: c1
  Charge       = 0
  Multiplicity = 1
  Basis Set: AUG-CC-PVTZ
    Blend: AUG-CC-PVTZ
  Basis Set: (AUG-CC-PVTZ AUX)
    Blend: AUG-CC-PVTZ-JKFIT

    Orbital Energies [Eh]
    ---------------------

    Doubly Occupied:

       1A    -15.619161     2A    -15.547325     3A    -11.299154
       4A    -11.256247     5A    -11.252598     6A    -11.216536
       7A     -1.329904     8A     -1.158790     9A     -1.030673
      10A     -0.936606    11A     -0.820061    12A     -0.769091
      13A     -0.734800    14A     -0.612967    15A     -0.601260
      16A     -0.597533    17A     -0.549292    18A     -0.538418
      19A     -0.521425    20A     -0.438608    21A     -0.388496
      22A     -0.311525

  @DF-RHF Final Energy:  -263.94687924208677

   => Energetics <=

    Nuclear Repulsion Energy =            222.8021671315269430
    One-Electron Energy =                -798.4371550158185755
    Two-Electron Energy =                 311.6881086422048384
    Total Energy =                       -263.9468792420867658
  Basis Set: (AUG-CC-PVTZ AUX)
    Blend: AUG-CC-PVTZ-RI
    Molecular point group: c1

    Geometry (in Angstrom), charge = 0, multiplicity = 1:

       Center              X                  Y                   Z               Mass
    ------------   -----------------  -----------------  -----------------  -----------------
         C           -2.190918393683     0.022976490300     0.000048083208    12.000000000000
         C           -0.697649393683     0.048291490300    -0.000030916792    12.000000000000
         C            0.146550606317     1.140107490300    -0.000018916792    12.000000000000
         C            1.305023606317    -0.741067509700    -0.000044916792    12.000000000000
         N            0.050332906317    -1.165332009700    -0.000042816792    14.003074004430
         N            1.420683606317     0.618818490300     0.000086083208    14.003074004430
         H           -2.570079393683    -0.500641509700    -0.882115916792     1.007825032230
         H           -2.596694393683     1.038601490300    -0.000388916792     1.007825032230
         H           -0.039480393683     2.204660490300    -0.000398916792     1.007825032230
         H            2.164810606317    -1.398233509700     0.000019083208     1.007825032230
         H            2.282689606317     1.149067490300     0.000159083208     1.007825032230
         H           -2.570028393683    -0.499880509700     0.882680083208     1.007825032230

  Basis Set: AUG-CC-PVTZ
    Blend: AUG-CC-PVTZ
  Basis Set: (AUG-CC-PVTZ AUX)
    Blend: AUG-CC-PVTZ-JKFIT
	 Reference Energy          =    -263.9468792420867658 [Eh]
	 Singles Energy            =      -0.0000000000000000 [Eh]
	 Same-Spin Energy          =      -0.2865226848609153 [Eh]
	 Opposite-Spin Energy      =      -0.8975077884767060 [Eh]
	 Correlation Energy        =      -1.1840304733376212 [Eh]
	 Total Energy              =    -265.1309097154243659 [Eh]

	 ================> DF-SCS-MP2 Energies <==================
	-----------------------------------------------------------
	 SCS Same-Spin Scale       =       0.3333333333333333 [-]
	 SCS Opposite-Spin Scale   =       1.2000000000000000 [-]
	 SCS Same-Spin Energy      =      -0.0955075616203051 [Eh]
	 SCS Opposite-Spin Energy  =      -1.0770093461720471 [Eh]
	 SCS Correlation Energy    =      -1.1725169077923523 [Eh]
	 SCS Total Energy          =    -265.1193961498790941 [Eh]
	-----------------------------------------------------------

  Dipole Moment: [D]
     X:     2.0405      Y:     2.9233      Z:    -0.0001     Total:     3.5650

*** Psi4 exiting successfully. Buy a developer a beer!
