                               Psi4 1.3.2 release

  ==> Input File <==

--------------------------------------------------------------------------
#psi4
#
memory 32 gb

molecule  {
0 1
  C       -2.1511020    -0.0065270     0.0000480
  C       -0.6578330     0.0187880    -0.0000310
  C        0.1863670     1.1106040    -0.0000190
  C        1.3448400    -0.7705710    -0.0000450
  N       -0.1154750    -1.2082029    -0.0000369
  N        1.4605000     0.5893150     0.0000860
  H       -2.5302630    -0.5301450    -0.8821160
  H       -2.5568780     1.0090980    -0.0003890
  H        0.0003360     2.1751570    -0.0003990
  H        2.2046270    -1.4277370     0.0000190
  H        2.3225060     1.1195640     0.0001590
  H       -2.5302120    -0.5293840     0.8826800
units angstrom
no_reorient  #important for SAPT in psi4, default
symmetry c1  #important for SAPT in psi4, default
}

set PROPERTIES_ORIGIN ["COM"]
properties('MP2/aug-cc-pvtz', properties = ['dipole'])
--------------------------------------------------------------------------

    Molecular point group: c1
  Charge       = 0
  Multiplicity = 1
  Basis Set: AUG-CC-PVTZ
    Blend: AUG-CC-PVTZ
  Basis Set: (AUG-CC-PVTZ AUX)
    Blend: AUG-CC-PVTZ-JKFIT

    Orbital Energies [Eh]
    ---------------------

    Doubly Occupied:

       1A    -15.645326     2A    -15.562606     3A    -11.321102
       4A    -11.249849     5A    -11.248521     6A    -11.209547
       7A     -1.325035     8A     -1.165799     9A     -1.008114
      10A     -0.937665    11A     -0.849999    12A     -0.747703
      13A     -0.735551    14A     -0.612175    15A     -0.599892
      16A     -0.599715    17A     -0.546482    18A     -0.536448
      19A     -0.503019    20A     -0.446448    21A     -0.391396
      22A     -0.297078

  @DF-RHF Final Energy:  -263.90341264916060

   => Energetics <=

    Nuclear Repulsion Energy =            221.4317315899774883
    One-Electron Energy =                -795.5913498393616692
    Two-Electron Energy =                 310.2562056002235522
    Total Energy =                       -263.9034126491606003
  Basis Set: (AUG-CC-PVTZ AUX)
    Blend: AUG-CC-PVTZ-RI
    Molecular point group: c1

    Geometry (in Angstrom), charge = 0, multiplicity = 1:

       Center              X                  Y                   Z               Mass
    ------------   -----------------  -----------------  -----------------  -----------------
         C           -2.155826820627     0.025257753233     0.000047059256    12.000000000000
         C           -0.662557820627     0.050572753233    -0.000031940744    12.000000000000
         C            0.181642179373     1.142388753233    -0.000019940744    12.000000000000
         C            1.340115179373    -0.738786246767    -0.000045940744    12.000000000000
         N           -0.120199820627    -1.176418146767    -0.000037840744    14.003074004430
         N            1.455775179373     0.621099753233     0.000085059256    14.003074004430
         H           -2.534987820627    -0.498360246767    -0.882116940744     1.007825032230
         H           -2.561602820627     1.040882753233    -0.000389940744     1.007825032230
         H           -0.004388820627     2.206941753233    -0.000399940744     1.007825032230
         H            2.199902179373    -1.395952246767     0.000018059256     1.007825032230
         H            2.317781179373     1.151348753233     0.000158059256     1.007825032230
         H           -2.534936820627    -0.497599246767     0.882679059256     1.007825032230

  Basis Set: AUG-CC-PVTZ
    Blend: AUG-CC-PVTZ
  Basis Set: (AUG-CC-PVTZ AUX)
    Blend: AUG-CC-PVTZ-JKFIT
	 Reference Energy          =    -263.9034126491606003 [Eh]
	 Singles Energy            =      -0.0000000000000000 [Eh]
	 Same-Spin Energy          =      -0.2911665354122200 [Eh]
	 Opposite-Spin Energy      =      -0.9066141757837071 [Eh]
	 Correlation Energy        =      -1.1977807111959271 [Eh]
	 Total Energy              =    -265.1011933603565467 [Eh]

	 ================> DF-SCS-MP2 Energies <==================
	-----------------------------------------------------------
	 SCS Same-Spin Scale       =       0.3333333333333333 [-]
	 SCS Opposite-Spin Scale   =       1.2000000000000000 [-]
	 SCS Same-Spin Energy      =      -0.0970555118040733 [Eh]
	 SCS Opposite-Spin Energy  =      -1.0879370109404485 [Eh]
	 SCS Correlation Energy    =      -1.1849925227445217 [Eh]
	 SCS Total Energy          =    -265.0884051719050944 [Eh]
	-----------------------------------------------------------

  Dipole Moment: [D]
     X:     2.4018      Y:     3.0832      Z:    -0.0001     Total:     3.9083

*** Psi4 exiting successfully. Buy a developer a beer!
