                               Psi4 1.3.2 release

  ==> Input File <==

--------------------------------------------------------------------------
#psi4
#
memory 32 gb

molecule  {
0 1
  C       -2.1511020    -0.0065270     0.0000480
  C       -0.8578043     0.0153979    -0.0000204
  C        0.1863670     1.1106040    -0.0000190
  C        1.3448400    -0.7705710    -0.0000450
  N        0.0761070    -1.1507890    -0.0000380
  N        1.4605000     0.5893150     0.0000860
  H       -2.5302630    -0.5301450    -0.8821160
  H       -2.5568780     1.0090980    -0.0003890
  H        0.0003360     2.1751570    -0.0003990
  H        2.2046270    -1.4277370     0.0000190
  H        2.3225060     1.1195640     0.0001590
  H       -2.5302120    -0.5293840     0.8826800
units angstrom
no_reorient  #important for SAPT in psi4, default
symmetry c1  #important for SAPT in psi4, default
}

set PROPERTIES_ORIGIN ["COM"]
properties('MP2/aug-cc-pvtz', properties = ['dipole'])
--------------------------------------------------------------------------

    Molecular point group: c1
  Charge       = 0
  Multiplicity = 1
  Basis Set: AUG-CC-PVTZ
    Blend: AUG-CC-PVTZ
  Basis Set: (AUG-CC-PVTZ AUX)
    Blend: AUG-CC-PVTZ-JKFIT

    Orbital Energies [Eh]
    ---------------------

    Doubly Occupied:

       1A    -15.621355     2A    -15.543712     3A    -11.294612
       4A    -11.271838     5A    -11.266378     6A    -11.211955
       7A     -1.314842     8A     -1.148202     9A     -1.068963
      10A     -0.938708    11A     -0.805956    12A     -0.760337
      13A     -0.736986    14A     -0.625619    15A     -0.607818
      16A     -0.605036    17A     -0.578576    18A     -0.560975
      19A     -0.516681    20A     -0.398554    21A     -0.376249
      22A     -0.286885

  @DF-RHF Final Energy:  -263.87513648032956

   => Energetics <=

    Nuclear Repulsion Energy =            222.0337211586041519
    One-Electron Energy =                -796.7372415893933066
    Two-Electron Energy =                 310.8283839504595676
    Total Energy =                       -263.8751364803295587
  Basis Set: (AUG-CC-PVTZ AUX)
    Blend: AUG-CC-PVTZ-RI
    Molecular point group: c1

    Geometry (in Angstrom), charge = 0, multiplicity = 1:

       Center              X                  Y                   Z               Mass
    ------------   -----------------  -----------------  -----------------  -----------------
         C           -2.159276797900     0.015955363594     0.000045696765    12.000000000000
         C           -0.865979097900     0.037880263594    -0.000022703235    12.000000000000
         C            0.178192202100     1.133086363594    -0.000021303235    12.000000000000
         C            1.336665202100    -0.748088636406    -0.000047303235    12.000000000000
         N            0.067932202100    -1.128306636406    -0.000040303235    14.003074004430
         N            1.452325202100     0.611797363594     0.000083696765    14.003074004430
         H           -2.538437797900    -0.507662636406    -0.882118303235     1.007825032230
         H           -2.565052797900     1.031580363594    -0.000391303235     1.007825032230
         H           -0.007838797900     2.197639363594    -0.000401303235     1.007825032230
         H            2.196452202100    -1.405254636406     0.000016696765     1.007825032230
         H            2.314331202100     1.142046363594     0.000156696765     1.007825032230
         H           -2.538386797900    -0.506901636406     0.882677696765     1.007825032230

  Basis Set: AUG-CC-PVTZ
    Blend: AUG-CC-PVTZ
  Basis Set: (AUG-CC-PVTZ AUX)
    Blend: AUG-CC-PVTZ-JKFIT
	 Reference Energy          =    -263.8751364803295587 [Eh]
	 Singles Energy            =      -0.0000000000000000 [Eh]
	 Same-Spin Energy          =      -0.2919062798038905 [Eh]
	 Opposite-Spin Energy      =      -0.9059009633563679 [Eh]
	 Correlation Energy        =      -1.1978072431602584 [Eh]
	 Total Energy              =    -265.0729437234898000 [Eh]

	 ================> DF-SCS-MP2 Energies <==================
	-----------------------------------------------------------
	 SCS Same-Spin Scale       =       0.3333333333333333 [-]
	 SCS Opposite-Spin Scale   =       1.2000000000000000 [-]
	 SCS Same-Spin Energy      =      -0.0973020932679635 [Eh]
	 SCS Opposite-Spin Energy  =      -1.0870811560276414 [Eh]
	 SCS Correlation Energy    =      -1.1843832492956050 [Eh]
	 SCS Total Energy          =    -265.0595197296251513 [Eh]
	-----------------------------------------------------------

  Dipole Moment: [D]
     X:     1.6278      Y:     2.8358      Z:    -0.0000     Total:     3.2698

*** Psi4 exiting successfully. Buy a developer a beer!
