                               Psi4 1.3.2 release

  ==> Input File <==

--------------------------------------------------------------------------
#psi4
#
memory 32 gb

molecule  {
0 1
  C       -2.1511020    -0.0065270     0.0000480
  C       -0.6192149    -0.0100091    -0.0000273
  C        0.1863670     1.1106040    -0.0000190
  C        1.3448400    -0.7705710    -0.0000450
  N        0.0761070    -1.1507890    -0.0000380
  N        1.4605000     0.5893150     0.0000860
  H       -2.5302630    -0.5301450    -0.8821160
  H       -2.5568780     1.0090980    -0.0003890
  H        0.0003360     2.1751570    -0.0003990
  H        2.2046270    -1.4277370     0.0000190
  H        2.3225060     1.1195640     0.0001590
  H       -2.5302120    -0.5293840     0.8826800
units angstrom
no_reorient  #important for SAPT in psi4, default
symmetry c1  #important for SAPT in psi4, default
}

set PROPERTIES_ORIGIN ["COM"]
properties('MP2/aug-cc-pvtz', properties = ['dipole'])
--------------------------------------------------------------------------

    Molecular point group: c1
  Charge       = 0
  Multiplicity = 1
  Basis Set: AUG-CC-PVTZ
    Blend: AUG-CC-PVTZ
  Basis Set: (AUG-CC-PVTZ AUX)
    Blend: AUG-CC-PVTZ-JKFIT

    Orbital Energies [Eh]
    ---------------------

    Doubly Occupied:

       1A    -15.622350     2A    -15.541265     3A    -11.297622
       4A    -11.251420     5A    -11.246935     6A    -11.215559
       7A     -1.341757     8A     -1.174368     9A     -1.023398
      10A     -0.932658    11A     -0.830936    12A     -0.771468
      13A     -0.733097    14A     -0.619664    15A     -0.605904
      16A     -0.598339    17A     -0.545999    18A     -0.529489
      19A     -0.526547    20A     -0.436785    21A     -0.398838
      22A     -0.306952

  @DF-RHF Final Energy:  -263.94749753923719

   => Energetics <=

    Nuclear Repulsion Energy =            224.2800746374579148
    One-Electron Energy =                -801.3524442037115705
    Two-Electron Energy =                 313.1248720270164654
    Total Energy =                       -263.9474975392371903
  Basis Set: (AUG-CC-PVTZ AUX)
    Blend: AUG-CC-PVTZ-RI
    Molecular point group: c1

    Geometry (in Angstrom), charge = 0, multiplicity = 1:

       Center              X                  Y                   Z               Mass
    ------------   -----------------  -----------------  -----------------  -----------------
         C           -2.194169725318     0.019671055100     0.000046705867    12.000000000000
         C           -0.662282625318     0.016188955100    -0.000028594133    12.000000000000
         C            0.143299274682     1.136802055100    -0.000020294133    12.000000000000
         C            1.301772274682    -0.744372944900    -0.000046294133    12.000000000000
         N            0.033039274682    -1.124590944900    -0.000039294133    14.003074004430
         N            1.417432274682     0.615513055100     0.000084705867    14.003074004430
         H           -2.573330725318    -0.503946944900    -0.882117294133     1.007825032230
         H           -2.599945725318     1.035296055100    -0.000390294133     1.007825032230
         H           -0.042731725318     2.201355055100    -0.000400294133     1.007825032230
         H            2.161559274682    -1.401538944900     0.000017705867     1.007825032230
         H            2.279438274682     1.145762055100     0.000157705867     1.007825032230
         H           -2.573279725318    -0.503185944900     0.882678705867     1.007825032230

  Basis Set: AUG-CC-PVTZ
    Blend: AUG-CC-PVTZ
  Basis Set: (AUG-CC-PVTZ AUX)
    Blend: AUG-CC-PVTZ-JKFIT
	 Reference Energy          =    -263.9474975392371903 [Eh]
	 Singles Energy            =      -0.0000000000000000 [Eh]
	 Same-Spin Energy          =      -0.2869322856072097 [Eh]
	 Opposite-Spin Energy      =      -0.8964400651071860 [Eh]
	 Correlation Energy        =      -1.1833723507143956 [Eh]
	 Total Energy              =    -265.1308698899516116 [Eh]

	 ================> DF-SCS-MP2 Energies <==================
	-----------------------------------------------------------
	 SCS Same-Spin Scale       =       0.3333333333333333 [-]
	 SCS Opposite-Spin Scale   =       1.2000000000000000 [-]
	 SCS Same-Spin Energy      =      -0.0956440952024032 [Eh]
	 SCS Opposite-Spin Energy  =      -1.0757280781286231 [Eh]
	 SCS Correlation Energy    =      -1.1713721733310263 [Eh]
	 SCS Total Energy          =    -265.1188697125681983 [Eh]
	-----------------------------------------------------------

  Dipole Moment: [D]
     X:     2.1507      Y:     2.8287      Z:    -0.0001     Total:     3.5534

*** Psi4 exiting successfully. Buy a developer a beer!
