                               Psi4 1.3.2 release

  ==> Input File <==

--------------------------------------------------------------------------
#psi4
#
memory 32 gb

molecule  {
0 1
  C       -2.1511020    -0.0065270     0.0000480
  C       -0.7578186     0.0170930    -0.0000257
  C        0.1863670     1.1106040    -0.0000190
  C        1.3448400    -0.7705710    -0.0000450
  N        0.0761070    -1.1507890    -0.0000380
  N        1.4605000     0.5893150     0.0000860
  H       -2.5302630    -0.5301450    -0.8821160
  H       -2.5568780     1.0090980    -0.0003890
  H        0.0003360     2.1751570    -0.0003990
  H        2.2046270    -1.4277370     0.0000190
  H        2.3225060     1.1195640     0.0001590
  H       -2.5302120    -0.5293840     0.8826800
units angstrom
no_reorient  #important for SAPT in psi4, default
symmetry c1  #important for SAPT in psi4, default
}

set PROPERTIES_ORIGIN ["COM"]
properties('MP2/aug-cc-pvtz', properties = ['dipole'])
--------------------------------------------------------------------------

    Molecular point group: c1
  Charge       = 0
  Multiplicity = 1
  Basis Set: AUG-CC-PVTZ
    Blend: AUG-CC-PVTZ
  Basis Set: (AUG-CC-PVTZ AUX)
    Blend: AUG-CC-PVTZ-JKFIT

    Orbital Energies [Eh]
    ---------------------

    Doubly Occupied:

       1A    -15.620946     2A    -15.543131     3A    -11.295901
       4A    -11.263061     5A    -11.257362     6A    -11.214399
       7A     -1.323293     8A     -1.154640     9A     -1.044210
      10A     -0.940585    11A     -0.814364    12A     -0.765052
      13A     -0.736767    14A     -0.619118    15A     -0.602177
      16A     -0.593335    17A     -0.567990    18A     -0.555903
      19A     -0.523900    20A     -0.417264    21A     -0.383622
      22A     -0.298826

  @DF-RHF Final Energy:  -263.92988961388983

   => Energetics <=

    Nuclear Repulsion Energy =            222.7908062976761414
    One-Electron Energy =                -798.3696943722106880
    Two-Electron Energy =                 311.6489984606447479
    Total Energy =                       -263.9298896138898272
  Basis Set: (AUG-CC-PVTZ AUX)
    Blend: AUG-CC-PVTZ-RI
    Molecular point group: c1

    Geometry (in Angstrom), charge = 0, multiplicity = 1:

       Center              X                  Y                   Z               Mass
    ------------   -----------------  -----------------  -----------------  -----------------
         C           -2.173899382863     0.015707460706     0.000046471872    12.000000000000
         C           -0.780615982863     0.039327460706    -0.000027228128    12.000000000000
         C            0.163569617137     1.132838460706    -0.000020528128    12.000000000000
         C            1.322042617137    -0.748336539294    -0.000046528128    12.000000000000
         N            0.053309617137    -1.128554539294    -0.000039528128    14.003074004430
         N            1.437702617137     0.611549460706     0.000084471872    14.003074004430
         H           -2.553060382863    -0.507910539294    -0.882117528128     1.007825032230
         H           -2.579675382863     1.031332460706    -0.000390528128     1.007825032230
         H           -0.022461382863     2.197391460706    -0.000400528128     1.007825032230
         H            2.181829617137    -1.405502539294     0.000017471872     1.007825032230
         H            2.299708617137     1.141798460706     0.000157471872     1.007825032230
         H           -2.553009382863    -0.507149539294     0.882678471872     1.007825032230

  Basis Set: AUG-CC-PVTZ
    Blend: AUG-CC-PVTZ
  Basis Set: (AUG-CC-PVTZ AUX)
    Blend: AUG-CC-PVTZ-JKFIT
	 Reference Energy          =    -263.9298896138898272 [Eh]
	 Singles Energy            =      -0.0000000000000000 [Eh]
	 Same-Spin Energy          =      -0.2887708642430934 [Eh]
	 Opposite-Spin Energy      =      -0.9003045494896824 [Eh]
	 Correlation Energy        =      -1.1890754137327759 [Eh]
	 Total Energy              =    -265.1189650276226075 [Eh]

	 ================> DF-SCS-MP2 Energies <==================
	-----------------------------------------------------------
	 SCS Same-Spin Scale       =       0.3333333333333333 [-]
	 SCS Opposite-Spin Scale   =       1.2000000000000000 [-]
	 SCS Same-Spin Energy      =      -0.0962569547476978 [Eh]
	 SCS Opposite-Spin Energy  =      -1.0803654593876189 [Eh]
	 SCS Correlation Energy    =      -1.1766224141353168 [Eh]
	 SCS Total Energy          =    -265.1065120280251222 [Eh]
	-----------------------------------------------------------

  Dipole Moment: [D]
     X:     1.8648      Y:     2.8409      Z:    -0.0000     Total:     3.3982

*** Psi4 exiting successfully. Buy a developer a beer!
