                               Psi4 1.4a3.dev225

  ==> Input File <==

--------------------------------------------------------------------------
#psi4
#
memory 32 gb

molecule  {
0 1
  C       -2.1510270    -0.0065590     0.0000050
  C       -0.6578210     0.0184680    -0.0000060
  C        0.1861760     1.1105370     0.0000080
  C        1.3450050    -0.7704390     0.0000010
  N        0.0571457    -1.1566033    -0.0000071
  N        1.4603370     0.5895500    -0.0000040
  H       -2.5304610    -0.5297300    -0.8823420
  H       -2.5565240     1.0091620    -0.0000020
  H       -0.0003960     2.1749820    -0.0000490
  H        2.2049760    -1.4273470     0.0000120
  H        2.3223630     1.1197620     0.0000400
  H       -2.5304440    -0.5297090     0.8823710
units angstrom
no_reorient  #important for SAPT in psi4, default
symmetry c1  #important for SAPT in psi4, default
}

set PROPERTIES_ORIGIN ["COM"]
properties('MP2/aug-cc-pvtz', properties = ['dipole'])
--------------------------------------------------------------------------

    Molecular point group: c1
  Charge       = 0
  Multiplicity = 1
  Basis Set: AUG-CC-PVTZ
    Blend: AUG-CC-PVTZ
  Basis Set: (AUG-CC-PVTZ AUX)
    Blend: AUG-CC-PVTZ-JKFIT

    Orbital Energies [Eh]
    ---------------------

    Doubly Occupied:

       1A    -15.622961     2A    -15.544383     3A    -11.300515
       4A    -11.253280     5A    -11.248286     6A    -11.215086
       7A     -1.332889     8A     -1.163832     9A     -1.027248
      10A     -0.936950    11A     -0.826861    12A     -0.766504
      13A     -0.735834    14A     -0.617038    15A     -0.602807
      16A     -0.596928    17A     -0.548430    18A     -0.539997
      19A     -0.522985    20A     -0.435428    21A     -0.390726
      22A     -0.308082

  @DF-RHF Final Energy:  -263.94775421430467

   => Energetics <=

    Nuclear Repulsion Energy =            223.5284350458201459
    One-Electron Energy =                -799.8782810361603879
    Two-Electron Energy =                 312.4020917760355474
    Total Energy =                       -263.9477542143046662
  Basis Set: (AUG-CC-PVTZ AUX)
    Blend: AUG-CC-PVTZ-RI
    Molecular point group: c1

    Geometry (in Angstrom), charge = 0, multiplicity = 1:

       Center              X                  Y                   Z               Mass
    ------------   -----------------  -----------------  -----------------  -----------------
         C           -2.185184752204     0.016414737045     0.000005355859    12.000000000000
         C           -0.691978752204     0.041441737045    -0.000005644141    12.000000000000
         C            0.152018247796     1.133510737045     0.000008355859    12.000000000000
         C            1.310847247796    -0.747465262955     0.000001355859    12.000000000000
         N            0.022987947796    -1.133629562955    -0.000006744141    14.003074004430
         N            1.426179247796     0.612523737045    -0.000003644141    14.003074004430
         H           -2.564618752204    -0.506756262955    -0.882341644141     1.007825032230
         H           -2.590681752204     1.032135737045    -0.000001644141     1.007825032230
         H           -0.034553752204     2.197955737045    -0.000048644141     1.007825032230
         H            2.170818247796    -1.404373262955     0.000012355859     1.007825032230
         H            2.288205247796     1.142735737045     0.000040355859     1.007825032230
         H           -2.564601752204    -0.506735262955     0.882371355859     1.007825032230

  Basis Set: AUG-CC-PVTZ
    Blend: AUG-CC-PVTZ
  Basis Set: (AUG-CC-PVTZ AUX)
    Blend: AUG-CC-PVTZ-JKFIT
	 Reference Energy          =    -263.9477542143046662 [Eh]
	 Singles Energy            =      -0.0000000000000000 [Eh]
	 Same-Spin Energy          =      -0.2872739155016781 [Eh]
	 Opposite-Spin Energy      =      -0.8976978566360189 [Eh]
	 Correlation Energy        =      -1.1849717721376969 [Eh]
	 Total Energy              =    -265.1327259864423809 [Eh]

	 ================> DF-SCS-MP2 Energies <==================
	-----------------------------------------------------------
	 SCS Same-Spin Scale       =       0.3333333333333333 [-]
	 SCS Opposite-Spin Scale   =       1.2000000000000000 [-]
	 SCS Same-Spin Energy      =      -0.0957579718338927 [Eh]
	 SCS Opposite-Spin Energy  =      -1.0772374279632226 [Eh]
	 SCS Correlation Energy    =      -1.1729953997971154 [Eh]
	 SCS Total Energy          =    -265.1207496141017828 [Eh]
	-----------------------------------------------------------

  Dipole Moment: [D]
     X:     2.1153      Y:     2.8711      Z:     0.0000     Total:     3.5662

*** Psi4 exiting successfully. Buy a developer a beer!
