                               Psi4 1.4a3.dev225

  ==> Input File <==

--------------------------------------------------------------------------
#psi4
#
memory 32 gb

molecule  {
0 1
  C       -2.1510270    -0.0065590     0.0000050
  C       -0.6578210     0.0184680    -0.0000060
  C        0.1861760     1.1105370     0.0000080
  C        1.3450050    -0.7704390     0.0000010
  N        0.0954603    -1.1451147    -0.0000069
  N        1.4603370     0.5895500    -0.0000040
  H       -2.5304610    -0.5297300    -0.8823420
  H       -2.5565240     1.0091620    -0.0000020
  H       -0.0003960     2.1749820    -0.0000490
  H        2.2049760    -1.4273470     0.0000120
  H        2.3223630     1.1197620     0.0000400
  H       -2.5304440    -0.5297090     0.8823710
units angstrom
no_reorient  #important for SAPT in psi4, default
symmetry c1  #important for SAPT in psi4, default
}

set PROPERTIES_ORIGIN ["COM"]
properties('MP2/aug-cc-pvtz', properties = ['dipole'])
--------------------------------------------------------------------------

    Molecular point group: c1
  Charge       = 0
  Multiplicity = 1
  Basis Set: AUG-CC-PVTZ
    Blend: AUG-CC-PVTZ
  Basis Set: (AUG-CC-PVTZ AUX)
    Blend: AUG-CC-PVTZ-JKFIT

    Orbital Energies [Eh]
    ---------------------

    Doubly Occupied:

       1A    -15.617424     2A    -15.539675     3A    -11.294516
       4A    -11.254306     5A    -11.248570     6A    -11.216489
       7A     -1.336280     8A     -1.164576     9A     -1.031575
      10A     -0.936817    11A     -0.820933    12A     -0.771329
      13A     -0.735621    14A     -0.617857    15A     -0.604069
      16A     -0.596390    17A     -0.549246    18A     -0.541164
      19A     -0.526741    20A     -0.431059    21A     -0.392233
      22A     -0.310162

  @DF-RHF Final Energy:  -263.95093413260213

   => Energetics <=

    Nuclear Repulsion Energy =            224.0470273639313348
    One-Electron Energy =                -800.9218591568433112
    Two-Electron Energy =                 312.9238976603098763
    Total Energy =                       -263.9509341326021286
  Basis Set: (AUG-CC-PVTZ AUX)
    Blend: AUG-CC-PVTZ-RI
    Molecular point group: c1

    Geometry (in Angstrom), charge = 0, multiplicity = 1:

       Center              X                  Y                   Z               Mass
    ------------   -----------------  -----------------  -----------------  -----------------
         C           -2.191723471534     0.014454107653     0.000005321728    12.000000000000
         C           -0.698517471534     0.039481107653    -0.000005678272    12.000000000000
         C            0.145479528466     1.131550107653     0.000008321728    12.000000000000
         C            1.304308528466    -0.749425892347     0.000001321728    12.000000000000
         N            0.054763828466    -1.124101592347    -0.000006578272    14.003074004430
         N            1.419640528466     0.610563107653    -0.000003678272    14.003074004430
         H           -2.571157471534    -0.508716892347    -0.882341678272     1.007825032230
         H           -2.597220471534     1.030175107653    -0.000001678272     1.007825032230
         H           -0.041092471534     2.195995107653    -0.000048678272     1.007825032230
         H            2.164279528466    -1.406333892347     0.000012321728     1.007825032230
         H            2.281666528466     1.140775107653     0.000040321728     1.007825032230
         H           -2.571140471534    -0.508695892347     0.882371321728     1.007825032230

  Basis Set: AUG-CC-PVTZ
    Blend: AUG-CC-PVTZ
  Basis Set: (AUG-CC-PVTZ AUX)
    Blend: AUG-CC-PVTZ-JKFIT
	 Reference Energy          =    -263.9509341326021286 [Eh]
	 Singles Energy            =      -0.0000000000000000 [Eh]
	 Same-Spin Energy          =      -0.2863920872352849 [Eh]
	 Opposite-Spin Energy      =      -0.8959826003149448 [Eh]
	 Correlation Energy        =      -1.1823746875502297 [Eh]
	 Total Energy              =    -265.1333088201523651 [Eh]

	 ================> DF-SCS-MP2 Energies <==================
	-----------------------------------------------------------
	 SCS Same-Spin Scale       =       0.3333333333333333 [-]
	 SCS Opposite-Spin Scale   =       1.2000000000000000 [-]
	 SCS Same-Spin Energy      =      -0.0954640290784283 [Eh]
	 SCS Opposite-Spin Energy  =      -1.0751791203779337 [Eh]
	 SCS Correlation Energy    =      -1.1706431494563621 [Eh]
	 SCS Total Energy          =    -265.1215772820584675 [Eh]
	-----------------------------------------------------------

  Dipole Moment: [D]
     X:     2.0244      Y:     2.8121      Z:     0.0000     Total:     3.4650

*** Psi4 exiting successfully. Buy a developer a beer!
