                               Psi4 1.3.2 release

  ==> Input File <==

--------------------------------------------------------------------------
#psi4
#
memory 32 gb

molecule  {
0 1
  C       -2.1511020    -0.0065270     0.0000480
  C       -0.6578330     0.0187880    -0.0000310
  C        0.1863670     1.1106040    -0.0000190
  C        1.3448400    -0.7705710    -0.0000450
  N        0.1718980    -1.1220821    -0.0000385
  N        1.4605000     0.5893150     0.0000860
  H       -2.5302630    -0.5301450    -0.8821160
  H       -2.5568780     1.0090980    -0.0003890
  H        0.0003360     2.1751570    -0.0003990
  H        2.2046270    -1.4277370     0.0000190
  H        2.3225060     1.1195640     0.0001590
  H       -2.5302120    -0.5293840     0.8826800
units angstrom
no_reorient  #important for SAPT in psi4, default
symmetry c1  #important for SAPT in psi4, default
}

set PROPERTIES_ORIGIN ["COM"]
properties('MP2/aug-cc-pvtz', properties = ['dipole'])
--------------------------------------------------------------------------

    Molecular point group: c1
  Charge       = 0
  Multiplicity = 1
  Basis Set: AUG-CC-PVTZ
    Blend: AUG-CC-PVTZ
  Basis Set: (AUG-CC-PVTZ AUX)
    Blend: AUG-CC-PVTZ-JKFIT

    Orbital Energies [Eh]
    ---------------------

    Doubly Occupied:

       1A    -15.606040     2A    -15.529257     3A    -11.280968
       4A    -11.256579     5A    -11.249615     6A    -11.219439
       7A     -1.345899     8A     -1.168083     9A     -1.039191
      10A     -0.936629    11A     -0.808425    12A     -0.780470
      13A     -0.735397    14A     -0.619204    15A     -0.607744
      16A     -0.595836    17A     -0.551441    18A     -0.544895
      19A     -0.531716    20A     -0.420865    21A     -0.397849
      22A     -0.313233

  @DF-RHF Final Energy:  -263.94498425535267

   => Energetics <=

    Nuclear Repulsion Energy =            225.1660768210335277
    One-Electron Energy =                -803.1445701096466792
    Two-Electron Energy =                 314.0335090332605432
    Total Energy =                       -263.9449842553526651
  Basis Set: (AUG-CC-PVTZ AUX)
    Blend: AUG-CC-PVTZ-RI
    Molecular point group: c1

    Geometry (in Angstrom), charge = 0, multiplicity = 1:

       Center              X                  Y                   Z               Mass
    ------------   -----------------  -----------------  -----------------  -----------------
         C           -2.204869519490     0.010560490581     0.000047332310    12.000000000000
         C           -0.711600519490     0.035875490581    -0.000031667690    12.000000000000
         C            0.132599480510     1.127691490581    -0.000019667690    12.000000000000
         C            1.291072480510    -0.753483509419    -0.000045667690    12.000000000000
         N            0.118130480510    -1.104994609419    -0.000039167690    14.003074004430
         N            1.406732480510     0.606402490581     0.000085332310    14.003074004430
         H           -2.584030519490    -0.513057509419    -0.882116667690     1.007825032230
         H           -2.610645519490     1.026185490581    -0.000389667690     1.007825032230
         H           -0.053431519490     2.192244490581    -0.000399667690     1.007825032230
         H            2.150859480510    -1.410649509419     0.000018332310     1.007825032230
         H            2.268738480510     1.136651490581     0.000158332310     1.007825032230
         H           -2.583979519490    -0.512296509419     0.882679332310     1.007825032230

  Basis Set: AUG-CC-PVTZ
    Blend: AUG-CC-PVTZ
  Basis Set: (AUG-CC-PVTZ AUX)
    Blend: AUG-CC-PVTZ-JKFIT
	 Reference Energy          =    -263.9449842553526651 [Eh]
	 Singles Energy            =      -0.0000000000000000 [Eh]
	 Same-Spin Energy          =      -0.2847017123973970 [Eh]
	 Opposite-Spin Energy      =      -0.8929492569986147 [Eh]
	 Correlation Energy        =      -1.1776509693960118 [Eh]
	 Total Energy              =    -265.1226352247486489 [Eh]

	 ================> DF-SCS-MP2 Energies <==================
	-----------------------------------------------------------
	 SCS Same-Spin Scale       =       0.3333333333333333 [-]
	 SCS Opposite-Spin Scale   =       1.2000000000000000 [-]
	 SCS Same-Spin Energy      =      -0.0949005707991323 [Eh]
	 SCS Opposite-Spin Energy  =      -1.0715391083983377 [Eh]
	 SCS Correlation Energy    =      -1.1664396791974700 [Eh]
	 SCS Total Energy          =    -265.1114239345501460 [Eh]
	-----------------------------------------------------------

  Dipole Moment: [D]
     X:     1.8066      Y:     2.6790      Z:    -0.0001     Total:     3.2312

*** Psi4 exiting successfully. Buy a developer a beer!
