                               Psi4 1.4a3.dev225

  ==> Input File <==

--------------------------------------------------------------------------
#psi4
#
memory 32 gb

molecule  {
0 1
  C       -2.1510270    -0.0065590     0.0000050
  C       -0.6578210     0.0184680    -0.0000060
  C        0.1861760     1.1105370     0.0000080
  C        1.3450050    -0.7704390     0.0000010
  N        0.0763030    -1.1508590    -0.0000070
  N        1.5066177     0.5706265    -0.0000044
  H       -2.5304610    -0.5297300    -0.8823420
  H       -2.5565240     1.0091620    -0.0000020
  H       -0.0003960     2.1749820    -0.0000490
  H        2.2049760    -1.4273470     0.0000120
  H        2.3223630     1.1197620     0.0000400
  H       -2.5304440    -0.5297090     0.8823710
units angstrom
no_reorient  #important for SAPT in psi4, default
symmetry c1  #important for SAPT in psi4, default
}

set PROPERTIES_ORIGIN ["COM"]
properties('MP2/aug-cc-pvtz', properties = ['dipole'])
--------------------------------------------------------------------------

    Molecular point group: c1
  Charge       = 0
  Multiplicity = 1
  Basis Set: AUG-CC-PVTZ
    Blend: AUG-CC-PVTZ
  Basis Set: (AUG-CC-PVTZ AUX)
    Blend: AUG-CC-PVTZ-JKFIT

    Orbital Energies [Eh]
    ---------------------

    Doubly Occupied:

       1A    -15.617630     2A    -15.541036     3A    -11.300770
       4A    -11.255678     5A    -11.252701     6A    -11.217751
       7A     -1.329270     8A     -1.165133     9A     -1.028908
      10A     -0.936483    11A     -0.833571    12A     -0.767277
      13A     -0.733372    14A     -0.621136    15A     -0.600753
      16A     -0.588732    17A     -0.549481    18A     -0.542745
      19A     -0.526148    20A     -0.433532    21A     -0.390282
      22A     -0.312782

  @DF-RHF Final Energy:  -263.94769170374531

   => Energetics <=

    Nuclear Repulsion Energy =            223.1338917499481624
    One-Electron Energy =                -799.0728214143611012
    Two-Electron Energy =                 311.9912379606676609
    Total Energy =                       -263.9476917037453063
  Basis Set: (AUG-CC-PVTZ AUX)
    Blend: AUG-CC-PVTZ-RI
    Molecular point group: c1

    Geometry (in Angstrom), charge = 0, multiplicity = 1:

       Center              X                  Y                   Z               Mass
    ------------   -----------------  -----------------  -----------------  -----------------
         C           -2.196352315365     0.018663882012     0.000005407057    12.000000000000
         C           -0.703146315365     0.043690882012    -0.000005592943    12.000000000000
         C            0.140850684635     1.135759882012     0.000008407057    12.000000000000
         C            1.299679684635    -0.745216117988     0.000001407057    12.000000000000
         N            0.030977684635    -1.125636117988    -0.000006592943    14.003074004430
         N            1.461292384635     0.595849382012    -0.000003992943    14.003074004430
         H           -2.575786315365    -0.504507117988    -0.882341592943     1.007825032230
         H           -2.601849315365     1.034384882012    -0.000001592943     1.007825032230
         H           -0.045721315365     2.200204882012    -0.000048592943     1.007825032230
         H            2.159650684635    -1.402124117988     0.000012407057     1.007825032230
         H            2.277037684635     1.144984882012     0.000040407057     1.007825032230
         H           -2.575769315365    -0.504486117988     0.882371407057     1.007825032230

  Basis Set: AUG-CC-PVTZ
    Blend: AUG-CC-PVTZ
  Basis Set: (AUG-CC-PVTZ AUX)
    Blend: AUG-CC-PVTZ-JKFIT
	 Reference Energy          =    -263.9476917037453063 [Eh]
	 Singles Energy            =      -0.0000000000000000 [Eh]
	 Same-Spin Energy          =      -0.2860892183911128 [Eh]
	 Opposite-Spin Energy      =      -0.8964058683579277 [Eh]
	 Correlation Energy        =      -1.1824950867490405 [Eh]
	 Total Energy              =    -265.1301867904943492 [Eh]

	 ================> DF-SCS-MP2 Energies <==================
	-----------------------------------------------------------
	 SCS Same-Spin Scale       =       0.3333333333333333 [-]
	 SCS Opposite-Spin Scale   =       1.2000000000000000 [-]
	 SCS Same-Spin Energy      =      -0.0953630727970376 [Eh]
	 SCS Opposite-Spin Energy  =      -1.0756870420295133 [Eh]
	 SCS Correlation Energy    =      -1.1710501148265509 [Eh]
	 SCS Total Energy          =    -265.1187418185718343 [Eh]
	-----------------------------------------------------------

  Dipole Moment: [D]
     X:     1.9760      Y:     2.8060      Z:     0.0000     Total:     3.4319

*** Psi4 exiting successfully. Buy a developer a beer!
