                               Psi4 1.4a3.dev225

  ==> Input File <==

--------------------------------------------------------------------------
#psi4
#
memory 32 gb

molecule  {
0 1
  C       -2.1510270    -0.0065590     0.0000050
  C       -0.6578210     0.0184680    -0.0000060
  C        0.1861760     1.1105370     0.0000080
  C        1.3450050    -0.7704390     0.0000010
  N        0.1028887    -1.1932052    -0.0000070
  N        1.4603370     0.5895500    -0.0000040
  H       -2.5304610    -0.5297300    -0.8823420
  H       -2.5565240     1.0091620    -0.0000020
  H       -0.0003960     2.1749820    -0.0000490
  H        2.2049760    -1.4273470     0.0000120
  H        2.3223630     1.1197620     0.0000400
  H       -2.5304440    -0.5297090     0.8823710
units angstrom
no_reorient  #important for SAPT in psi4, default
symmetry c1  #important for SAPT in psi4, default
}

set PROPERTIES_ORIGIN ["COM"]
properties('MP2/aug-cc-pvtz', properties = ['dipole'])
--------------------------------------------------------------------------

    Molecular point group: c1
  Charge       = 0
  Multiplicity = 1
  Basis Set: AUG-CC-PVTZ
    Blend: AUG-CC-PVTZ
  Basis Set: (AUG-CC-PVTZ AUX)
    Blend: AUG-CC-PVTZ-JKFIT

    Orbital Energies [Eh]
    ---------------------

    Doubly Occupied:

       1A    -15.617468     2A    -15.546030     3A    -11.297255
       4A    -11.256661     5A    -11.252804     6A    -11.216992
       7A     -1.330728     8A     -1.159422     9A     -1.031899
      10A     -0.936526    11A     -0.818019    12A     -0.770498
      13A     -0.734672    14A     -0.613003    15A     -0.601565
      16A     -0.597470    17A     -0.549547    18A     -0.538575
      19A     -0.522778    20A     -0.437359    21A     -0.389239
      22A     -0.312071

  @DF-RHF Final Energy:  -263.94758226770193

   => Energetics <=

    Nuclear Repulsion Energy =            222.9271364307215322
    One-Electron Energy =                -798.6882753417618233
    Two-Electron Energy =                 311.8135566433383019
    Total Energy =                       -263.9475822677019323
  Basis Set: (AUG-CC-PVTZ AUX)
    Blend: AUG-CC-PVTZ-RI
    Molecular point group: c1

    Geometry (in Angstrom), charge = 0, multiplicity = 1:

       Center              X                  Y                   Z               Mass
    ------------   -----------------  -----------------  -----------------  -----------------
         C           -2.192991192524     0.022661169241     0.000005338794    12.000000000000
         C           -0.699785192524     0.047688169241    -0.000005661206    12.000000000000
         C            0.144211807476     1.139757169241     0.000008338794    12.000000000000
         C            1.303040807476    -0.741218830759     0.000001338794    12.000000000000
         N            0.060924507476    -1.163985030759    -0.000006661206    14.003074004430
         N            1.418372807476     0.618770169241    -0.000003661206    14.003074004430
         H           -2.572425192524    -0.500509830759    -0.882341661206     1.007825032230
         H           -2.598488192524     1.038382169241    -0.000001661206     1.007825032230
         H           -0.042360192524     2.204202169241    -0.000048661206     1.007825032230
         H            2.163011807476    -1.398126830759     0.000012338794     1.007825032230
         H            2.280398807476     1.148982169241     0.000040338794     1.007825032230
         H           -2.572408192524    -0.500488830759     0.882371338794     1.007825032230

  Basis Set: AUG-CC-PVTZ
    Blend: AUG-CC-PVTZ
  Basis Set: (AUG-CC-PVTZ AUX)
    Blend: AUG-CC-PVTZ-JKFIT
	 Reference Energy          =    -263.9475822677019323 [Eh]
	 Singles Energy            =      -0.0000000000000000 [Eh]
	 Same-Spin Energy          =      -0.2862187901397744 [Eh]
	 Opposite-Spin Energy      =      -0.8969891528310967 [Eh]
	 Correlation Energy        =      -1.1832079429708711 [Eh]
	 Total Energy              =    -265.1307902106727852 [Eh]

	 ================> DF-SCS-MP2 Energies <==================
	-----------------------------------------------------------
	 SCS Same-Spin Scale       =       0.3333333333333333 [-]
	 SCS Opposite-Spin Scale   =       1.2000000000000000 [-]
	 SCS Same-Spin Energy      =      -0.0954062633799248 [Eh]
	 SCS Opposite-Spin Energy  =      -1.0763869833973161 [Eh]
	 SCS Correlation Energy    =      -1.1717932467772409 [Eh]
	 SCS Total Energy          =    -265.1193755144791453 [Eh]
	-----------------------------------------------------------

  Dipole Moment: [D]
     X:     2.0100      Y:     2.9097      Z:     0.0000     Total:     3.5364

*** Psi4 exiting successfully. Buy a developer a beer!
