                               Psi4 1.3.2 release

  ==> Input File <==

--------------------------------------------------------------------------
#psi4
#
memory 32 gb

molecule  {
0 1
  C       -2.1504328    -0.0325843     0.0000466
  C       -0.6578330     0.0187880    -0.0000310
  C        0.1863670     1.1106040    -0.0000190
  C        1.3448400    -0.7705710    -0.0000450
  N        0.0761070    -1.1507890    -0.0000380
  N        1.4605000     0.5893150     0.0000860
  H       -2.5302630    -0.5301450    -0.8821160
  H       -2.5568780     1.0090980    -0.0003890
  H        0.0003360     2.1751570    -0.0003990
  H        2.2046270    -1.4277370     0.0000190
  H        2.3225060     1.1195640     0.0001590
  H       -2.5302120    -0.5293840     0.8826800
units angstrom
no_reorient  #important for SAPT in psi4, default
symmetry c1  #important for SAPT in psi4, default
}

set PROPERTIES_ORIGIN ["COM"]
properties('MP2/aug-cc-pvtz', properties = ['dipole'])
--------------------------------------------------------------------------

    Molecular point group: c1
  Charge       = 0
  Multiplicity = 1
  Basis Set: AUG-CC-PVTZ
    Blend: AUG-CC-PVTZ
  Basis Set: (AUG-CC-PVTZ AUX)
    Blend: AUG-CC-PVTZ-JKFIT

    Orbital Energies [Eh]
    ---------------------

    Doubly Occupied:

       1A    -15.620390     2A    -15.541665     3A    -11.297388
       4A    -11.254443     5A    -11.248391     6A    -11.215795
       7A     -1.334580     8A     -1.164253     9A     -1.029009
      10A     -0.937297    11A     -0.823820    12A     -0.768915
      13A     -0.735978    14A     -0.616019    15A     -0.604685
      16A     -0.596695    17A     -0.554419    18A     -0.542552
      19A     -0.516140    20A     -0.433570    21A     -0.391582
      22A     -0.309775

  @DF-RHF Final Energy:  -263.94898830690136

   => Energetics <=

    Nuclear Repulsion Energy =            223.7950141947542591
    One-Electron Energy =                -800.4132850633577618
    Two-Electron Energy =                 312.6692825617021754
    Total Energy =                       -263.9489883069013558
  Basis Set: (AUG-CC-PVTZ AUX)
    Blend: AUG-CC-PVTZ-RI
    Molecular point group: c1

    Geometry (in Angstrom), charge = 0, multiplicity = 1:

       Center              X                  Y                   Z               Mass
    ------------   -----------------  -----------------  -----------------  -----------------
         C           -2.187950621536    -0.006786931782     0.000046051726    12.000000000000
         C           -0.695350821536     0.044585368218    -0.000031548274    12.000000000000
         C            0.148849178464     1.136401368218    -0.000019548274    12.000000000000
         C            1.307322178464    -0.744773631782    -0.000045548274    12.000000000000
         N            0.038589178464    -1.124991631782    -0.000038548274    14.003074004430
         N            1.422982178464     0.615112368218     0.000085451726    14.003074004430
         H           -2.567780821536    -0.504347631782    -0.882116548274     1.007825032230
         H           -2.594395821536     1.034895368218    -0.000389548274     1.007825032230
         H           -0.037181821536     2.200954368218    -0.000399548274     1.007825032230
         H            2.167109178464    -1.401939631782     0.000018451726     1.007825032230
         H            2.284988178464     1.145361368218     0.000158451726     1.007825032230
         H           -2.567729821536    -0.503586631782     0.882679451726     1.007825032230

  Basis Set: AUG-CC-PVTZ
    Blend: AUG-CC-PVTZ
  Basis Set: (AUG-CC-PVTZ AUX)
    Blend: AUG-CC-PVTZ-JKFIT
	 Reference Energy          =    -263.9489883069013558 [Eh]
	 Singles Energy            =      -0.0000000000000000 [Eh]
	 Same-Spin Energy          =      -0.2868332609190654 [Eh]
	 Opposite-Spin Energy      =      -0.8968979081155104 [Eh]
	 Correlation Energy        =      -1.1837311690345758 [Eh]
	 Total Energy              =    -265.1327194759359145 [Eh]

	 ================> DF-SCS-MP2 Energies <==================
	-----------------------------------------------------------
	 SCS Same-Spin Scale       =       0.3333333333333333 [-]
	 SCS Opposite-Spin Scale   =       1.2000000000000000 [-]
	 SCS Same-Spin Energy      =      -0.0956110869730218 [Eh]
	 SCS Opposite-Spin Energy  =      -1.0762774897386125 [Eh]
	 SCS Correlation Energy    =      -1.1718885767116343 [Eh]
	 SCS Total Energy          =    -265.1208768836129934 [Eh]
	-----------------------------------------------------------

  Dipole Moment: [D]
     X:     2.0810      Y:     2.8283      Z:    -0.0001     Total:     3.5114

*** Psi4 exiting successfully. Buy a developer a beer!
