                               Psi4 1.4a3.dev225

  ==> Input File <==

--------------------------------------------------------------------------
#psi4
#
memory 32 gb

molecule  {
0 1
  C       -2.1510270    -0.0065590     0.0000050
  C       -0.6578210     0.0184680    -0.0000060
  C        0.2167512     1.1500991     0.0000085
  C        1.3450050    -0.7704390     0.0000010
  N        0.0763030    -1.1508590    -0.0000070
  N        1.4603370     0.5895500    -0.0000040
  H       -2.5304610    -0.5297300    -0.8823420
  H       -2.5565240     1.0091620    -0.0000020
  H       -0.0003960     2.1749820    -0.0000490
  H        2.2049760    -1.4273470     0.0000120
  H        2.3223630     1.1197620     0.0000400
  H       -2.5304440    -0.5297090     0.8823710
units angstrom
no_reorient  #important for SAPT in psi4, default
symmetry c1  #important for SAPT in psi4, default
}

set PROPERTIES_ORIGIN ["COM"]
properties('MP2/aug-cc-pvtz', properties = ['dipole'])
--------------------------------------------------------------------------

    Molecular point group: c1
  Charge       = 0
  Multiplicity = 1
  Basis Set: AUG-CC-PVTZ
    Blend: AUG-CC-PVTZ
  Basis Set: (AUG-CC-PVTZ AUX)
    Blend: AUG-CC-PVTZ-JKFIT

    Orbital Energies [Eh]
    ---------------------

    Doubly Occupied:

       1A    -15.623848     2A    -15.544336     3A    -11.296664
       4A    -11.255845     5A    -11.254139     6A    -11.215777
       7A     -1.334644     8A     -1.167003     9A     -1.025567
      10A     -0.936081    11A     -0.823359    12A     -0.774160
      13A     -0.734462    14A     -0.613304    15A     -0.609469
      16A     -0.602540    17A     -0.549436    18A     -0.537066
      19A     -0.524430    20A     -0.433704    21A     -0.393726
      22A     -0.300457

  @DF-RHF Final Energy:  -263.94420022711091

   => Energetics <=

    Nuclear Repulsion Energy =            223.1503297023745631
    One-Electron Energy =                -799.0890243133994773
    Two-Electron Energy =                 311.9944943839139455
    Total Energy =                       -263.9442002271109118
  Basis Set: (AUG-CC-PVTZ AUX)
    Blend: AUG-CC-PVTZ-RI
    Molecular point group: c1

    Geometry (in Angstrom), charge = 0, multiplicity = 1:

       Center              X                  Y                   Z               Mass
    ------------   -----------------  -----------------  -----------------  -----------------
         C           -2.192925635895     0.009648593289     0.000005265670    12.000000000000
         C           -0.699719635895     0.034675593289    -0.000005734330    12.000000000000
         C            0.174852564105     1.166306693289     0.000008765670    12.000000000000
         C            1.303106364105    -0.754231406711     0.000001265670    12.000000000000
         N            0.034404364105    -1.134651406711    -0.000006734330    14.003074004430
         N            1.418438364105     0.605757593289    -0.000003734330    14.003074004430
         H           -2.572359635895    -0.513522406711    -0.882341734330     1.007825032230
         H           -2.598422635895     1.025369593289    -0.000001734330     1.007825032230
         H           -0.042294635895     2.191189593289    -0.000048734330     1.007825032230
         H            2.163077364105    -1.411139406711     0.000012265670     1.007825032230
         H            2.280464364105     1.135969593289     0.000040265670     1.007825032230
         H           -2.572342635895    -0.513501406711     0.882371265670     1.007825032230

  Basis Set: AUG-CC-PVTZ
    Blend: AUG-CC-PVTZ
  Basis Set: (AUG-CC-PVTZ AUX)
    Blend: AUG-CC-PVTZ-JKFIT
	 Reference Energy          =    -263.9442002271109118 [Eh]
	 Singles Energy            =      -0.0000000000000000 [Eh]
	 Same-Spin Energy          =      -0.2877364753697210 [Eh]
	 Opposite-Spin Energy      =      -0.8981244875154017 [Eh]
	 Correlation Energy        =      -1.1858609628851227 [Eh]
	 Total Energy              =    -265.1300611899960131 [Eh]

	 ================> DF-SCS-MP2 Energies <==================
	-----------------------------------------------------------
	 SCS Same-Spin Scale       =       0.3333333333333333 [-]
	 SCS Opposite-Spin Scale   =       1.2000000000000000 [-]
	 SCS Same-Spin Energy      =      -0.0959121584565737 [Eh]
	 SCS Opposite-Spin Energy  =      -1.0777493850184821 [Eh]
	 SCS Correlation Energy    =      -1.1736615434750557 [Eh]
	 SCS Total Energy          =    -265.1178617705859892 [Eh]
	-----------------------------------------------------------

  Dipole Moment: [D]
     X:     2.0886      Y:     2.8443      Z:     0.0000     Total:     3.5288

*** Psi4 exiting successfully. Buy a developer a beer!
