                               Psi4 1.4a3.dev225

  ==> Input File <==

--------------------------------------------------------------------------
#psi4
#
memory 32 gb

molecule  {
0 1
  C       -2.1510270    -0.0065590     0.0000050
  C       -0.6578210     0.0184680    -0.0000060
  C        0.1861760     1.1105370     0.0000080
  C        1.3450050    -0.7704390     0.0000010
  N        0.0763030    -1.1508590    -0.0000070
  N        1.4140563     0.6084735    -0.0000036
  H       -2.5304610    -0.5297300    -0.8823420
  H       -2.5565240     1.0091620    -0.0000020
  H       -0.0003960     2.1749820    -0.0000490
  H        2.2049760    -1.4273470     0.0000120
  H        2.3223630     1.1197620     0.0000400
  H       -2.5304440    -0.5297090     0.8823710
units angstrom
no_reorient  #important for SAPT in psi4, default
symmetry c1  #important for SAPT in psi4, default
}

set PROPERTIES_ORIGIN ["COM"]
properties('MP2/aug-cc-pvtz', properties = ['dipole'])
--------------------------------------------------------------------------

    Molecular point group: c1
  Charge       = 0
  Multiplicity = 1
  Basis Set: AUG-CC-PVTZ
    Blend: AUG-CC-PVTZ
  Basis Set: (AUG-CC-PVTZ AUX)
    Blend: AUG-CC-PVTZ-JKFIT

    Orbital Energies [Eh]
    ---------------------

    Doubly Occupied:

       1A    -15.622901     2A    -15.543288     3A    -11.294420
       4A    -11.252047     5A    -11.243876     6A    -11.213798
       7A     -1.341169     8A     -1.164828     9A     -1.029713
      10A     -0.936679    11A     -0.815595    12A     -0.771890
      13A     -0.737489    14A     -0.619421    15A     -0.607047
      16A     -0.596913    17A     -0.548180    18A     -0.537424
      19A     -0.523389    20A     -0.433248    21A     -0.393672
      22A     -0.304564

  @DF-RHF Final Energy:  -263.94484238685391

   => Energetics <=

    Nuclear Repulsion Energy =            224.4661464293002950
    One-Electron Energy =                -801.7588763836018870
    Two-Electron Energy =                 313.3478875674477422
    Total Energy =                       -263.9448423868539066
  Basis Set: (AUG-CC-PVTZ AUX)
    Blend: AUG-CC-PVTZ-RI
    Molecular point group: c1

    Geometry (in Angstrom), charge = 0, multiplicity = 1:

       Center              X                  Y                   Z               Mass
    ------------   -----------------  -----------------  -----------------  -----------------
         C           -2.180555908373     0.012204962685     0.000005270530    12.000000000000
         C           -0.687349908373     0.037231962685    -0.000005729470    12.000000000000
         C            0.156647091627     1.129300962685     0.000008270530    12.000000000000
         C            1.315476091627    -0.751675037315     0.000001270530    12.000000000000
         N            0.046774091627    -1.132095037315    -0.000006729470    14.003074004430
         N            1.384527391627     0.627237462685    -0.000003329470    14.003074004430
         H           -2.559989908373    -0.510966037315    -0.882341729470     1.007825032230
         H           -2.586052908373     1.027925962685    -0.000001729470     1.007825032230
         H           -0.029924908373     2.193745962685    -0.000048729470     1.007825032230
         H            2.175447091627    -1.408583037315     0.000012270530     1.007825032230
         H            2.292834091627     1.138525962685     0.000040270530     1.007825032230
         H           -2.559972908373    -0.510945037315     0.882371270530     1.007825032230

  Basis Set: AUG-CC-PVTZ
    Blend: AUG-CC-PVTZ
  Basis Set: (AUG-CC-PVTZ AUX)
    Blend: AUG-CC-PVTZ-JKFIT
	 Reference Energy          =    -263.9448423868539066 [Eh]
	 Singles Energy            =      -0.0000000000000000 [Eh]
	 Same-Spin Energy          =      -0.2877262200750739 [Eh]
	 Opposite-Spin Energy      =      -0.8975920328306369 [Eh]
	 Correlation Energy        =      -1.1853182529057107 [Eh]
	 Total Energy              =    -265.1301606397595947 [Eh]

	 ================> DF-SCS-MP2 Energies <==================
	-----------------------------------------------------------
	 SCS Same-Spin Scale       =       0.3333333333333333 [-]
	 SCS Opposite-Spin Scale   =       1.2000000000000000 [-]
	 SCS Same-Spin Energy      =      -0.0959087400250246 [Eh]
	 SCS Opposite-Spin Energy  =      -1.0771104393967643 [Eh]
	 SCS Correlation Energy    =      -1.1730191794217890 [Eh]
	 SCS Total Energy          =    -265.1178615662756783 [Eh]
	-----------------------------------------------------------

  Dipole Moment: [D]
     X:     2.1618      Y:     2.8874      Z:     0.0000     Total:     3.6070

*** Psi4 exiting successfully. Buy a developer a beer!
