                               Psi4 1.3.2 release

  ==> Input File <==

--------------------------------------------------------------------------
#psi4
#
memory 32 gb

molecule  {
0 1
  C       -2.1511020    -0.0065270     0.0000480
  C       -0.6578330     0.0187880    -0.0000310
  C        0.1863670     1.1106040    -0.0000190
  C        1.3448400    -0.7705710    -0.0000450
  N        0.1824143    -1.3201961    -0.0000390
  N        1.4605000     0.5893150     0.0000860
  H       -2.5302630    -0.5301450    -0.8821160
  H       -2.5568780     1.0090980    -0.0003890
  H        0.0003360     2.1751570    -0.0003990
  H        2.2046270    -1.4277370     0.0000190
  H        2.3225060     1.1195640     0.0001590
  H       -2.5302120    -0.5293840     0.8826800
units angstrom
no_reorient  #important for SAPT in psi4, default
symmetry c1  #important for SAPT in psi4, default
}

set PROPERTIES_ORIGIN ["COM"]
properties('MP2/aug-cc-pvtz', properties = ['dipole'])
--------------------------------------------------------------------------

    Molecular point group: c1
  Charge       = 0
  Multiplicity = 1
  Basis Set: AUG-CC-PVTZ
    Blend: AUG-CC-PVTZ
  Basis Set: (AUG-CC-PVTZ AUX)
    Blend: AUG-CC-PVTZ-JKFIT

    Orbital Energies [Eh]
    ---------------------

    Doubly Occupied:

       1A    -15.612070     2A    -15.557203     3A    -11.296942
       4A    -11.265052     5A    -11.263453     6A    -11.220073
       7A     -1.322178     8A     -1.153919     9A     -1.036187
      10A     -0.936125    11A     -0.810603    12A     -0.766929
      13A     -0.731654    14A     -0.604289    15A     -0.597778
      16A     -0.595978    17A     -0.551671    18A     -0.537391
      19A     -0.518033    20A     -0.436821    21A     -0.389612
      22A     -0.316921

  @DF-RHF Final Energy:  -263.92290375787547

   => Energetics <=

    Nuclear Repulsion Energy =            220.4739983616645418
    One-Electron Energy =                -793.7520399057081022
    Two-Electron Energy =                 309.3551377861681431
    Total Energy =                       -263.9229037578754742
  Basis Set: (AUG-CC-PVTZ AUX)
    Blend: AUG-CC-PVTZ-RI
    Molecular point group: c1

    Geometry (in Angstrom), charge = 0, multiplicity = 1:

       Center              X                  Y                   Z               Mass
    ------------   -----------------  -----------------  -----------------  -----------------
         C           -2.206664217440     0.044370365699     0.000047417639    12.000000000000
         C           -0.713395217440     0.069685365699    -0.000031582361    12.000000000000
         C            0.130804782560     1.161501365699    -0.000019582361    12.000000000000
         C            1.289277782560    -0.719673634301    -0.000045582361    12.000000000000
         N            0.126852082560    -1.269298734301    -0.000039582361    14.003074004430
         N            1.404937782560     0.640212365699     0.000085417639    14.003074004430
         H           -2.585825217440    -0.479247634301    -0.882116582361     1.007825032230
         H           -2.612440217440     1.059995365699    -0.000389582361     1.007825032230
         H           -0.055226217440     2.226054365699    -0.000399582361     1.007825032230
         H            2.149064782560    -1.376839634301     0.000018417639     1.007825032230
         H            2.266943782560     1.170461365699     0.000158417639     1.007825032230
         H           -2.585774217440    -0.478486634301     0.882679417639     1.007825032230

  Basis Set: AUG-CC-PVTZ
    Blend: AUG-CC-PVTZ
  Basis Set: (AUG-CC-PVTZ AUX)
    Blend: AUG-CC-PVTZ-JKFIT
	 Reference Energy          =    -263.9229037578754742 [Eh]
	 Singles Energy            =      -0.0000000000000000 [Eh]
	 Same-Spin Energy          =      -0.2852167026615070 [Eh]
	 Opposite-Spin Energy      =      -0.8993251318211878 [Eh]
	 Correlation Energy        =      -1.1845418344826948 [Eh]
	 Total Energy              =    -265.1074455923581468 [Eh]

	 ================> DF-SCS-MP2 Energies <==================
	-----------------------------------------------------------
	 SCS Same-Spin Scale       =       0.3333333333333333 [-]
	 SCS Opposite-Spin Scale   =       1.2000000000000000 [-]
	 SCS Same-Spin Energy      =      -0.0950722342205023 [Eh]
	 SCS Opposite-Spin Energy  =      -1.0791901581854253 [Eh]
	 SCS Correlation Energy    =      -1.1742623924059277 [Eh]
	 SCS Total Energy          =    -265.0971661502813959 [Eh]
	-----------------------------------------------------------

  Dipole Moment: [D]
     X:     1.8119      Y:     3.0914      Z:    -0.0000     Total:     3.5833

*** Psi4 exiting successfully. Buy a developer a beer!
