                               Psi4 1.3.2 release

  ==> Input File <==

--------------------------------------------------------------------------
#psi4
#
memory 32 gb

molecule  {
0 1
  C       -2.1511020    -0.0065270     0.0000480
  C       -0.6578330     0.0187880    -0.0000310
  C        0.1863670     1.1106040    -0.0000190
  C        1.3448400    -0.7705710    -0.0000450
  N        0.0526749    -1.0613605    -0.0000283
  N        1.4605000     0.5893150     0.0000860
  H       -2.5302630    -0.5301450    -0.8821160
  H       -2.5568780     1.0090980    -0.0003890
  H        0.0003360     2.1751570    -0.0003990
  H        2.2046270    -1.4277370     0.0000190
  H        2.3225060     1.1195640     0.0001590
  H       -2.5302120    -0.5293840     0.8826800
units angstrom
no_reorient  #important for SAPT in psi4, default
symmetry c1  #important for SAPT in psi4, default
}

set PROPERTIES_ORIGIN ["COM"]
properties('MP2/aug-cc-pvtz', properties = ['dipole'])
--------------------------------------------------------------------------

    Molecular point group: c1
  Charge       = 0
  Multiplicity = 1
  Basis Set: AUG-CC-PVTZ
    Blend: AUG-CC-PVTZ
  Basis Set: (AUG-CC-PVTZ AUX)
    Blend: AUG-CC-PVTZ-JKFIT

    Orbital Energies [Eh]
    ---------------------

    Doubly Occupied:

       1A    -15.622579     2A    -15.530697     3A    -11.294190
       4A    -11.249112     5A    -11.239242     6A    -11.214175
       7A     -1.346231     8A     -1.176396     9A     -1.026740
      10A     -0.937899    11A     -0.834666    12A     -0.766485
      13A     -0.737538    14A     -0.626634    15A     -0.609022
      16A     -0.594265    17A     -0.549377    18A     -0.547995
      19A     -0.528726    20A     -0.418270    21A     -0.399274
      22A     -0.303752

  @DF-RHF Final Energy:  -263.94375899039267

   => Energetics <=

    Nuclear Repulsion Energy =            225.8673179664005204
    One-Electron Energy =                -804.5156231743674198
    Two-Electron Energy =                 314.7045462175742614
    Total Energy =                       -263.9437589903926664
  Basis Set: (AUG-CC-PVTZ AUX)
    Blend: AUG-CC-PVTZ-RI
    Molecular point group: c1

    Geometry (in Angstrom), charge = 0, multiplicity = 1:

       Center              X                  Y                   Z               Mass
    ------------   -----------------  -----------------  -----------------  -----------------
         C           -2.184523061782     0.000197822052     0.000045591591    12.000000000000
         C           -0.691254061782     0.025512822052    -0.000033408409    12.000000000000
         C            0.152945938218     1.117328822052    -0.000021408409    12.000000000000
         C            1.311418938218    -0.763846177948    -0.000047408409    12.000000000000
         N            0.019253838218    -1.054635677948    -0.000030708409    14.003074004430
         N            1.427078938218     0.596039822052     0.000083591591    14.003074004430
         H           -2.563684061782    -0.523420177948    -0.882118408409     1.007825032230
         H           -2.590299061782     1.015822822052    -0.000391408409     1.007825032230
         H           -0.033085061782     2.181881822052    -0.000401408409     1.007825032230
         H            2.171205938218    -1.421012177948     0.000016591591     1.007825032230
         H            2.289084938218     1.126288822052     0.000156591591     1.007825032230
         H           -2.563633061782    -0.522659177948     0.882677591591     1.007825032230

  Basis Set: AUG-CC-PVTZ
    Blend: AUG-CC-PVTZ
  Basis Set: (AUG-CC-PVTZ AUX)
    Blend: AUG-CC-PVTZ-JKFIT
	 Reference Energy          =    -263.9437589903926664 [Eh]
	 Singles Energy            =      -0.0000000000000000 [Eh]
	 Same-Spin Energy          =      -0.2877215849254372 [Eh]
	 Opposite-Spin Energy      =      -0.8962059592903084 [Eh]
	 Correlation Energy        =      -1.1839275442157455 [Eh]
	 Total Energy              =    -265.1276865346084151 [Eh]

	 ================> DF-SCS-MP2 Energies <==================
	-----------------------------------------------------------
	 SCS Same-Spin Scale       =       0.3333333333333333 [-]
	 SCS Opposite-Spin Scale   =       1.2000000000000000 [-]
	 SCS Same-Spin Energy      =      -0.0959071949751457 [Eh]
	 SCS Opposite-Spin Energy  =      -1.0754471511483701 [Eh]
	 SCS Correlation Energy    =      -1.1713543461235159 [Eh]
	 SCS Total Energy          =    -265.1151133365161741 [Eh]
	-----------------------------------------------------------

  Dipole Moment: [D]
     X:     2.1147      Y:     2.6504      Z:    -0.0001     Total:     3.3907

*** Psi4 exiting successfully. Buy a developer a beer!
