                               Psi4 1.3.2 release

  ==> Input File <==

--------------------------------------------------------------------------
#psi4
#
memory 32 gb

molecule  {
0 1
  C       -2.1511020    -0.0065270     0.0000480
  C       -0.6578330     0.0187880    -0.0000310
  C        0.1863670     1.1106040    -0.0000190
  C        1.3448400    -0.7705710    -0.0000450
  N        0.1292607    -1.2354925    -0.0000385
  N        1.4605000     0.5893150     0.0000860
  H       -2.5302630    -0.5301450    -0.8821160
  H       -2.5568780     1.0090980    -0.0003890
  H        0.0003360     2.1751570    -0.0003990
  H        2.2046270    -1.4277370     0.0000190
  H        2.3225060     1.1195640     0.0001590
  H       -2.5302120    -0.5293840     0.8826800
units angstrom
no_reorient  #important for SAPT in psi4, default
symmetry c1  #important for SAPT in psi4, default
}

set PROPERTIES_ORIGIN ["COM"]
properties('MP2/aug-cc-pvtz', properties = ['dipole'])
--------------------------------------------------------------------------

    Molecular point group: c1
  Charge       = 0
  Multiplicity = 1
  Basis Set: AUG-CC-PVTZ
    Blend: AUG-CC-PVTZ
  Basis Set: (AUG-CC-PVTZ AUX)
    Blend: AUG-CC-PVTZ-JKFIT

    Orbital Energies [Eh]
    ---------------------

    Doubly Occupied:

       1A    -15.615193     2A    -15.549805     3A    -11.296966
       4A    -11.259524     5A    -11.256781     6A    -11.218109
       7A     -1.327487     8A     -1.156349     9A     -1.033775
      10A     -0.936292    11A     -0.813747    12A     -0.770689
      13A     -0.733592    14A     -0.608903    15A     -0.600058
      16A     -0.597963    17A     -0.550292    18A     -0.537636
      19A     -0.520495    20A     -0.439450    21A     -0.388392
      22A     -0.314303

  @DF-RHF Final Energy:  -263.94191687107025

   => Energetics <=

    Nuclear Repulsion Energy =            222.0917008087079410
    One-Electron Energy =                -797.0156362452119083
    Two-Electron Energy =                 310.9820185654336910
    Total Energy =                       -263.9419168710702479
  Basis Set: (AUG-CC-PVTZ AUX)
    Blend: AUG-CC-PVTZ-RI
    Molecular point group: c1

    Geometry (in Angstrom), charge = 0, multiplicity = 1:

       Center              X                  Y                   Z               Mass
    ------------   -----------------  -----------------  -----------------  -----------------
         C           -2.197593093854     0.029914960538     0.000047332310    12.000000000000
         C           -0.704324093854     0.055229960538    -0.000031667690    12.000000000000
         C            0.139875906146     1.147045960538    -0.000019667690    12.000000000000
         C            1.298348906146    -0.734129039462    -0.000045667690    12.000000000000
         N            0.082769606146    -1.199050539462    -0.000039167690    14.003074004430
         N            1.414008906146     0.625756960538     0.000085332310    14.003074004430
         H           -2.576754093854    -0.493703039462    -0.882116667690     1.007825032230
         H           -2.603369093854     1.045539960538    -0.000389667690     1.007825032230
         H           -0.046155093854     2.211598960538    -0.000399667690     1.007825032230
         H            2.158135906146    -1.391295039462     0.000018332310     1.007825032230
         H            2.276014906146     1.156005960538     0.000158332310     1.007825032230
         H           -2.576703093854    -0.492942039462     0.882679332310     1.007825032230

  Basis Set: AUG-CC-PVTZ
    Blend: AUG-CC-PVTZ
  Basis Set: (AUG-CC-PVTZ AUX)
    Blend: AUG-CC-PVTZ-JKFIT
	 Reference Energy          =    -263.9419168710702479 [Eh]
	 Singles Energy            =      -0.0000000000000000 [Eh]
	 Same-Spin Energy          =      -0.2857265029592718 [Eh]
	 Opposite-Spin Energy      =      -0.8974561717002075 [Eh]
	 Correlation Energy        =      -1.1831826746594793 [Eh]
	 Total Energy              =    -265.1250995457297108 [Eh]

	 ================> DF-SCS-MP2 Energies <==================
	-----------------------------------------------------------
	 SCS Same-Spin Scale       =       0.3333333333333333 [-]
	 SCS Opposite-Spin Scale   =       1.2000000000000000 [-]
	 SCS Same-Spin Energy      =      -0.0952421676530906 [Eh]
	 SCS Opposite-Spin Energy  =      -1.0769474060402491 [Eh]
	 SCS Correlation Energy    =      -1.1721895736933396 [Eh]
	 SCS Total Energy          =    -265.1141064447635927 [Eh]
	-----------------------------------------------------------

  Dipole Moment: [D]
     X:     1.9458      Y:     2.9728      Z:    -0.0001     Total:     3.5530

*** Psi4 exiting successfully. Buy a developer a beer!
