                               Psi4 1.3.2 release

  ==> Input File <==

--------------------------------------------------------------------------
#psi4
#
memory 32 gb

molecule  {
0 1
  C       -2.1511020    -0.0065270     0.0000480
  C       -0.4578617     0.0221781    -0.0000416
  C        0.1863670     1.1106040    -0.0000190
  C        1.3448400    -0.7705710    -0.0000450
  N        0.0761070    -1.1507890    -0.0000380
  N        1.4605000     0.5893150     0.0000860
  H       -2.5302630    -0.5301450    -0.8821160
  H       -2.5568780     1.0090980    -0.0003890
  H        0.0003360     2.1751570    -0.0003990
  H        2.2046270    -1.4277370     0.0000190
  H        2.3225060     1.1195640     0.0001590
  H       -2.5302120    -0.5293840     0.8826800
units angstrom
no_reorient  #important for SAPT in psi4, default
symmetry c1  #important for SAPT in psi4, default
}

set PROPERTIES_ORIGIN ["COM"]
properties('MP2/aug-cc-pvtz', properties = ['dipole'])
--------------------------------------------------------------------------

    Molecular point group: c1
  Charge       = 0
  Multiplicity = 1
  Basis Set: AUG-CC-PVTZ
    Blend: AUG-CC-PVTZ
  Basis Set: (AUG-CC-PVTZ AUX)
    Blend: AUG-CC-PVTZ-JKFIT

    Orbital Energies [Eh]
    ---------------------

    Doubly Occupied:

       1A    -15.620003     2A    -15.542153     3A    -11.304201
       4A    -11.239065     5A    -11.236388     6A    -11.211212
       7A     -1.368212     8A     -1.187006     9A     -1.029873
      10A     -0.916989    11A     -0.845114    12A     -0.777088
      13A     -0.731765    14A     -0.631060    15A     -0.619797
      16A     -0.602038    17A     -0.532778    18A     -0.523526
      19A     -0.491418    20A     -0.431458    21A     -0.407755
      22A     -0.328295

  @DF-RHF Final Energy:  -263.89874955165129

   => Energetics <=

    Nuclear Repulsion Energy =            226.3009150053750034
    One-Electron Energy =                -805.2449373948883249
    Two-Electron Energy =                 315.0452728378620009
    Total Energy =                       -263.8987495516512922
  Basis Set: (AUG-CC-PVTZ AUX)
    Blend: AUG-CC-PVTZ-RI
    Molecular point group: c1

    Geometry (in Angstrom), charge = 0, multiplicity = 1:

       Center              X                  Y                   Z               Mass
    ------------   -----------------  -----------------  -----------------  -----------------
         C           -2.217767108505     0.014963781292     0.000048797196    12.000000000000
         C           -0.524526808505     0.043668881292    -0.000040802804    12.000000000000
         C            0.119701891495     1.132094781292    -0.000018202804    12.000000000000
         C            1.278174891495    -0.749080218708    -0.000044202804    12.000000000000
         N            0.009441891495    -1.129298218708    -0.000037202804    14.003074004430
         N            1.393834891495     0.610805781292     0.000086797196    14.003074004430
         H           -2.596928108505    -0.508654218708    -0.882115202804     1.007825032230
         H           -2.623543108505     1.030588781292    -0.000388202804     1.007825032230
         H           -0.066329108505     2.196647781292    -0.000398202804     1.007825032230
         H            2.137961891495    -1.406246218708     0.000019797196     1.007825032230
         H            2.255840891495     1.141054781292     0.000159797196     1.007825032230
         H           -2.596877108505    -0.507893218708     0.882680797196     1.007825032230

  Basis Set: AUG-CC-PVTZ
    Blend: AUG-CC-PVTZ
  Basis Set: (AUG-CC-PVTZ AUX)
    Blend: AUG-CC-PVTZ-JKFIT
	 Reference Energy          =    -263.8987495516512922 [Eh]
	 Singles Energy            =      -0.0000000000000000 [Eh]
	 Same-Spin Energy          =      -0.2862987444643023 [Eh]
	 Opposite-Spin Energy      =      -0.8957543424550987 [Eh]
	 Correlation Energy        =      -1.1820530869194008 [Eh]
	 Total Energy              =    -265.0808026385706739 [Eh]

	 ================> DF-SCS-MP2 Energies <==================
	-----------------------------------------------------------
	 SCS Same-Spin Scale       =       0.3333333333333333 [-]
	 SCS Opposite-Spin Scale   =       1.2000000000000000 [-]
	 SCS Same-Spin Energy      =      -0.0954329148214341 [Eh]
	 SCS Opposite-Spin Energy  =      -1.0749052109461184 [Eh]
	 SCS Correlation Energy    =      -1.1703381257675525 [Eh]
	 SCS Total Energy          =    -265.0690876774188496 [Eh]
	-----------------------------------------------------------

  Dipole Moment: [D]
     X:     2.5541      Y:     2.8262      Z:    -0.0001     Total:     3.8093

*** Psi4 exiting successfully. Buy a developer a beer!
