                               Psi4 1.3.2 release

  ==> Input File <==

--------------------------------------------------------------------------
#psi4
#
memory 32 gb

molecule  {
0 1
  C       -2.1511020    -0.0065270     0.0000480
  C       -0.7673342     0.1130120    -0.0000420
  C        0.1863670     1.1106040    -0.0000190
  C        1.3448400    -0.7705710    -0.0000450
  N        0.0761070    -1.1507890    -0.0000380
  N        1.4605000     0.5893150     0.0000860
  H       -2.5302630    -0.5301450    -0.8821160
  H       -2.5568780     1.0090980    -0.0003890
  H        0.0003360     2.1751570    -0.0003990
  H        2.2046270    -1.4277370     0.0000190
  H        2.3225060     1.1195640     0.0001590
  H       -2.5302120    -0.5293840     0.8826800
units angstrom
no_reorient  #important for SAPT in psi4, default
symmetry c1  #important for SAPT in psi4, default
}

set PROPERTIES_ORIGIN ["COM"]
properties('MP2/aug-cc-pvtz', properties = ['dipole'])
--------------------------------------------------------------------------

    Molecular point group: c1
  Charge       = 0
  Multiplicity = 1
  Basis Set: AUG-CC-PVTZ
    Blend: AUG-CC-PVTZ
  Basis Set: (AUG-CC-PVTZ AUX)
    Blend: AUG-CC-PVTZ-JKFIT

    Orbital Energies [Eh]
    ---------------------

    Doubly Occupied:

       1A    -15.614958     2A    -15.542467     3A    -11.297543
       4A    -11.262402     5A    -11.253921     6A    -11.215248
       7A     -1.319235     8A     -1.139476     9A     -1.050622
      10A     -0.948048    11A     -0.808515    12A     -0.759671
      13A     -0.742595    14A     -0.616779    15A     -0.601212
      16A     -0.590615    17A     -0.578263    18A     -0.555892
      19A     -0.512560    20A     -0.412047    21A     -0.373449
      22A     -0.314955

  @DF-RHF Final Energy:  -263.92449000929599

   => Energetics <=

    Nuclear Repulsion Energy =            222.5422807608746893
    One-Electron Energy =                -797.9125979100271024
    Two-Electron Energy =                 311.4458271398564762
    Total Energy =                       -263.9244900092959938
  Basis Set: (AUG-CC-PVTZ AUX)
    Blend: AUG-CC-PVTZ-RI
    Molecular point group: c1

    Geometry (in Angstrom), charge = 0, multiplicity = 1:

       Center              X                  Y                   Z               Mass
    ------------   -----------------  -----------------  -----------------  -----------------
         C           -2.172507757166     0.001679617453     0.000048855695    12.000000000000
         C           -0.788739957166     0.121218617453    -0.000041144305    12.000000000000
         C            0.164961242834     1.118810617453    -0.000018144305    12.000000000000
         C            1.323434242834    -0.762364382547    -0.000044144305    12.000000000000
         N            0.054701242834    -1.142582382547    -0.000037144305    14.003074004430
         N            1.439094242834     0.597521617453     0.000086855695    14.003074004430
         H           -2.551668757166    -0.521938382547    -0.882115144305     1.007825032230
         H           -2.578283757166     1.017304617453    -0.000388144305     1.007825032230
         H           -0.021069757166     2.183363617453    -0.000398144305     1.007825032230
         H            2.183221242834    -1.419530382547     0.000019855695     1.007825032230
         H            2.301100242834     1.127770617453     0.000159855695     1.007825032230
         H           -2.551617757166    -0.521177382547     0.882680855695     1.007825032230

  Basis Set: AUG-CC-PVTZ
    Blend: AUG-CC-PVTZ
  Basis Set: (AUG-CC-PVTZ AUX)
    Blend: AUG-CC-PVTZ-JKFIT
	 Reference Energy          =    -263.9244900092959938 [Eh]
	 Singles Energy            =      -0.0000000000000000 [Eh]
	 Same-Spin Energy          =      -0.2875045300107372 [Eh]
	 Opposite-Spin Energy      =      -0.8999987952057774 [Eh]
	 Correlation Energy        =      -1.1875033252165146 [Eh]
	 Total Energy              =    -265.1119933345125332 [Eh]

	 ================> DF-SCS-MP2 Energies <==================
	-----------------------------------------------------------
	 SCS Same-Spin Scale       =       0.3333333333333333 [-]
	 SCS Opposite-Spin Scale   =       1.2000000000000000 [-]
	 SCS Same-Spin Energy      =      -0.0958348433369124 [Eh]
	 SCS Opposite-Spin Energy  =      -1.0799985542469328 [Eh]
	 SCS Correlation Energy    =      -1.1758333975838453 [Eh]
	 SCS Total Energy          =    -265.1003234068798520 [Eh]
	-----------------------------------------------------------

  Dipole Moment: [D]
     X:     1.8492      Y:     2.8494      Z:    -0.0000     Total:     3.3968

*** Psi4 exiting successfully. Buy a developer a beer!
