                               Psi4 1.4a3.dev225

  ==> Input File <==

--------------------------------------------------------------------------
#psi4
#
memory 32 gb

molecule  {
0 1
  C       -2.1510270    -0.0065590     0.0000050
  C       -0.6378238     0.0188032    -0.0000061
  C        0.1861760     1.1105370     0.0000080
  C        1.3450050    -0.7704390     0.0000010
  N        0.0763030    -1.1508590    -0.0000070
  N        1.4603370     0.5895500    -0.0000040
  H       -2.5304610    -0.5297300    -0.8823420
  H       -2.5565240     1.0091620    -0.0000020
  H       -0.0003960     2.1749820    -0.0000490
  H        2.2049760    -1.4273470     0.0000120
  H        2.3223630     1.1197620     0.0000400
  H       -2.5304440    -0.5297090     0.8823710
units angstrom
no_reorient  #important for SAPT in psi4, default
symmetry c1  #important for SAPT in psi4, default
}

set PROPERTIES_ORIGIN ["COM"]
properties('MP2/aug-cc-pvtz', properties = ['dipole'])
--------------------------------------------------------------------------

    Molecular point group: c1
  Charge       = 0
  Multiplicity = 1
  Basis Set: AUG-CC-PVTZ
    Blend: AUG-CC-PVTZ
  Basis Set: (AUG-CC-PVTZ AUX)
    Blend: AUG-CC-PVTZ-JKFIT

    Orbital Energies [Eh]
    ---------------------

    Doubly Occupied:

       1A    -15.620066     2A    -15.541870     3A    -11.298006
       4A    -11.251976     5A    -11.246748     6A    -11.215837
       7A     -1.337125     8A     -1.166184     9A     -1.027869
      10A     -0.935470    11A     -0.825961    12A     -0.769651
      13A     -0.735411    14A     -0.617775    15A     -0.604265
      16A     -0.597636    17A     -0.547304    18A     -0.535588
      19A     -0.523416    20A     -0.436038    21A     -0.392962
      22A     -0.311107

  @DF-RHF Final Energy:  -263.94994114121732

   => Energetics <=

    Nuclear Repulsion Energy =            224.0075092573090103
    One-Electron Energy =                -800.8383703843181820
    Two-Electron Energy =                 312.8809199857918202
    Total Energy =                       -263.9499411412173231
  Basis Set: (AUG-CC-PVTZ AUX)
    Blend: AUG-CC-PVTZ-RI
    Molecular point group: c1

    Geometry (in Angstrom), charge = 0, multiplicity = 1:

       Center              X                  Y                   Z               Mass
    ------------   -----------------  -----------------  -----------------  -----------------
         C           -2.191378637637     0.015385400434     0.000005353418    12.000000000000
         C           -0.678175437637     0.040747600434    -0.000005746582    12.000000000000
         C            0.145824362363     1.132481400434     0.000008353418    12.000000000000
         C            1.304653362363    -0.748494599566     0.000001353418    12.000000000000
         N            0.035951362363    -1.128914599566    -0.000006646582    14.003074004430
         N            1.419985362363     0.611494400434    -0.000003646582    14.003074004430
         H           -2.570812637637    -0.507785599566    -0.882341646582     1.007825032230
         H           -2.596875637637     1.031106400434    -0.000001646582     1.007825032230
         H           -0.040747637637     2.196926400434    -0.000048646582     1.007825032230
         H            2.164624362363    -1.405402599566     0.000012353418     1.007825032230
         H            2.282011362363     1.141706400434     0.000040353418     1.007825032230
         H           -2.570795637637    -0.507764599566     0.882371353418     1.007825032230

  Basis Set: AUG-CC-PVTZ
    Blend: AUG-CC-PVTZ
  Basis Set: (AUG-CC-PVTZ AUX)
    Blend: AUG-CC-PVTZ-JKFIT
	 Reference Energy          =    -263.9499411412173231 [Eh]
	 Singles Energy            =      -0.0000000000000000 [Eh]
	 Same-Spin Energy          =      -0.2865792951949486 [Eh]
	 Opposite-Spin Energy      =      -0.8963688779090178 [Eh]
	 Correlation Energy        =      -1.1829481731039664 [Eh]
	 Total Energy              =    -265.1328893143212895 [Eh]

	 ================> DF-SCS-MP2 Energies <==================
	-----------------------------------------------------------
	 SCS Same-Spin Scale       =       0.3333333333333333 [-]
	 SCS Opposite-Spin Scale   =       1.2000000000000000 [-]
	 SCS Same-Spin Energy      =      -0.0955264317316495 [Eh]
	 SCS Opposite-Spin Energy  =      -1.0756426534908212 [Eh]
	 SCS Correlation Energy    =      -1.1711690852224708 [Eh]
	 SCS Total Energy          =    -265.1211102264397823 [Eh]
	-----------------------------------------------------------

  Dipole Moment: [D]
     X:     2.1125      Y:     2.8418      Z:     0.0000     Total:     3.5410

*** Psi4 exiting successfully. Buy a developer a beer!
