                               Psi4 1.4a3.dev225

  ==> Input File <==

--------------------------------------------------------------------------
#psi4
#
memory 32 gb

molecule  {
0 1
  C       -2.1510270    -0.0065590     0.0000050
  C       -0.6578210     0.0184680    -0.0000060
  C        0.1861760     1.1105370     0.0000080
  C        1.3450050    -0.7704390     0.0000010
  N        0.0763030    -1.1508590    -0.0000070
  N        1.4418247     0.5971194    -0.0000038
  H       -2.5304610    -0.5297300    -0.8823420
  H       -2.5565240     1.0091620    -0.0000020
  H       -0.0003960     2.1749820    -0.0000490
  H        2.2049760    -1.4273470     0.0000120
  H        2.3223630     1.1197620     0.0000400
  H       -2.5304440    -0.5297090     0.8823710
units angstrom
no_reorient  #important for SAPT in psi4, default
symmetry c1  #important for SAPT in psi4, default
}

set PROPERTIES_ORIGIN ["COM"]
properties('MP2/aug-cc-pvtz', properties = ['dipole'])
--------------------------------------------------------------------------

    Molecular point group: c1
  Charge       = 0
  Multiplicity = 1
  Basis Set: AUG-CC-PVTZ
    Blend: AUG-CC-PVTZ
  Basis Set: (AUG-CC-PVTZ AUX)
    Blend: AUG-CC-PVTZ-JKFIT

    Orbital Energies [Eh]
    ---------------------

    Doubly Occupied:

       1A    -15.621276     2A    -15.542534     3A    -11.296317
       4A    -11.253073     5A    -11.246621     6A    -11.214989
       7A     -1.336955     8A     -1.164182     9A     -1.029599
      10A     -0.936883    11A     -0.820429    12A     -0.769946
      13A     -0.736495    14A     -0.617380    15A     -0.604724
      16A     -0.597877    17A     -0.548560    18A     -0.539400
      19A     -0.524359    20A     -0.433263    21A     -0.392155
      22A     -0.307435

  @DF-RHF Final Energy:  -263.94869387807938

   => Energetics <=

    Nuclear Repulsion Energy =            224.0531517674488100
    One-Electron Energy =                -800.9347906947850788
    Two-Electron Energy =                 312.9329450492569435
    Total Energy =                       -263.9486938780793821
  Basis Set: (AUG-CC-PVTZ AUX)
    Blend: AUG-CC-PVTZ-RI
    Molecular point group: c1

    Geometry (in Angstrom), charge = 0, multiplicity = 1:

       Center              X                  Y                   Z               Mass
    ------------   -----------------  -----------------  -----------------  -----------------
         C           -2.185294827057     0.014142638483     0.000005304662    12.000000000000
         C           -0.692088827057     0.039169638483    -0.000005695338    12.000000000000
         C            0.151908172943     1.131238638483     0.000008304662    12.000000000000
         C            1.310737172943    -0.749737361517     0.000001304662    12.000000000000
         N            0.042035172943    -1.130157361517    -0.000006695338    14.003074004430
         N            1.407556872943     0.617821038483    -0.000003495338    14.003074004430
         H           -2.564728827057    -0.509028361517    -0.882341695338     1.007825032230
         H           -2.590791827057     1.029863638483    -0.000001695338     1.007825032230
         H           -0.034663827057     2.195683638483    -0.000048695338     1.007825032230
         H            2.170708172943    -1.406645361517     0.000012304662     1.007825032230
         H            2.288095172943     1.140463638483     0.000040304662     1.007825032230
         H           -2.564711827057    -0.509007361517     0.882371304662     1.007825032230

  Basis Set: AUG-CC-PVTZ
    Blend: AUG-CC-PVTZ
  Basis Set: (AUG-CC-PVTZ AUX)
    Blend: AUG-CC-PVTZ-JKFIT
	 Reference Energy          =    -263.9486938780793821 [Eh]
	 Singles Energy            =      -0.0000000000000000 [Eh]
	 Same-Spin Energy          =      -0.2871728922142407 [Eh]
	 Opposite-Spin Energy      =      -0.8970921366505014 [Eh]
	 Correlation Energy        =      -1.1842650288647421 [Eh]
	 Total Energy              =    -265.1329589069441113 [Eh]

	 ================> DF-SCS-MP2 Energies <==================
	-----------------------------------------------------------
	 SCS Same-Spin Scale       =       0.3333333333333333 [-]
	 SCS Opposite-Spin Scale   =       1.2000000000000000 [-]
	 SCS Same-Spin Energy      =      -0.0957242974047469 [Eh]
	 SCS Opposite-Spin Energy  =      -1.0765105639806016 [Eh]
	 SCS Correlation Energy    =      -1.1722348613853486 [Eh]
	 SCS Total Energy          =    -265.1209287394647163 [Eh]
	-----------------------------------------------------------

  Dipole Moment: [D]
     X:     2.1082      Y:     2.8591      Z:     0.0000     Total:     3.5523

*** Psi4 exiting successfully. Buy a developer a beer!
