                               Psi4 1.3.2 release

  ==> Input File <==

--------------------------------------------------------------------------
#psi4
#
memory 32 gb

molecule  {
0 1
  C       -2.1511020    -0.0065270     0.0000480
  C       -0.6578330     0.0187880    -0.0000310
  C        0.1863670     1.1106040    -0.0000190
  C        1.3448400    -0.7705710    -0.0000450
  N        0.0636105    -1.1062792    -0.0000331
  N        1.4605000     0.5893150     0.0000860
  H       -2.5302630    -0.5301450    -0.8821160
  H       -2.5568780     1.0090980    -0.0003890
  H        0.0003360     2.1751570    -0.0003990
  H        2.2046270    -1.4277370     0.0000190
  H        2.3225060     1.1195640     0.0001590
  H       -2.5302120    -0.5293840     0.8826800
units angstrom
no_reorient  #important for SAPT in psi4, default
symmetry c1  #important for SAPT in psi4, default
}

set PROPERTIES_ORIGIN ["COM"]
properties('MP2/aug-cc-pvtz', properties = ['dipole'])
--------------------------------------------------------------------------

    Molecular point group: c1
  Charge       = 0
  Multiplicity = 1
  Basis Set: AUG-CC-PVTZ
    Blend: AUG-CC-PVTZ
  Basis Set: (AUG-CC-PVTZ AUX)
    Blend: AUG-CC-PVTZ-JKFIT

    Orbital Energies [Eh]
    ---------------------

    Doubly Occupied:

       1A    -15.621340     2A    -15.536506     3A    -11.295927
       4A    -11.251399     5A    -11.243949     6A    -11.215002
       7A     -1.339880     8A     -1.170002     9A     -1.028117
      10A     -0.937312    11A     -0.828856    12A     -0.768020
      13A     -0.736627    14A     -0.622074    15A     -0.605964
      16A     -0.595508    17A     -0.548410    18A     -0.544217
      19A     -0.527377    20A     -0.426458    21A     -0.394955
      22A     -0.306584

  @DF-RHF Final Energy:  -263.94900497506160

   => Energetics <=

    Nuclear Repulsion Energy =            224.8045296728251969
    One-Electron Energy =                -802.4181035045241970
    Two-Electron Energy =                 313.6645688566374020
    Total Energy =                       -263.9490049750615981
  Basis Set: (AUG-CC-PVTZ AUX)
    Blend: AUG-CC-PVTZ-RI
    Molecular point group: c1

    Geometry (in Angstrom), charge = 0, multiplicity = 1:

       Center              X                  Y                   Z               Mass
    ------------   -----------------  -----------------  -----------------  -----------------
         C           -2.186389316920     0.007863588416     0.000046410753    12.000000000000
         C           -0.693120316920     0.033178588416    -0.000032589247    12.000000000000
         C            0.151079683080     1.124994588416    -0.000020589247    12.000000000000
         C            1.309552683080    -0.756180411584    -0.000046589247    12.000000000000
         N            0.028323183080    -1.091888611584    -0.000034689247    14.003074004430
         N            1.425212683080     0.603705588416     0.000084410753    14.003074004430
         H           -2.565550316920    -0.515754411584    -0.882117589247     1.007825032230
         H           -2.592165316920     1.023488588416    -0.000390589247     1.007825032230
         H           -0.034951316920     2.189547588416    -0.000400589247     1.007825032230
         H            2.169339683080    -1.413346411584     0.000017410753     1.007825032230
         H            2.287218683080     1.133954588416     0.000157410753     1.007825032230
         H           -2.565499316920    -0.514993411584     0.882678410753     1.007825032230

  Basis Set: AUG-CC-PVTZ
    Blend: AUG-CC-PVTZ
  Basis Set: (AUG-CC-PVTZ AUX)
    Blend: AUG-CC-PVTZ-JKFIT
	 Reference Energy          =    -263.9490049750615981 [Eh]
	 Singles Energy            =      -0.0000000000000000 [Eh]
	 Same-Spin Energy          =      -0.2872294684175203 [Eh]
	 Opposite-Spin Energy      =      -0.8963858610284676 [Eh]
	 Correlation Energy        =      -1.1836153294459879 [Eh]
	 Total Energy              =    -265.1326203045076113 [Eh]

	 ================> DF-SCS-MP2 Energies <==================
	-----------------------------------------------------------
	 SCS Same-Spin Scale       =       0.3333333333333333 [-]
	 SCS Opposite-Spin Scale   =       1.2000000000000000 [-]
	 SCS Same-Spin Energy      =      -0.0957431561391734 [Eh]
	 SCS Opposite-Spin Energy  =      -1.0756630332341610 [Eh]
	 SCS Correlation Energy    =      -1.1714061893733345 [Eh]
	 SCS Total Energy          =    -265.1204111644349268 [Eh]
	-----------------------------------------------------------

  Dipole Moment: [D]
     X:     2.0965      Y:     2.7513      Z:    -0.0001     Total:     3.4590

*** Psi4 exiting successfully. Buy a developer a beer!
