                               Psi4 1.4a3.dev225

  ==> Input File <==

--------------------------------------------------------------------------
#psi4
#
memory 32 gb

molecule  {
0 1
  C       -2.1510270    -0.0065590     0.0000050
  C       -0.6578210     0.0184680    -0.0000060
  C        0.1861760     1.1105370     0.0000080
  C        1.3450050    -0.7704390     0.0000010
  N        0.0656687    -1.1339205    -0.0000070
  N        1.4603370     0.5895500    -0.0000040
  H       -2.5304610    -0.5297300    -0.8823420
  H       -2.5565240     1.0091620    -0.0000020
  H       -0.0003960     2.1749820    -0.0000490
  H        2.2049760    -1.4273470     0.0000120
  H        2.3223630     1.1197620     0.0000400
  H       -2.5304440    -0.5297090     0.8823710
units angstrom
no_reorient  #important for SAPT in psi4, default
symmetry c1  #important for SAPT in psi4, default
}

set PROPERTIES_ORIGIN ["COM"]
properties('MP2/aug-cc-pvtz', properties = ['dipole'])
--------------------------------------------------------------------------

    Molecular point group: c1
  Charge       = 0
  Multiplicity = 1
  Basis Set: AUG-CC-PVTZ
    Blend: AUG-CC-PVTZ
  Basis Set: (AUG-CC-PVTZ AUX)
    Blend: AUG-CC-PVTZ-JKFIT

    Orbital Energies [Eh]
    ---------------------

    Doubly Occupied:

       1A    -15.621440     2A    -15.540415     3A    -11.297701
       4A    -11.252638     5A    -11.246529     6A    -11.215267
       7A     -1.336159     8A     -1.166523     9A     -1.028276
      10A     -0.937053    11A     -0.826658    12A     -0.767959
      13A     -0.736129    14A     -0.619272    15A     -0.604242
      16A     -0.596274    17A     -0.548526    18A     -0.541692
      19A     -0.525664    20A     -0.431204    21A     -0.392649
      22A     -0.307793

  @DF-RHF Final Energy:  -263.94947440364524

   => Energetics <=

    Nuclear Repulsion Energy =            224.1356076589935356
    One-Electron Energy =                -801.0900437950151627
    Two-Electron Energy =                 313.0049617323763869
    Total Energy =                       -263.9494744036452403
  Basis Set: (AUG-CC-PVTZ AUX)
    Blend: AUG-CC-PVTZ-RI
    Molecular point group: c1

    Geometry (in Angstrom), charge = 0, multiplicity = 1:

       Center              X                  Y                   Z               Mass
    ------------   -----------------  -----------------  -----------------  -----------------
         C           -2.186639276194     0.012543720179     0.000005338794    12.000000000000
         C           -0.693433276194     0.037570720179    -0.000005661206    12.000000000000
         C            0.150563723806     1.129639720179     0.000008338794    12.000000000000
         C            1.309392723806    -0.751336279821     0.000001338794    12.000000000000
         N            0.030056423806    -1.114817779821    -0.000006661206    14.003074004430
         N            1.424724723806     0.608652720179    -0.000003661206    14.003074004430
         H           -2.566073276194    -0.510627279821    -0.882341661206     1.007825032230
         H           -2.592136276194     1.028264720179    -0.000001661206     1.007825032230
         H           -0.036008276194     2.194084720179    -0.000048661206     1.007825032230
         H            2.169363723806    -1.408244279821     0.000012338794     1.007825032230
         H            2.286750723806     1.138864720179     0.000040338794     1.007825032230
         H           -2.566056276194    -0.510606279821     0.882371338794     1.007825032230

  Basis Set: AUG-CC-PVTZ
    Blend: AUG-CC-PVTZ
  Basis Set: (AUG-CC-PVTZ AUX)
    Blend: AUG-CC-PVTZ-JKFIT
	 Reference Energy          =    -263.9494744036452403 [Eh]
	 Singles Energy            =      -0.0000000000000000 [Eh]
	 Same-Spin Energy          =      -0.2871033279761154 [Eh]
	 Opposite-Spin Energy      =      -0.8968421568515628 [Eh]
	 Correlation Energy        =      -1.1839454848276783 [Eh]
	 Total Energy              =    -265.1334198884729290 [Eh]

	 ================> DF-SCS-MP2 Energies <==================
	-----------------------------------------------------------
	 SCS Same-Spin Scale       =       0.3333333333333333 [-]
	 SCS Opposite-Spin Scale   =       1.2000000000000000 [-]
	 SCS Same-Spin Energy      =      -0.0957011093253718 [Eh]
	 SCS Opposite-Spin Energy  =      -1.0762105882218753 [Eh]
	 SCS Correlation Energy    =      -1.1719116975472472 [Eh]
	 SCS Total Energy          =    -265.1213861011925133 [Eh]
	-----------------------------------------------------------

  Dipole Moment: [D]
     X:     2.0947      Y:     2.8139      Z:     0.0000     Total:     3.5079

*** Psi4 exiting successfully. Buy a developer a beer!
