                               Psi4 1.3.2 release

  ==> Input File <==

--------------------------------------------------------------------------
#psi4
#
memory 32 gb

molecule  {
0 1
  C       -2.1513164     0.0195380     0.0000494
  C       -0.6578330     0.0187880    -0.0000310
  C        0.1863670     1.1106040    -0.0000190
  C        1.3448400    -0.7705710    -0.0000450
  N        0.0761070    -1.1507890    -0.0000380
  N        1.4605000     0.5893150     0.0000860
  H       -2.5302630    -0.5301450    -0.8821160
  H       -2.5568780     1.0090980    -0.0003890
  H        0.0003360     2.1751570    -0.0003990
  H        2.2046270    -1.4277370     0.0000190
  H        2.3225060     1.1195640     0.0001590
  H       -2.5302120    -0.5293840     0.8826800
units angstrom
no_reorient  #important for SAPT in psi4, default
symmetry c1  #important for SAPT in psi4, default
}

set PROPERTIES_ORIGIN ["COM"]
properties('MP2/aug-cc-pvtz', properties = ['dipole'])
--------------------------------------------------------------------------

    Molecular point group: c1
  Charge       = 0
  Multiplicity = 1
  Basis Set: AUG-CC-PVTZ
    Blend: AUG-CC-PVTZ
  Basis Set: (AUG-CC-PVTZ AUX)
    Blend: AUG-CC-PVTZ-JKFIT

    Orbital Energies [Eh]
    ---------------------

    Doubly Occupied:

       1A    -15.620028     2A    -15.542490     3A    -11.297807
       4A    -11.253168     5A    -11.248550     6A    -11.216003
       7A     -1.334407     8A     -1.164002     9A     -1.029939
      10A     -0.936609    11A     -0.824061    12A     -0.769052
      13A     -0.735564    14A     -0.619158    15A     -0.602375
      16A     -0.596597    17A     -0.543059    18A     -0.538488
      19A     -0.533212    20A     -0.433082    21A     -0.391149
      22A     -0.308606

  @DF-RHF Final Energy:  -263.94906827194387

   => Energetics <=

    Nuclear Repulsion Energy =            223.7743624778097455
    One-Electron Energy =                -800.3720560181210431
    Two-Electron Energy =                 312.6486252683674252
    Total Energy =                       -263.9490682719438723
  Basis Set: (AUG-CC-PVTZ AUX)
    Blend: AUG-CC-PVTZ-RI
    Molecular point group: c1

    Geometry (in Angstrom), charge = 0, multiplicity = 1:

       Center              X                  Y                   Z               Mass
    ------------   -----------------  -----------------  -----------------  -----------------
         C           -2.188704997896     0.037712650567     0.000048442235    12.000000000000
         C           -0.695221597896     0.036962650567    -0.000031957765    12.000000000000
         C            0.148978402104     1.128778650567    -0.000019957765    12.000000000000
         C            1.307451402104    -0.752396349433    -0.000045957765    12.000000000000
         N            0.038718402104    -1.132614349433    -0.000038957765    14.003074004430
         N            1.423111402104     0.607489650567     0.000085042235    14.003074004430
         H           -2.567651597896    -0.511970349433    -0.882116957765     1.007825032230
         H           -2.594266597896     1.027272650567    -0.000389957765     1.007825032230
         H           -0.037052597896     2.193331650567    -0.000399957765     1.007825032230
         H            2.167238402104    -1.409562349433     0.000018042235     1.007825032230
         H            2.285117402104     1.137738650567     0.000158042235     1.007825032230
         H           -2.567600597896    -0.511209349433     0.882679042235     1.007825032230

  Basis Set: AUG-CC-PVTZ
    Blend: AUG-CC-PVTZ
  Basis Set: (AUG-CC-PVTZ AUX)
    Blend: AUG-CC-PVTZ-JKFIT
	 Reference Energy          =    -263.9490682719438723 [Eh]
	 Singles Energy            =      -0.0000000000000000 [Eh]
	 Same-Spin Energy          =      -0.2868456661459378 [Eh]
	 Opposite-Spin Energy      =      -0.8968127520112195 [Eh]
	 Correlation Energy        =      -1.1836584181571572 [Eh]
	 Total Energy              =    -265.1327266901010375 [Eh]

	 ================> DF-SCS-MP2 Energies <==================
	-----------------------------------------------------------
	 SCS Same-Spin Scale       =       0.3333333333333333 [-]
	 SCS Opposite-Spin Scale   =       1.2000000000000000 [-]
	 SCS Same-Spin Energy      =      -0.0956152220486459 [Eh]
	 SCS Opposite-Spin Energy  =      -1.0761753024134633 [Eh]
	 SCS Correlation Energy    =      -1.1717905244621092 [Eh]
	 SCS Total Energy          =    -265.1208587964059689 [Eh]
	-----------------------------------------------------------

  Dipole Moment: [D]
     X:     2.0653      Y:     2.8537      Z:    -0.0001     Total:     3.5226

*** Psi4 exiting successfully. Buy a developer a beer!
