                               Psi4 1.3.2 release

  ==> Input File <==

--------------------------------------------------------------------------
#psi4
#
memory 32 gb

molecule  {
0 1
  C       -2.1511020    -0.0065270     0.0000480
  C       -0.6578330     0.0187880    -0.0000310
  C        0.1863670     1.1106040    -0.0000190
  C        1.3448400    -0.7705710    -0.0000450
  N        0.0761070    -1.1507890    -0.0000380
  N        1.3679466     0.6271816     0.0000784
  H       -2.5302630    -0.5301450    -0.8821160
  H       -2.5568780     1.0090980    -0.0003890
  H        0.0003360     2.1751570    -0.0003990
  H        2.2046270    -1.4277370     0.0000190
  H        2.3225060     1.1195640     0.0001590
  H       -2.5302120    -0.5293840     0.8826800
units angstrom
no_reorient  #important for SAPT in psi4, default
symmetry c1  #important for SAPT in psi4, default
}

set PROPERTIES_ORIGIN ["COM"]
properties('MP2/aug-cc-pvtz', properties = ['dipole'])
--------------------------------------------------------------------------

    Molecular point group: c1
  Charge       = 0
  Multiplicity = 1
  Basis Set: AUG-CC-PVTZ
    Blend: AUG-CC-PVTZ
  Basis Set: (AUG-CC-PVTZ AUX)
    Blend: AUG-CC-PVTZ-JKFIT

    Orbital Energies [Eh]
    ---------------------

    Doubly Occupied:

       1A    -15.625627     2A    -15.544667     3A    -11.291240
       4A    -11.250437     5A    -11.239176     6A    -11.211816
       7A     -1.349784     8A     -1.167464     9A     -1.029354
      10A     -0.935710    11A     -0.808706    12A     -0.776125
      13A     -0.738861    14A     -0.625680    15A     -0.611980
      16A     -0.590710    17A     -0.547593    18A     -0.533322
      19A     -0.521544    20A     -0.433376    21A     -0.397047
      22A     -0.299125

  @DF-RHF Final Energy:  -263.93187894276628

   => Energetics <=

    Nuclear Repulsion Energy =            225.1842077707582064
    One-Electron Energy =                -803.1734863262515773
    Two-Electron Energy =                 314.0573996127270675
    Total Energy =                       -263.9318789427662750
  Basis Set: (AUG-CC-PVTZ AUX)
    Blend: AUG-CC-PVTZ-RI
    Molecular point group: c1

    Geometry (in Angstrom), charge = 0, multiplicity = 1:

       Center              X                  Y                   Z               Mass
    ------------   -----------------  -----------------  -----------------  -----------------
         C           -2.172726911480     0.008997308205     0.000048543986    12.000000000000
         C           -0.679457911480     0.034312308205    -0.000030456014    12.000000000000
         C            0.164742088520     1.126128308205    -0.000018456014    12.000000000000
         C            1.323215088520    -0.755046691795    -0.000044456014    12.000000000000
         N            0.054482088520    -1.135264691795    -0.000037456014    14.003074004430
         N            1.346321688520     0.642705908205     0.000078943986    14.003074004430
         H           -2.551887911480    -0.514620691795    -0.882115456014     1.007825032230
         H           -2.578502911480     1.024622308205    -0.000388456014     1.007825032230
         H           -0.021288911480     2.190681308205    -0.000398456014     1.007825032230
         H            2.183002088520    -1.412212691795     0.000019543986     1.007825032230
         H            2.300881088520     1.135088308205     0.000159543986     1.007825032230
         H           -2.551836911480    -0.513859691795     0.882680543986     1.007825032230

  Basis Set: AUG-CC-PVTZ
    Blend: AUG-CC-PVTZ
  Basis Set: (AUG-CC-PVTZ AUX)
    Blend: AUG-CC-PVTZ-JKFIT
	 Reference Energy          =    -263.9318789427662750 [Eh]
	 Singles Energy            =      -0.0000000000000000 [Eh]
	 Same-Spin Energy          =      -0.2887319546236691 [Eh]
	 Opposite-Spin Energy      =      -0.8986550848220340 [Eh]
	 Correlation Energy        =      -1.1873870394457031 [Eh]
	 Total Energy              =    -265.1192659822119708 [Eh]

	 ================> DF-SCS-MP2 Energies <==================
	-----------------------------------------------------------
	 SCS Same-Spin Scale       =       0.3333333333333333 [-]
	 SCS Opposite-Spin Scale   =       1.2000000000000000 [-]
	 SCS Same-Spin Energy      =      -0.0962439848745563 [Eh]
	 SCS Opposite-Spin Energy  =      -1.0783861017864409 [Eh]
	 SCS Correlation Energy    =      -1.1746300866609973 [Eh]
	 SCS Total Energy          =    -265.1065090294272864 [Eh]
	-----------------------------------------------------------

  Dipole Moment: [D]
     X:     2.2461      Y:     2.9428      Z:    -0.0000     Total:     3.7020

*** Psi4 exiting successfully. Buy a developer a beer!
