                               Psi4 1.4a3.dev225

  ==> Input File <==

--------------------------------------------------------------------------
#psi4
#
memory 32 gb

molecule  {
0 1
  C       -2.1510270    -0.0065590     0.0000050
  C       -0.6578210     0.0184680    -0.0000060
  C        0.1556008     1.0709749     0.0000075
  C        1.3450050    -0.7704390     0.0000010
  N        0.0763030    -1.1508590    -0.0000070
  N        1.4603370     0.5895500    -0.0000040
  H       -2.5304610    -0.5297300    -0.8823420
  H       -2.5565240     1.0091620    -0.0000020
  H       -0.0003960     2.1749820    -0.0000490
  H        2.2049760    -1.4273470     0.0000120
  H        2.3223630     1.1197620     0.0000400
  H       -2.5304440    -0.5297090     0.8823710
units angstrom
no_reorient  #important for SAPT in psi4, default
symmetry c1  #important for SAPT in psi4, default
}

set PROPERTIES_ORIGIN ["COM"]
properties('MP2/aug-cc-pvtz', properties = ['dipole'])
--------------------------------------------------------------------------

    Molecular point group: c1
  Charge       = 0
  Multiplicity = 1
  Basis Set: AUG-CC-PVTZ
    Blend: AUG-CC-PVTZ
  Basis Set: (AUG-CC-PVTZ AUX)
    Blend: AUG-CC-PVTZ-JKFIT

    Orbital Energies [Eh]
    ---------------------

    Doubly Occupied:

       1A    -15.616756     2A    -15.539932     3A    -11.298594
       4A    -11.251879     5A    -11.242094     6A    -11.215899
       7A     -1.334539     8A     -1.161448     9A     -1.034323
      10A     -0.938273    11A     -0.824695    12A     -0.763704
      13A     -0.737541    14A     -0.621584    15A     -0.604644
      16A     -0.583597    17A     -0.548254    18A     -0.542292
      19A     -0.525328    20A     -0.432513    21A     -0.389339
      22A     -0.318620

  @DF-RHF Final Energy:  -263.94825820058298

   => Energetics <=

    Nuclear Repulsion Energy =            224.4473238659926722
    One-Electron Energy =                -801.7394677546475350
    Two-Electron Energy =                 313.3438856880719072
    Total Energy =                       -263.9482582005829840
  Basis Set: (AUG-CC-PVTZ AUX)
    Blend: AUG-CC-PVTZ-RI
    Molecular point group: c1

    Geometry (in Angstrom), charge = 0, multiplicity = 1:

       Center              X                  Y                   Z               Mass
    ------------   -----------------  -----------------  -----------------  -----------------
         C           -2.183982587843     0.021220251408     0.000005411917    12.000000000000
         C           -0.690776587843     0.046247251408    -0.000005588083    12.000000000000
         C            0.122645212157     1.098754151408     0.000007911917    12.000000000000
         C            1.312049412157    -0.742659748592     0.000001411917    12.000000000000
         N            0.043347412157    -1.123079748592    -0.000006588083    14.003074004430
         N            1.427381412157     0.617329251408    -0.000003588083    14.003074004430
         H           -2.563416587843    -0.501950748592    -0.882341588083     1.007825032230
         H           -2.589479587843     1.036941251408    -0.000001588083     1.007825032230
         H           -0.033351587843     2.202761251408    -0.000048588083     1.007825032230
         H            2.172020412157    -1.399567748592     0.000012411917     1.007825032230
         H            2.289407412157     1.147541251408     0.000040411917     1.007825032230
         H           -2.563399587843    -0.501929748592     0.882371411917     1.007825032230

  Basis Set: AUG-CC-PVTZ
    Blend: AUG-CC-PVTZ
  Basis Set: (AUG-CC-PVTZ AUX)
    Blend: AUG-CC-PVTZ-JKFIT
	 Reference Energy          =    -263.9482582005829840 [Eh]
	 Singles Energy            =      -0.0000000000000000 [Eh]
	 Same-Spin Energy          =      -0.2860653253002131 [Eh]
	 Opposite-Spin Energy      =      -0.8958592553746239 [Eh]
	 Correlation Energy        =      -1.1819245806748371 [Eh]
	 Total Energy              =    -265.1301827812578153 [Eh]

	 ================> DF-SCS-MP2 Energies <==================
	-----------------------------------------------------------
	 SCS Same-Spin Scale       =       0.3333333333333333 [-]
	 SCS Opposite-Spin Scale   =       1.2000000000000000 [-]
	 SCS Same-Spin Energy      =      -0.0953551084334044 [Eh]
	 SCS Opposite-Spin Energy  =      -1.0750311064495486 [Eh]
	 SCS Correlation Energy    =      -1.1703862148829529 [Eh]
	 SCS Total Energy          =    -265.1186444154659512 [Eh]
	-----------------------------------------------------------

  Dipole Moment: [D]
     X:     2.0480      Y:     2.8274      Z:     0.0000     Total:     3.4912

*** Psi4 exiting successfully. Buy a developer a beer!
