                               Psi4 1.4a3.dev225

  ==> Input File <==

--------------------------------------------------------------------------
#psi4
#
memory 32 gb

molecule  {
0 1
  C       -2.1510270    -0.0065590     0.0000050
  C       -0.6578210     0.0184680    -0.0000060
  C        0.1861760     1.1105370     0.0000080
  C        1.3450050    -0.7704390     0.0000010
  N        0.0284097    -1.1652198    -0.0000073
  N        1.4603370     0.5895500    -0.0000040
  H       -2.5304610    -0.5297300    -0.8823420
  H       -2.5565240     1.0091620    -0.0000020
  H       -0.0003960     2.1749820    -0.0000490
  H        2.2049760    -1.4273470     0.0000120
  H        2.3223630     1.1197620     0.0000400
  H       -2.5304440    -0.5297090     0.8823710
units angstrom
no_reorient  #important for SAPT in psi4, default
symmetry c1  #important for SAPT in psi4, default
}

set PROPERTIES_ORIGIN ["COM"]
properties('MP2/aug-cc-pvtz', properties = ['dipole'])
--------------------------------------------------------------------------

    Molecular point group: c1
  Charge       = 0
  Multiplicity = 1
  Basis Set: AUG-CC-PVTZ
    Blend: AUG-CC-PVTZ
  Basis Set: (AUG-CC-PVTZ AUX)
    Blend: AUG-CC-PVTZ-JKFIT

    Orbital Energies [Eh]
    ---------------------

    Doubly Occupied:

       1A    -15.627012     2A    -15.547722     3A    -11.304668
       4A    -11.252555     5A    -11.248174     6A    -11.214067
       7A     -1.330845     8A     -1.163652     9A     -1.023916
      10A     -0.937064    11A     -0.831131    12A     -0.762893
      13A     -0.736004    14A     -0.616349    15A     -0.602043
      16A     -0.597408    17A     -0.547920    18A     -0.539299
      19A     -0.519784    20A     -0.438354    21A     -0.390096
      22A     -0.306349

  @DF-RHF Final Energy:  -263.94332931741633

   => Energetics <=

    Nuclear Repulsion Energy =            223.1546767500569786
    One-Electron Energy =                -799.1214036004594163
    Two-Electron Energy =                 312.0233975329861096
    Total Energy =                       -263.9433293174163282
  Basis Set: (AUG-CC-PVTZ AUX)
    Blend: AUG-CC-PVTZ-RI
    Molecular point group: c1

    Geometry (in Angstrom), charge = 0, multiplicity = 1:

       Center              X                  Y                   Z               Mass
    ------------   -----------------  -----------------  -----------------  -----------------
         C           -2.180280704174     0.017885217621     0.000005389991    12.000000000000
         C           -0.687074704174     0.042912217621    -0.000005610009    12.000000000000
         C            0.156922295826     1.134981217621     0.000008389991    12.000000000000
         C            1.315751295826    -0.745994782379     0.000001389991    12.000000000000
         N           -0.000844004174    -1.140775582379    -0.000006910009    14.003074004430
         N            1.431083295826     0.613994217621    -0.000003610009    14.003074004430
         H           -2.559714704174    -0.505285782379    -0.882341610009     1.007825032230
         H           -2.585777704174     1.033606217621    -0.000001610009     1.007825032230
         H           -0.029649704174     2.199426217621    -0.000048610009     1.007825032230
         H            2.175722295826    -1.402902782379     0.000012389991     1.007825032230
         H            2.293109295826     1.144206217621     0.000040389991     1.007825032230
         H           -2.559697704174    -0.505264782379     0.882371389991     1.007825032230

  Basis Set: AUG-CC-PVTZ
    Blend: AUG-CC-PVTZ
  Basis Set: (AUG-CC-PVTZ AUX)
    Blend: AUG-CC-PVTZ-JKFIT
	 Reference Energy          =    -263.9433293174163282 [Eh]
	 Singles Energy            =      -0.0000000000000000 [Eh]
	 Same-Spin Energy          =      -0.2879401599023169 [Eh]
	 Opposite-Spin Energy      =      -0.8990616714686437 [Eh]
	 Correlation Energy        =      -1.1870018313709605 [Eh]
	 Total Energy              =    -265.1303311487872634 [Eh]

	 ================> DF-SCS-MP2 Energies <==================
	-----------------------------------------------------------
	 SCS Same-Spin Scale       =       0.3333333333333333 [-]
	 SCS Opposite-Spin Scale   =       1.2000000000000000 [-]
	 SCS Same-Spin Energy      =      -0.0959800533007723 [Eh]
	 SCS Opposite-Spin Energy  =      -1.0788740057623725 [Eh]
	 SCS Correlation Energy    =      -1.1748540590631447 [Eh]
	 SCS Total Energy          =    -265.1181833764794646 [Eh]
	-----------------------------------------------------------

  Dipole Moment: [D]
     X:     2.1762      Y:     2.9121      Z:     0.0000     Total:     3.6354

*** Psi4 exiting successfully. Buy a developer a beer!
