                               Psi4 1.3.2 release

  ==> Input File <==

--------------------------------------------------------------------------
#psi4
#
memory 32 gb

molecule  {
0 1
  C       -2.1511020    -0.0065270     0.0000480
  C       -0.6578330     0.0187880    -0.0000310
  C        0.2052932     1.0957044    -0.0000191
  C        1.3448400    -0.7705710    -0.0000450
  N        0.0761070    -1.1507890    -0.0000380
  N        1.4605000     0.5893150     0.0000860
  H       -2.5302630    -0.5301450    -0.8821160
  H       -2.5568780     1.0090980    -0.0003890
  H        0.0003360     2.1751570    -0.0003990
  H        2.2046270    -1.4277370     0.0000190
  H        2.3225060     1.1195640     0.0001590
  H       -2.5302120    -0.5293840     0.8826800
units angstrom
no_reorient  #important for SAPT in psi4, default
symmetry c1  #important for SAPT in psi4, default
}

set PROPERTIES_ORIGIN ["COM"]
properties('MP2/aug-cc-pvtz', properties = ['dipole'])
--------------------------------------------------------------------------

    Molecular point group: c1
  Charge       = 0
  Multiplicity = 1
  Basis Set: AUG-CC-PVTZ
    Blend: AUG-CC-PVTZ
  Basis Set: (AUG-CC-PVTZ AUX)
    Blend: AUG-CC-PVTZ-JKFIT

    Orbital Energies [Eh]
    ---------------------

    Doubly Occupied:

       1A    -15.621240     2A    -15.542213     3A    -11.295590
       4A    -11.253951     5A    -11.246491     6A    -11.215963
       7A     -1.339813     8A     -1.166944     9A     -1.028366
      10A     -0.937567    11A     -0.824715    12A     -0.768191
      13A     -0.738963    14A     -0.618091    15A     -0.606181
      16A     -0.591789    17A     -0.549779    18A     -0.542192
      19A     -0.524503    20A     -0.432517    21A     -0.392873
      22A     -0.307236

  @DF-RHF Final Energy:  -263.94909226871266

   => Energetics <=

    Nuclear Repulsion Energy =            224.1378636111211335
    One-Electron Energy =                -801.0835730174183027
    Two-Electron Energy =                 312.9966171375845079
    Total Energy =                       -263.9490922687126613
  Basis Set: (AUG-CC-PVTZ AUX)
    Blend: AUG-CC-PVTZ-RI
    Molecular point group: c1

    Geometry (in Angstrom), charge = 0, multiplicity = 1:

       Center              X                  Y                   Z               Mass
    ------------   -----------------  -----------------  -----------------  -----------------
         C           -2.191289848687     0.017638590712     0.000047261605    12.000000000000
         C           -0.698020848687     0.042953590712    -0.000031738395    12.000000000000
         C            0.165105351313     1.119869990712    -0.000019838395    12.000000000000
         C            1.304652151313    -0.746405409288    -0.000045738395    12.000000000000
         N            0.035919151313    -1.126623409288    -0.000038738395    14.003074004430
         N            1.420312151313     0.613480590712     0.000085261605    14.003074004430
         H           -2.570450848687    -0.505979409288    -0.882116738395     1.007825032230
         H           -2.597065848687     1.033263590712    -0.000389738395     1.007825032230
         H           -0.039851848687     2.199322590712    -0.000399738395     1.007825032230
         H            2.164439151313    -1.403571409288     0.000018261605     1.007825032230
         H            2.282318151313     1.143729590712     0.000158261605     1.007825032230
         H           -2.570399848687    -0.505218409288     0.882679261605     1.007825032230

  Basis Set: AUG-CC-PVTZ
    Blend: AUG-CC-PVTZ
  Basis Set: (AUG-CC-PVTZ AUX)
    Blend: AUG-CC-PVTZ-JKFIT
	 Reference Energy          =    -263.9490922687126613 [Eh]
	 Singles Energy            =      -0.0000000000000000 [Eh]
	 Same-Spin Energy          =      -0.2870334091179103 [Eh]
	 Opposite-Spin Energy      =      -0.8967637809008195 [Eh]
	 Correlation Energy        =      -1.1837971900187299 [Eh]
	 Total Energy              =    -265.1328894587313698 [Eh]

	 ================> DF-SCS-MP2 Energies <==================
	-----------------------------------------------------------
	 SCS Same-Spin Scale       =       0.3333333333333333 [-]
	 SCS Opposite-Spin Scale   =       1.2000000000000000 [-]
	 SCS Same-Spin Energy      =      -0.0956778030393034 [Eh]
	 SCS Opposite-Spin Energy  =      -1.0761165370809833 [Eh]
	 SCS Correlation Energy    =      -1.1717943401202868 [Eh]
	 SCS Total Energy          =    -265.1208866088329614 [Eh]
	-----------------------------------------------------------

  Dipole Moment: [D]
     X:     2.0925      Y:     2.8593      Z:    -0.0001     Total:     3.5431

*** Psi4 exiting successfully. Buy a developer a beer!
