                               Psi4 1.3.2 release

  ==> Input File <==

--------------------------------------------------------------------------
#psi4
#
memory 32 gb

molecule  {
0 1
  C       -2.1511020    -0.0065270     0.0000480
  C       -0.6578330     0.0187880    -0.0000310
  C        0.1863670     1.1106040    -0.0000190
  C        1.3448400    -0.7705710    -0.0000450
  N       -0.0196840    -1.1794959    -0.0000375
  N        1.4605000     0.5893150     0.0000860
  H       -2.5302630    -0.5301450    -0.8821160
  H       -2.5568780     1.0090980    -0.0003890
  H        0.0003360     2.1751570    -0.0003990
  H        2.2046270    -1.4277370     0.0000190
  H        2.3225060     1.1195640     0.0001590
  H       -2.5302120    -0.5293840     0.8826800
units angstrom
no_reorient  #important for SAPT in psi4, default
symmetry c1  #important for SAPT in psi4, default
}

set PROPERTIES_ORIGIN ["COM"]
properties('MP2/aug-cc-pvtz', properties = ['dipole'])
--------------------------------------------------------------------------

    Molecular point group: c1
  Charge       = 0
  Multiplicity = 1
  Basis Set: AUG-CC-PVTZ
    Blend: AUG-CC-PVTZ
  Basis Set: (AUG-CC-PVTZ AUX)
    Blend: AUG-CC-PVTZ-JKFIT

    Orbital Energies [Eh]
    ---------------------

    Doubly Occupied:

       1A    -15.633505     2A    -15.552962     3A    -11.310937
       4A    -11.251430     5A    -11.248185     6A    -11.212445
       7A     -1.328207     8A     -1.163901     9A     -1.018372
      10A     -0.937277    11A     -0.837884    12A     -0.757095
      13A     -0.736205    14A     -0.615063    15A     -0.601039
      16A     -0.598269    17A     -0.547268    18A     -0.538278
      19A     -0.514001    20A     -0.442466    21A     -0.389816
      22A     -0.303298

  @DF-RHF Final Energy:  -263.93283912493814

   => Energetics <=

    Nuclear Repulsion Energy =            222.5548555081693678
    One-Electron Energy =                -797.8995856222217071
    Two-Electron Energy =                 311.4118909891142266
    Total Energy =                       -263.9328391249381411
  Basis Set: (AUG-CC-PVTZ AUX)
    Blend: AUG-CC-PVTZ-RI
    Molecular point group: c1

    Geometry (in Angstrom), charge = 0, multiplicity = 1:

       Center              X                  Y                   Z               Mass
    ------------   -----------------  -----------------  -----------------  -----------------
         C           -2.172174386915     0.020358654305     0.000047161651    12.000000000000
         C           -0.678905386915     0.045673654305    -0.000031838349    12.000000000000
         C            0.165294613085     1.137489654305    -0.000019838349    12.000000000000
         C            1.323767613085    -0.743685345695    -0.000045838349    12.000000000000
         N           -0.040756386915    -1.152610245695    -0.000038338349    14.003074004430
         N            1.439427613085     0.616200654305     0.000085161651    14.003074004430
         H           -2.551335386915    -0.503259345695    -0.882116838349     1.007825032230
         H           -2.577950386915     1.035983654305    -0.000389838349     1.007825032230
         H           -0.020736386915     2.202042654305    -0.000399838349     1.007825032230
         H            2.183554613085    -1.400851345695     0.000018161651     1.007825032230
         H            2.301433613085     1.146449654305     0.000158161651     1.007825032230
         H           -2.551284386915    -0.502498345695     0.882679161651     1.007825032230

  Basis Set: AUG-CC-PVTZ
    Blend: AUG-CC-PVTZ
  Basis Set: (AUG-CC-PVTZ AUX)
    Blend: AUG-CC-PVTZ-JKFIT
	 Reference Energy          =    -263.9328391249381411 [Eh]
	 Singles Energy            =      -0.0000000000000000 [Eh]
	 Same-Spin Energy          =      -0.2890416477407139 [Eh]
	 Opposite-Spin Energy      =      -0.9014597064040155 [Eh]
	 Correlation Energy        =      -1.1905013541447294 [Eh]
	 Total Energy              =    -265.1233404790828558 [Eh]

	 ================> DF-SCS-MP2 Energies <==================
	-----------------------------------------------------------
	 SCS Same-Spin Scale       =       0.3333333333333333 [-]
	 SCS Opposite-Spin Scale   =       1.2000000000000000 [-]
	 SCS Same-Spin Energy      =      -0.0963472159135713 [Eh]
	 SCS Opposite-Spin Energy  =      -1.0817516476848186 [Eh]
	 SCS Correlation Energy    =      -1.1780988635983898 [Eh]
	 SCS Total Energy          =    -265.1109379885365342 [Eh]
	-----------------------------------------------------------

  Dipole Moment: [D]
     X:     2.2652      Y:     2.9742      Z:    -0.0001     Total:     3.7386

*** Psi4 exiting successfully. Buy a developer a beer!
