                               Psi4 1.3.2 release

  ==> Input File <==

--------------------------------------------------------------------------
#psi4
#
memory 32 gb

molecule  {
0 1
  C       -2.1511020    -0.0065270     0.0000480
  C       -0.6578330     0.0187880    -0.0000310
  C        0.1863670     1.1106040    -0.0000190
  C        1.3448400    -0.7705710    -0.0000450
  N        0.0696645    -1.1285886    -0.0000356
  N        1.4605000     0.5893150     0.0000860
  H       -2.5302630    -0.5301450    -0.8821160
  H       -2.5568780     1.0090980    -0.0003890
  H        0.0003360     2.1751570    -0.0003990
  H        2.2046270    -1.4277370     0.0000190
  H        2.3225060     1.1195640     0.0001590
  H       -2.5302120    -0.5293840     0.8826800
units angstrom
no_reorient  #important for SAPT in psi4, default
symmetry c1  #important for SAPT in psi4, default
}

set PROPERTIES_ORIGIN ["COM"]
properties('MP2/aug-cc-pvtz', properties = ['dipole'])
--------------------------------------------------------------------------

    Molecular point group: c1
  Charge       = 0
  Multiplicity = 1
  Basis Set: AUG-CC-PVTZ
    Blend: AUG-CC-PVTZ
  Basis Set: (AUG-CC-PVTZ AUX)
    Blend: AUG-CC-PVTZ-JKFIT

    Orbital Energies [Eh]
    ---------------------

    Doubly Occupied:

       1A    -15.620754     2A    -15.539316     3A    -11.296764
       4A    -11.252583     5A    -11.246218     6A    -11.215397
       7A     -1.337066     8A     -1.166985     9A     -1.028782
      10A     -0.937081    11A     -0.826263    12A     -0.768563
      13A     -0.736165    14A     -0.619760    15A     -0.604625
      16A     -0.596088    17A     -0.548624    18A     -0.542156
      19A     -0.526305    20A     -0.430067    21A     -0.393064
      22A     -0.307920

  @DF-RHF Final Energy:  -263.94989582673878

   => Energetics <=

    Nuclear Repulsion Energy =            224.2886477846880950
    One-Electron Energy =                -801.3959970859691566
    Two-Electron Energy =                 313.1574534745422511
    Total Energy =                       -263.9498958267387820
  Basis Set: (AUG-CC-PVTZ AUX)
    Blend: AUG-CC-PVTZ-RI
    Molecular point group: c1

    Geometry (in Angstrom), charge = 0, multiplicity = 1:

       Center              X                  Y                   Z               Mass
    ------------   -----------------  -----------------  -----------------  -----------------
         C           -2.187422484611     0.011670881328     0.000046837399    12.000000000000
         C           -0.694153484611     0.036985881328    -0.000032162601    12.000000000000
         C            0.150046515389     1.128801881328    -0.000020162601    12.000000000000
         C            1.308519515389    -0.752373118672    -0.000046162601    12.000000000000
         N            0.033344015389    -1.110390718672    -0.000036762601    14.003074004430
         N            1.424179515389     0.607512881328     0.000084837399    14.003074004430
         H           -2.566583484611    -0.511947118672    -0.882117162601     1.007825032230
         H           -2.593198484611     1.027295881328    -0.000390162601     1.007825032230
         H           -0.035984484611     2.193354881328    -0.000400162601     1.007825032230
         H            2.168306515389    -1.409539118672     0.000017837399     1.007825032230
         H            2.286185515389     1.137761881328     0.000157837399     1.007825032230
         H           -2.566532484611    -0.511186118672     0.882678837399     1.007825032230

  Basis Set: AUG-CC-PVTZ
    Blend: AUG-CC-PVTZ
  Basis Set: (AUG-CC-PVTZ AUX)
    Blend: AUG-CC-PVTZ-JKFIT
	 Reference Energy          =    -263.9498958267387820 [Eh]
	 Singles Energy            =      -0.0000000000000000 [Eh]
	 Same-Spin Energy          =      -0.2870165840016428 [Eh]
	 Opposite-Spin Energy      =      -0.8965718215934591 [Eh]
	 Correlation Energy        =      -1.1835884055951018 [Eh]
	 Total Energy              =    -265.1334842323338989 [Eh]

	 ================> DF-SCS-MP2 Energies <==================
	-----------------------------------------------------------
	 SCS Same-Spin Scale       =       0.3333333333333333 [-]
	 SCS Opposite-Spin Scale   =       1.2000000000000000 [-]
	 SCS Same-Spin Energy      =      -0.0956721946672142 [Eh]
	 SCS Opposite-Spin Energy  =      -1.0758861859121509 [Eh]
	 SCS Correlation Energy    =      -1.1715583805793652 [Eh]
	 SCS Total Energy          =    -265.1214542073181519 [Eh]
	-----------------------------------------------------------

  Dipole Moment: [D]
     X:     2.0849      Y:     2.7977      Z:    -0.0001     Total:     3.4891

*** Psi4 exiting successfully. Buy a developer a beer!
