                               Psi4 1.3.2 release

  ==> Input File <==

--------------------------------------------------------------------------
#psi4
#
memory 32 gb

molecule  {
0 1
  C       -2.1455679     0.1497008     0.0000559
  C       -0.6578330     0.0187880    -0.0000310
  C        0.1863670     1.1106040    -0.0000190
  C        1.3448400    -0.7705710    -0.0000450
  N        0.0761070    -1.1507890    -0.0000380
  N        1.4605000     0.5893150     0.0000860
  H       -2.5302630    -0.5301450    -0.8821160
  H       -2.5568780     1.0090980    -0.0003890
  H        0.0003360     2.1751570    -0.0003990
  H        2.2046270    -1.4277370     0.0000190
  H        2.3225060     1.1195640     0.0001590
  H       -2.5302120    -0.5293840     0.8826800
units angstrom
no_reorient  #important for SAPT in psi4, default
symmetry c1  #important for SAPT in psi4, default
}

set PROPERTIES_ORIGIN ["COM"]
properties('MP2/aug-cc-pvtz', properties = ['dipole'])
--------------------------------------------------------------------------

    Molecular point group: c1
  Charge       = 0
  Multiplicity = 1
  Basis Set: AUG-CC-PVTZ
    Blend: AUG-CC-PVTZ
  Basis Set: (AUG-CC-PVTZ AUX)
    Blend: AUG-CC-PVTZ-JKFIT

    Orbital Energies [Eh]
    ---------------------

    Doubly Occupied:

       1A    -15.619659     2A    -15.545264     3A    -11.299452
       4A    -11.251468     5A    -11.249977     6A    -11.220483
       7A     -1.334636     8A     -1.164196     9A     -1.033910
      10A     -0.937736    11A     -0.825358    12A     -0.771630
      13A     -0.738080    14A     -0.631215    15A     -0.599842
      16A     -0.597104    17A     -0.569124    18A     -0.524246
      19A     -0.513590    20A     -0.432075    21A     -0.390330
      22A     -0.305535

  @DF-RHF Final Energy:  -263.91938031669275

   => Energetics <=

    Nuclear Repulsion Energy =            223.7922632430496037
    One-Electron Energy =                -800.3134672934147602
    Two-Electron Energy =                 312.6018237336724610
    Total Energy =                       -263.9193803166927523
  Basis Set: (AUG-CC-PVTZ AUX)
    Blend: AUG-CC-PVTZ-RI
    Molecular point group: c1

    Geometry (in Angstrom), charge = 0, multiplicity = 1:

       Center              X                  Y                   Z               Mass
    ------------   -----------------  -----------------  -----------------  -----------------
         C           -2.183797197413     0.148839562414     0.000053991631    12.000000000000
         C           -0.696062297413     0.017926762414    -0.000032908369    12.000000000000
         C            0.148137702587     1.109742762414    -0.000020908369    12.000000000000
         C            1.306610702587    -0.771432237586    -0.000046908369    12.000000000000
         N            0.037877702587    -1.151650237586    -0.000039908369    14.003074004430
         N            1.422270702587     0.588453762414     0.000084091631    14.003074004430
         H           -2.568492297413    -0.531006237586    -0.882117908369     1.007825032230
         H           -2.595107297413     1.008236762414    -0.000390908369     1.007825032230
         H           -0.037893297413     2.174295762414    -0.000400908369     1.007825032230
         H            2.166397702587    -1.428598237586     0.000017091631     1.007825032230
         H            2.284276702587     1.118702762414     0.000157091631     1.007825032230
         H           -2.568441297413    -0.530245237586     0.882678091631     1.007825032230

  Basis Set: AUG-CC-PVTZ
    Blend: AUG-CC-PVTZ
  Basis Set: (AUG-CC-PVTZ AUX)
    Blend: AUG-CC-PVTZ-JKFIT
	 Reference Energy          =    -263.9193803166927523 [Eh]
	 Singles Energy            =      -0.0000000000000000 [Eh]
	 Same-Spin Energy          =      -0.2873290683319453 [Eh]
	 Opposite-Spin Energy      =      -0.8979344343849329 [Eh]
	 Correlation Energy        =      -1.1852635027168783 [Eh]
	 Total Energy              =    -265.1046438194096027 [Eh]

	 ================> DF-SCS-MP2 Energies <==================
	-----------------------------------------------------------
	 SCS Same-Spin Scale       =       0.3333333333333333 [-]
	 SCS Opposite-Spin Scale   =       1.2000000000000000 [-]
	 SCS Same-Spin Energy      =      -0.0957763561106484 [Eh]
	 SCS Opposite-Spin Energy  =      -1.0775213212619195 [Eh]
	 SCS Correlation Energy    =      -1.1732976773725678 [Eh]
	 SCS Total Energy          =    -265.0926779940652978 [Eh]
	-----------------------------------------------------------

  Dipole Moment: [D]
     X:     2.0777      Y:     2.8914      Z:    -0.0000     Total:     3.5605

*** Psi4 exiting successfully. Buy a developer a beer!
