                               Psi4 1.3.2 release

  ==> Input File <==

--------------------------------------------------------------------------
#psi4
#
memory 32 gb

molecule  {
0 1
  C       -2.1511020    -0.0065270     0.0000480
  C       -0.5796153    -0.0374408    -0.0000236
  C        0.1863670     1.1106040    -0.0000190
  C        1.3448400    -0.7705710    -0.0000450
  N        0.0761070    -1.1507890    -0.0000380
  N        1.4605000     0.5893150     0.0000860
  H       -2.5302630    -0.5301450    -0.8821160
  H       -2.5568780     1.0090980    -0.0003890
  H        0.0003360     2.1751570    -0.0003990
  H        2.2046270    -1.4277370     0.0000190
  H        2.3225060     1.1195640     0.0001590
  H       -2.5302120    -0.5293840     0.8826800
units angstrom
no_reorient  #important for SAPT in psi4, default
symmetry c1  #important for SAPT in psi4, default
}

set PROPERTIES_ORIGIN ["COM"]
properties('MP2/aug-cc-pvtz', properties = ['dipole'])
--------------------------------------------------------------------------

    Molecular point group: c1
  Charge       = 0
  Multiplicity = 1
  Basis Set: AUG-CC-PVTZ
    Blend: AUG-CC-PVTZ
  Basis Set: (AUG-CC-PVTZ AUX)
    Blend: AUG-CC-PVTZ-JKFIT

    Orbital Energies [Eh]
    ---------------------

    Doubly Occupied:

       1A    -15.624759     2A    -15.540345     3A    -11.297856
       4A    -11.249360     5A    -11.245696     6A    -11.214847
       7A     -1.350561     8A     -1.185450     9A     -1.018018
      10A     -0.928183    11A     -0.838689    12A     -0.773862
      13A     -0.730404    14A     -0.622842    15A     -0.609435
      16A     -0.599740    17A     -0.542907    18A     -0.528874
      19A     -0.519134    20A     -0.436873    21A     -0.407067
      22A     -0.304691

  @DF-RHF Final Energy:  -263.93880597652469

   => Energetics <=

    Nuclear Repulsion Energy =            224.8249911398140455
    One-Electron Energy =                -802.3884098649238013
    Two-Electron Energy =                 313.6246127485850366
    Total Energy =                       -263.9388059765246908
  Basis Set: (AUG-CC-PVTZ AUX)
    Blend: AUG-CC-PVTZ-RI
    Molecular point group: c1

    Geometry (in Angstrom), charge = 0, multiplicity = 1:

       Center              X                  Y                   Z               Mass
    ------------   -----------------  -----------------  -----------------  -----------------
         C           -2.199961038631     0.023682852426     0.000046164754    12.000000000000
         C           -0.628474338631    -0.007230947574    -0.000025435246    12.000000000000
         C            0.137507961369     1.140813852426    -0.000020835246    12.000000000000
         C            1.295980961369    -0.740361147574    -0.000046835246    12.000000000000
         N            0.027247961369    -1.120579147574    -0.000039835246    14.003074004430
         N            1.411640961369     0.619524852426     0.000084164754    14.003074004430
         H           -2.579122038631    -0.499935147574    -0.882117835246     1.007825032230
         H           -2.605737038631     1.039307852426    -0.000390835246     1.007825032230
         H           -0.048523038631     2.205366852426    -0.000400835246     1.007825032230
         H            2.155767961369    -1.397527147574     0.000017164754     1.007825032230
         H            2.273646961369     1.149773852426     0.000157164754     1.007825032230
         H           -2.579071038631    -0.499174147574     0.882678164754     1.007825032230

  Basis Set: AUG-CC-PVTZ
    Blend: AUG-CC-PVTZ
  Basis Set: (AUG-CC-PVTZ AUX)
    Blend: AUG-CC-PVTZ-JKFIT
	 Reference Energy          =    -263.9388059765246908 [Eh]
	 Singles Energy            =      -0.0000000000000000 [Eh]
	 Same-Spin Energy          =      -0.2871889859681299 [Eh]
	 Opposite-Spin Energy      =      -0.8964174840304298 [Eh]
	 Correlation Energy        =      -1.1836064699985598 [Eh]
	 Total Energy              =    -265.1224124465232421 [Eh]

	 ================> DF-SCS-MP2 Energies <==================
	-----------------------------------------------------------
	 SCS Same-Spin Scale       =       0.3333333333333333 [-]
	 SCS Opposite-Spin Scale   =       1.2000000000000000 [-]
	 SCS Same-Spin Energy      =      -0.0957296619893766 [Eh]
	 SCS Opposite-Spin Energy  =      -1.0757009808365157 [Eh]
	 SCS Correlation Energy    =      -1.1714306428258923 [Eh]
	 SCS Total Energy          =    -265.1102366193505873 [Eh]
	-----------------------------------------------------------

  Dipole Moment: [D]
     X:     2.2388      Y:     2.8087      Z:    -0.0001     Total:     3.5918

*** Psi4 exiting successfully. Buy a developer a beer!
