                               Psi4 1.3.2 release

  ==> Input File <==

--------------------------------------------------------------------------
#psi4
#
memory 32 gb

molecule  {
0 1
  C       -2.1511020    -0.0065270     0.0000480
  C       -0.5390825    -0.0634738    -0.0000199
  C        0.1863670     1.1106040    -0.0000190
  C        1.3448400    -0.7705710    -0.0000450
  N        0.0761070    -1.1507890    -0.0000380
  N        1.4605000     0.5893150     0.0000860
  H       -2.5302630    -0.5301450    -0.8821160
  H       -2.5568780     1.0090980    -0.0003890
  H        0.0003360     2.1751570    -0.0003990
  H        2.2046270    -1.4277370     0.0000190
  H        2.3225060     1.1195640     0.0001590
  H       -2.5302120    -0.5293840     0.8826800
units angstrom
no_reorient  #important for SAPT in psi4, default
symmetry c1  #important for SAPT in psi4, default
}

set PROPERTIES_ORIGIN ["COM"]
properties('MP2/aug-cc-pvtz', properties = ['dipole'])
--------------------------------------------------------------------------

    Molecular point group: c1
  Charge       = 0
  Multiplicity = 1
  Basis Set: AUG-CC-PVTZ
    Blend: AUG-CC-PVTZ
  Basis Set: (AUG-CC-PVTZ AUX)
    Blend: AUG-CC-PVTZ-JKFIT

    Orbital Energies [Eh]
    ---------------------

    Doubly Occupied:

       1A    -15.627461     2A    -15.539451     3A    -11.298406
       4A    -11.247696     5A    -11.244816     6A    -11.213444
       7A     -1.361169     8A     -1.197154     9A     -1.013336
      10A     -0.923467    11A     -0.847010    12A     -0.776247
      13A     -0.727709    14A     -0.626715    15A     -0.614131
      16A     -0.601002    17A     -0.539521    18A     -0.529186
      19A     -0.513800    20A     -0.432165    21A     -0.415998
      22A     -0.302532

  @DF-RHF Final Energy:  -263.92300343641324

   => Energetics <=

    Nuclear Repulsion Energy =            225.4200696027598099
    One-Electron Energy =                -803.5013098115582579
    Two-Electron Energy =                 314.1582367723852371
    Total Energy =                       -263.9230034364132393
  Basis Set: (AUG-CC-PVTZ AUX)
    Blend: AUG-CC-PVTZ-RI
    Molecular point group: c1

    Geometry (in Angstrom), charge = 0, multiplicity = 1:

       Center              X                  Y                   Z               Mass
    ------------   -----------------  -----------------  -----------------  -----------------
         C           -2.205888829423     0.027490094405     0.000045623641    12.000000000000
         C           -0.593869329423    -0.029456705595    -0.000022276359    12.000000000000
         C            0.131580170577     1.144621094405    -0.000021376359    12.000000000000
         C            1.290053170577    -0.736553905595    -0.000047376359    12.000000000000
         N            0.021320170577    -1.116771905595    -0.000040376359    14.003074004430
         N            1.405713170577     0.623332094405     0.000083623641    14.003074004430
         H           -2.585049829423    -0.496127905595    -0.882118376359     1.007825032230
         H           -2.611664829423     1.043115094405    -0.000391376359     1.007825032230
         H           -0.054450829423     2.209174094405    -0.000401376359     1.007825032230
         H            2.149840170577    -1.393719905595     0.000016623641     1.007825032230
         H            2.267719170577     1.153581094405     0.000156623641     1.007825032230
         H           -2.584998829423    -0.495366905595     0.882677623641     1.007825032230

  Basis Set: AUG-CC-PVTZ
    Blend: AUG-CC-PVTZ
  Basis Set: (AUG-CC-PVTZ AUX)
    Blend: AUG-CC-PVTZ-JKFIT
	 Reference Energy          =    -263.9230034364132393 [Eh]
	 Singles Energy            =      -0.0000000000000000 [Eh]
	 Same-Spin Energy          =      -0.2875897507967505 [Eh]
	 Opposite-Spin Energy      =      -0.8967612136921423 [Eh]
	 Correlation Energy        =      -1.1843509644888928 [Eh]
	 Total Energy              =    -265.1073544009021248 [Eh]

	 ================> DF-SCS-MP2 Energies <==================
	-----------------------------------------------------------
	 SCS Same-Spin Scale       =       0.3333333333333333 [-]
	 SCS Opposite-Spin Scale   =       1.2000000000000000 [-]
	 SCS Same-Spin Energy      =      -0.0958632502655835 [Eh]
	 SCS Opposite-Spin Energy  =      -1.0761134564305708 [Eh]
	 SCS Correlation Energy    =      -1.1719767066961542 [Eh]
	 SCS Total Energy          =    -265.0949801431094102 [Eh]
	-----------------------------------------------------------

  Dipole Moment: [D]
     X:     2.3418      Y:     2.7811      Z:    -0.0001     Total:     3.6358

*** Psi4 exiting successfully. Buy a developer a beer!
