                               Psi4 1.3.2 release

  ==> Input File <==

--------------------------------------------------------------------------
#psi4
#
memory 32 gb

molecule  {
0 1
  C       -2.1511020    -0.0065270     0.0000480
  C       -0.6578330     0.0187880    -0.0000310
  C        0.1863670     1.1106040    -0.0000190
  C        1.3448400    -0.7705710    -0.0000450
  N        0.0761070    -1.1507890    -0.0000380
  N        1.2753933     0.6650481     0.0000707
  H       -2.5302630    -0.5301450    -0.8821160
  H       -2.5568780     1.0090980    -0.0003890
  H        0.0003360     2.1751570    -0.0003990
  H        2.2046270    -1.4277370     0.0000190
  H        2.3225060     1.1195640     0.0001590
  H       -2.5302120    -0.5293840     0.8826800
units angstrom
no_reorient  #important for SAPT in psi4, default
symmetry c1  #important for SAPT in psi4, default
}

set PROPERTIES_ORIGIN ["COM"]
properties('MP2/aug-cc-pvtz', properties = ['dipole'])
--------------------------------------------------------------------------

    Molecular point group: c1
  Charge       = 0
  Multiplicity = 1
  Basis Set: AUG-CC-PVTZ
    Blend: AUG-CC-PVTZ
  Basis Set: (AUG-CC-PVTZ AUX)
    Blend: AUG-CC-PVTZ-JKFIT

    Orbital Energies [Eh]
    ---------------------

    Doubly Occupied:

       1A    -15.630900     2A    -15.547897     3A    -11.284716
       4A    -11.247527     5A    -11.229550     6A    -11.207976
       7A     -1.374779     8A     -1.178092     9A     -1.025767
      10A     -0.931072    11A     -0.801141    12A     -0.785455
      13A     -0.742186    14A     -0.637563    15A     -0.627102
      16A     -0.574156    17A     -0.546477    18A     -0.522362
      19A     -0.515872    20A     -0.434168    21A     -0.406393
      22A     -0.286326

  @DF-RHF Final Energy:  -263.87608191963852

   => Energetics <=

    Nuclear Repulsion Energy =            226.7724970748519979
    One-Electron Energy =                -806.2222037667844461
    Two-Electron Energy =                 315.5736247722938970
    Total Energy =                       -263.8760819196385228
  Basis Set: (AUG-CC-PVTZ AUX)
    Blend: AUG-CC-PVTZ-RI
    Molecular point group: c1

    Geometry (in Angstrom), charge = 0, multiplicity = 1:

       Center              X                  Y                   Z               Mass
    ------------   -----------------  -----------------  -----------------  -----------------
         C           -2.156931886823     0.002535061034     0.000049858058    12.000000000000
         C           -0.663662886823     0.027850061034    -0.000029141942    12.000000000000
         C            0.180537113177     1.119666061034    -0.000017141942    12.000000000000
         C            1.339010113177    -0.761508938966    -0.000043141942    12.000000000000
         N            0.070277113177    -1.141726938966    -0.000036141942    14.003074004430
         N            1.269563413177     0.674110161034     0.000072558058    14.003074004430
         H           -2.536092886823    -0.521082938966    -0.882114141942     1.007825032230
         H           -2.562707886823     1.018160061034    -0.000387141942     1.007825032230
         H           -0.005493886823     2.184219061034    -0.000397141942     1.007825032230
         H            2.198797113177    -1.418674938966     0.000020858058     1.007825032230
         H            2.316676113177     1.128626061034     0.000160858058     1.007825032230
         H           -2.536041886823    -0.520321938966     0.882681858058     1.007825032230

  Basis Set: AUG-CC-PVTZ
    Blend: AUG-CC-PVTZ
  Basis Set: (AUG-CC-PVTZ AUX)
    Blend: AUG-CC-PVTZ-JKFIT
	 Reference Energy          =    -263.8760819196385228 [Eh]
	 Singles Energy            =      -0.0000000000000000 [Eh]
	 Same-Spin Energy          =      -0.2909252032567812 [Eh]
	 Opposite-Spin Energy      =      -0.9014301621549519 [Eh]
	 Correlation Energy        =      -1.1923553654117329 [Eh]
	 Total Energy              =    -265.0684372850502655 [Eh]

	 ================> DF-SCS-MP2 Energies <==================
	-----------------------------------------------------------
	 SCS Same-Spin Scale       =       0.3333333333333333 [-]
	 SCS Opposite-Spin Scale   =       1.2000000000000000 [-]
	 SCS Same-Spin Energy      =      -0.0969750677522604 [Eh]
	 SCS Opposite-Spin Energy  =      -1.0817161945859421 [Eh]
	 SCS Correlation Energy    =      -1.1786912623382024 [Eh]
	 SCS Total Energy          =    -265.0547731819767137 [Eh]
	-----------------------------------------------------------

  Dipole Moment: [D]
     X:     2.3824      Y:     3.0940      Z:     0.0000     Total:     3.9049

*** Psi4 exiting successfully. Buy a developer a beer!
