                               Psi4 1.3.2 release

  ==> Input File <==

--------------------------------------------------------------------------
#psi4
#
memory 32 gb

molecule  {
0 1
  C       -2.1511020    -0.0065270     0.0000480
  C       -0.6578330     0.0187880    -0.0000310
  C        0.0640300     0.9523837    -0.0000207
  C        1.3448400    -0.7705710    -0.0000450
  N        0.0761070    -1.1507890    -0.0000380
  N        1.4605000     0.5893150     0.0000860
  H       -2.5302630    -0.5301450    -0.8821160
  H       -2.5568780     1.0090980    -0.0003890
  H        0.0003360     2.1751570    -0.0003990
  H        2.2046270    -1.4277370     0.0000190
  H        2.3225060     1.1195640     0.0001590
  H       -2.5302120    -0.5293840     0.8826800
units angstrom
no_reorient  #important for SAPT in psi4, default
symmetry c1  #important for SAPT in psi4, default
}

set PROPERTIES_ORIGIN ["COM"]
properties('MP2/aug-cc-pvtz', properties = ['dipole'])
--------------------------------------------------------------------------

    Molecular point group: c1
  Charge       = 0
  Multiplicity = 1
  Basis Set: AUG-CC-PVTZ
    Blend: AUG-CC-PVTZ
  Basis Set: (AUG-CC-PVTZ AUX)
    Blend: AUG-CC-PVTZ-JKFIT

    Orbital Energies [Eh]
    ---------------------

    Doubly Occupied:

       1A    -15.607491     2A    -15.535117     3A    -11.302169
       4A    -11.246613     5A    -11.220618     6A    -11.217206
       7A     -1.337052     8A     -1.156097     9A     -1.055014
      10A     -0.945213    11A     -0.827297    12A     -0.753323
      13A     -0.737472    14A     -0.629822    15A     -0.611965
      16A     -0.568741    17A     -0.547105    18A     -0.528241
      19A     -0.517303    20A     -0.428466    21A     -0.388443
      22A     -0.348532

  @DF-RHF Final Energy:  -263.88810933489282

   => Energetics <=

    Nuclear Repulsion Energy =            226.6700695936605996
    One-Electron Energy =                -806.0977568409690548
    Two-Electron Energy =                 315.5395779124156093
    Total Energy =                       -263.8881093348928175
  Basis Set: (AUG-CC-PVTZ AUX)
    Blend: AUG-CC-PVTZ-RI
    Molecular point group: c1

    Geometry (in Angstrom), charge = 0, multiplicity = 1:

       Center              X                  Y                   Z               Mass
    ------------   -----------------  -----------------  -----------------  -----------------
         C           -2.170630562966     0.038598779147     0.000047495600    12.000000000000
         C           -0.677361562966     0.063913779147    -0.000031504400    12.000000000000
         C            0.044501437034     0.997509479147    -0.000021204400    12.000000000000
         C            1.325311437034    -0.725445220853    -0.000045504400    12.000000000000
         N            0.056578437034    -1.105663220853    -0.000038504400    14.003074004430
         N            1.440971437034     0.634440779147     0.000085495600    14.003074004430
         H           -2.549791562966    -0.485019220853    -0.882116504400     1.007825032230
         H           -2.576406562966     1.054223779147    -0.000389504400     1.007825032230
         H           -0.019192562966     2.220282779147    -0.000399504400     1.007825032230
         H            2.185098437034    -1.382611220853     0.000018495600     1.007825032230
         H            2.302977437034     1.164689779147     0.000158495600     1.007825032230
         H           -2.549740562966    -0.484258220853     0.882679495600     1.007825032230

  Basis Set: AUG-CC-PVTZ
    Blend: AUG-CC-PVTZ
  Basis Set: (AUG-CC-PVTZ AUX)
    Blend: AUG-CC-PVTZ-JKFIT
	 Reference Energy          =    -263.8881093348928175 [Eh]
	 Singles Energy            =      -0.0000000000000000 [Eh]
	 Same-Spin Energy          =      -0.2847992341459945 [Eh]
	 Opposite-Spin Energy      =      -0.8949648049787293 [Eh]
	 Correlation Energy        =      -1.1797640391247237 [Eh]
	 Total Energy              =    -265.0678733740175517 [Eh]

	 ================> DF-SCS-MP2 Energies <==================
	-----------------------------------------------------------
	 SCS Same-Spin Scale       =       0.3333333333333333 [-]
	 SCS Opposite-Spin Scale   =       1.2000000000000000 [-]
	 SCS Same-Spin Energy      =      -0.0949330780486648 [Eh]
	 SCS Opposite-Spin Energy  =      -1.0739577659744752 [Eh]
	 SCS Correlation Energy    =      -1.1688908440231400 [Eh]
	 SCS Total Energy          =    -265.0570001789159846 [Eh]
	-----------------------------------------------------------

  Dipole Moment: [D]
     X:     1.9393      Y:     2.6933      Z:    -0.0000     Total:     3.3189

*** Psi4 exiting successfully. Buy a developer a beer!
