                               Psi4 1.4a3.dev225

  ==> Input File <==

--------------------------------------------------------------------------
#psi4
#
memory 32 gb

molecule  {
0 1
  C       -2.1510270    -0.0065590     0.0000050
  C       -0.6578210     0.0184680    -0.0000060
  C        0.1861760     1.1105370     0.0000080
  C        1.3450050    -0.7704390     0.0000010
  N        0.1241963    -1.1364982    -0.0000067
  N        1.4603370     0.5895500    -0.0000040
  H       -2.5304610    -0.5297300    -0.8823420
  H       -2.5565240     1.0091620    -0.0000020
  H       -0.0003960     2.1749820    -0.0000490
  H        2.2049760    -1.4273470     0.0000120
  H        2.3223630     1.1197620     0.0000400
  H       -2.5304440    -0.5297090     0.8823710
units angstrom
no_reorient  #important for SAPT in psi4, default
symmetry c1  #important for SAPT in psi4, default
}

set PROPERTIES_ORIGIN ["COM"]
properties('MP2/aug-cc-pvtz', properties = ['dipole'])
--------------------------------------------------------------------------

    Molecular point group: c1
  Charge       = 0
  Multiplicity = 1
  Basis Set: AUG-CC-PVTZ
    Blend: AUG-CC-PVTZ
  Basis Set: (AUG-CC-PVTZ AUX)
    Blend: AUG-CC-PVTZ-JKFIT

    Orbital Energies [Eh]
    ---------------------

    Doubly Occupied:

       1A    -15.613195     2A    -15.535934     3A    -11.289673
       4A    -11.255121     5A    -11.248883     6A    -11.217573
       7A     -1.339403     8A     -1.165566     9A     -1.034640
      10A     -0.936733    11A     -0.816330    12A     -0.774876
      13A     -0.735498    14A     -0.618405    15A     -0.605239
      16A     -0.596091    17A     -0.549970    18A     -0.542317
      19A     -0.529042    20A     -0.427458    21A     -0.393919
      22A     -0.311496

  @DF-RHF Final Energy:  -263.95087291386028

   => Energetics <=

    Nuclear Repulsion Energy =            224.4531284102388895
    One-Electron Energy =                -801.7332748479465181
    Two-Electron Energy =                 313.3292735238472915
    Total Energy =                       -263.9508729138602803
  Basis Set: (AUG-CC-PVTZ AUX)
    Blend: AUG-CC-PVTZ-RI
    Molecular point group: c1

    Geometry (in Angstrom), charge = 0, multiplicity = 1:

       Center              X                  Y                   Z               Mass
    ------------   -----------------  -----------------  -----------------  -----------------
         C           -2.196627519564     0.012983627076     0.000005287596    12.000000000000
         C           -0.703421519564     0.038010627076    -0.000005712404    12.000000000000
         C            0.140575480436     1.130079627076     0.000008287596    12.000000000000
         C            1.299404480436    -0.750896372924     0.000001287596    12.000000000000
         N            0.078595780436    -1.116955572924    -0.000006412404    14.003074004430
         N            1.414736480436     0.609092627076    -0.000003712404    14.003074004430
         H           -2.576061519564    -0.510187372924    -0.882341712404     1.007825032230
         H           -2.602124519564     1.028704627076    -0.000001712404     1.007825032230
         H           -0.045996519564     2.194524627076    -0.000048712404     1.007825032230
         H            2.159375480436    -1.407804372924     0.000012287596     1.007825032230
         H            2.276762480436     1.139304627076     0.000040287596     1.007825032230
         H           -2.576044519564    -0.510166372924     0.882371287596     1.007825032230

  Basis Set: AUG-CC-PVTZ
    Blend: AUG-CC-PVTZ
  Basis Set: (AUG-CC-PVTZ AUX)
    Blend: AUG-CC-PVTZ-JKFIT
	 Reference Energy          =    -263.9508729138602803 [Eh]
	 Singles Energy            =      -0.0000000000000000 [Eh]
	 Same-Spin Energy          =      -0.2857432468284709 [Eh]
	 Opposite-Spin Energy      =      -0.8947808886809053 [Eh]
	 Correlation Energy        =      -1.1805241355093763 [Eh]
	 Total Energy              =    -265.1313970493696388 [Eh]

	 ================> DF-SCS-MP2 Energies <==================
	-----------------------------------------------------------
	 SCS Same-Spin Scale       =       0.3333333333333333 [-]
	 SCS Opposite-Spin Scale   =       1.2000000000000000 [-]
	 SCS Same-Spin Energy      =      -0.0952477489428236 [Eh]
	 SCS Opposite-Spin Energy  =      -1.0737370664170864 [Eh]
	 SCS Correlation Energy    =      -1.1689848153599101 [Eh]
	 SCS Total Energy          =    -265.1198577292202003 [Eh]
	-----------------------------------------------------------

  Dipole Moment: [D]
     X:     1.9485      Y:     2.7646      Z:     0.0000     Total:     3.3823

*** Psi4 exiting successfully. Buy a developer a beer!
