                               Psi4 1.4a3.dev225

  ==> Input File <==

--------------------------------------------------------------------------
#psi4
#
memory 32 gb

molecule  {
0 1
  C       -2.1510270    -0.0065590     0.0000050
  C       -0.6578210     0.0184680    -0.0000060
  C        0.1739459     1.0947122     0.0000078
  C        1.3450050    -0.7704390     0.0000010
  N        0.0763030    -1.1508590    -0.0000070
  N        1.4603370     0.5895500    -0.0000040
  H       -2.5304610    -0.5297300    -0.8823420
  H       -2.5565240     1.0091620    -0.0000020
  H       -0.0003960     2.1749820    -0.0000490
  H        2.2049760    -1.4273470     0.0000120
  H        2.3223630     1.1197620     0.0000400
  H       -2.5304440    -0.5297090     0.8823710
units angstrom
no_reorient  #important for SAPT in psi4, default
symmetry c1  #important for SAPT in psi4, default
}

set PROPERTIES_ORIGIN ["COM"]
properties('MP2/aug-cc-pvtz', properties = ['dipole'])
--------------------------------------------------------------------------

    Molecular point group: c1
  Charge       = 0
  Multiplicity = 1
  Basis Set: AUG-CC-PVTZ
    Blend: AUG-CC-PVTZ
  Basis Set: (AUG-CC-PVTZ AUX)
    Blend: AUG-CC-PVTZ-JKFIT

    Orbital Energies [Eh]
    ---------------------

    Doubly Occupied:

       1A    -15.618806     2A    -15.541194     3A    -11.297976
       4A    -11.253013     5A    -11.245944     6A    -11.215813
       7A     -1.334473     8A     -1.163025     9A     -1.031264
      10A     -0.937368    11A     -0.824219    12A     -0.766820
      13A     -0.736416    14A     -0.619172    15A     -0.603845
      16A     -0.591306    17A     -0.548585    18A     -0.541523
      19A     -0.525106    20A     -0.433030    21A     -0.390515
      22A     -0.312860

  @DF-RHF Final Energy:  -263.95007151470753

   => Energetics <=

    Nuclear Repulsion Energy =            224.0459815841193176
    One-Electron Energy =                -800.9275591496677862
    Two-Electron Energy =                 312.9315060508409374
    Total Energy =                       -263.9500715147075312
  Basis Set: (AUG-CC-PVTZ AUX)
    Blend: AUG-CC-PVTZ-RI
    Molecular point group: c1

    Geometry (in Angstrom), charge = 0, multiplicity = 1:

       Center              X                  Y                   Z               Mass
    ------------   -----------------  -----------------  -----------------  -----------------
         C           -2.186665499334     0.017748748123     0.000005368043    12.000000000000
         C           -0.693459499334     0.042775748123    -0.000005631957    12.000000000000
         C            0.138307400666     1.119019948123     0.000008168043    12.000000000000
         C            1.309366500666    -0.746131251877     0.000001368043    12.000000000000
         N            0.040664500666    -1.126551251877    -0.000006631957    14.003074004430
         N            1.424698500666     0.613857748123    -0.000003631957    14.003074004430
         H           -2.566099499334    -0.505422251877    -0.882341631957     1.007825032230
         H           -2.592162499334     1.033469748123    -0.000001631957     1.007825032230
         H           -0.036034499334     2.199289748123    -0.000048631957     1.007825032230
         H            2.169337500666    -1.403039251877     0.000012368043     1.007825032230
         H            2.286724500666     1.144069748123     0.000040368043     1.007825032230
         H           -2.566082499334    -0.505401251877     0.882371368043     1.007825032230

  Basis Set: AUG-CC-PVTZ
    Blend: AUG-CC-PVTZ
  Basis Set: (AUG-CC-PVTZ AUX)
    Blend: AUG-CC-PVTZ-JKFIT
	 Reference Energy          =    -263.9500715147075312 [Eh]
	 Singles Energy            =      -0.0000000000000000 [Eh]
	 Same-Spin Energy          =      -0.2865074192621062 [Eh]
	 Opposite-Spin Energy      =      -0.8963986595453264 [Eh]
	 Correlation Energy        =      -1.1829060788074326 [Eh]
	 Total Energy              =    -265.1329775935149655 [Eh]

	 ================> DF-SCS-MP2 Energies <==================
	-----------------------------------------------------------
	 SCS Same-Spin Scale       =       0.3333333333333333 [-]
	 SCS Opposite-Spin Scale   =       1.2000000000000000 [-]
	 SCS Same-Spin Energy      =      -0.0955024730873687 [Eh]
	 SCS Opposite-Spin Energy  =      -1.0756783914543917 [Eh]
	 SCS Correlation Energy    =      -1.1711808645417605 [Eh]
	 SCS Total Energy          =    -265.1212523792493130 [Eh]
	-----------------------------------------------------------

  Dipole Moment: [D]
     X:     2.0627      Y:     2.8379      Z:     0.0000     Total:     3.5083

*** Psi4 exiting successfully. Buy a developer a beer!
