                               Psi4 1.3.2 release

  ==> Input File <==

--------------------------------------------------------------------------
#psi4
#
memory 32 gb

molecule  {
0 1
  C       -2.1511020    -0.0065270     0.0000480
  C       -0.6578330     0.0187880    -0.0000310
  C        0.2239566     1.0804767    -0.0000191
  C        1.3448400    -0.7705710    -0.0000450
  N        0.0761070    -1.1507890    -0.0000380
  N        1.4605000     0.5893150     0.0000860
  H       -2.5302630    -0.5301450    -0.8821160
  H       -2.5568780     1.0090980    -0.0003890
  H        0.0003360     2.1751570    -0.0003990
  H        2.2046270    -1.4277370     0.0000190
  H        2.3225060     1.1195640     0.0001590
  H       -2.5302120    -0.5293840     0.8826800
units angstrom
no_reorient  #important for SAPT in psi4, default
symmetry c1  #important for SAPT in psi4, default
}

set PROPERTIES_ORIGIN ["COM"]
properties('MP2/aug-cc-pvtz', properties = ['dipole'])
--------------------------------------------------------------------------

    Molecular point group: c1
  Charge       = 0
  Multiplicity = 1
  Basis Set: AUG-CC-PVTZ
    Blend: AUG-CC-PVTZ
  Basis Set: (AUG-CC-PVTZ AUX)
    Blend: AUG-CC-PVTZ-JKFIT

    Orbital Energies [Eh]
    ---------------------

    Doubly Occupied:

       1A    -15.622220     2A    -15.542411     3A    -11.293576
       4A    -11.254265     5A    -11.244617     6A    -11.216167
       7A     -1.345644     8A     -1.169862     9A     -1.027325
      10A     -0.938296    11A     -0.825797    12A     -0.768037
      13A     -0.741936    14A     -0.619637    15A     -0.609297
      16A     -0.585713    17A     -0.550689    18A     -0.543642
      19A     -0.524044    20A     -0.431677    21A     -0.394452
      22A     -0.305279

  @DF-RHF Final Energy:  -263.94678443663980

   => Energetics <=

    Nuclear Repulsion Energy =            224.5057015403330354
    One-Electron Energy =                -801.7958053260107363
    Two-Electron Energy =                 313.3433193490379267
    Total Energy =                       -263.9467844366398026
  Basis Set: (AUG-CC-PVTZ AUX)
    Blend: AUG-CC-PVTZ-RI
    Molecular point group: c1

    Geometry (in Angstrom), charge = 0, multiplicity = 1:

       Center              X                  Y                   Z               Mass
    ------------   -----------------  -----------------  -----------------  -----------------
         C           -2.194019310522     0.019865592544     0.000047261605    12.000000000000
         C           -0.700750310522     0.045180592544    -0.000031738395    12.000000000000
         C            0.181039289478     1.106869292544    -0.000019838395    12.000000000000
         C            1.301922689478    -0.744178407456    -0.000045738395    12.000000000000
         N            0.033189689478    -1.124396407456    -0.000038738395    14.003074004430
         N            1.417582689478     0.615707592544     0.000085261605    14.003074004430
         H           -2.573180310522    -0.503752407456    -0.882116738395     1.007825032230
         H           -2.599795310522     1.035490592544    -0.000389738395     1.007825032230
         H           -0.042581310522     2.201549592544    -0.000399738395     1.007825032230
         H            2.161709689478    -1.401344407456     0.000018261605     1.007825032230
         H            2.279588689478     1.145956592544     0.000158261605     1.007825032230
         H           -2.573129310522    -0.502991407456     0.882679261605     1.007825032230

  Basis Set: AUG-CC-PVTZ
    Blend: AUG-CC-PVTZ
  Basis Set: (AUG-CC-PVTZ AUX)
    Blend: AUG-CC-PVTZ-JKFIT
	 Reference Energy          =    -263.9467844366398026 [Eh]
	 Singles Energy            =      -0.0000000000000000 [Eh]
	 Same-Spin Energy          =      -0.2872560063286841 [Eh]
	 Opposite-Spin Energy      =      -0.8967533558946141 [Eh]
	 Correlation Energy        =      -1.1840093622232981 [Eh]
	 Total Energy              =    -265.1307937988631238 [Eh]

	 ================> DF-SCS-MP2 Energies <==================
	-----------------------------------------------------------
	 SCS Same-Spin Scale       =       0.3333333333333333 [-]
	 SCS Opposite-Spin Scale   =       1.2000000000000000 [-]
	 SCS Same-Spin Energy      =      -0.0957520021095614 [Eh]
	 SCS Opposite-Spin Energy  =      -1.0761040270735369 [Eh]
	 SCS Correlation Energy    =      -1.1718560291830982 [Eh]
	 SCS Total Energy          =    -265.1186404658229208 [Eh]
	-----------------------------------------------------------

  Dipole Moment: [D]
     X:     2.1137      Y:     2.8759      Z:    -0.0000     Total:     3.5691

*** Psi4 exiting successfully. Buy a developer a beer!
