                               Psi4 1.3.2 release

  ==> Input File <==

--------------------------------------------------------------------------
#psi4
#
memory 32 gb

molecule  {
0 1
  C       -2.1511020    -0.0065270     0.0000480
  C       -0.6578330     0.0187880    -0.0000310
  C        0.1477489     1.1394011    -0.0000189
  C        1.3448400    -0.7705710    -0.0000450
  N        0.0761070    -1.1507890    -0.0000380
  N        1.4605000     0.5893150     0.0000860
  H       -2.5302630    -0.5301450    -0.8821160
  H       -2.5568780     1.0090980    -0.0003890
  H        0.0003360     2.1751570    -0.0003990
  H        2.2046270    -1.4277370     0.0000190
  H        2.3225060     1.1195640     0.0001590
  H       -2.5302120    -0.5293840     0.8826800
units angstrom
no_reorient  #important for SAPT in psi4, default
symmetry c1  #important for SAPT in psi4, default
}

set PROPERTIES_ORIGIN ["COM"]
properties('MP2/aug-cc-pvtz', properties = ['dipole'])
--------------------------------------------------------------------------

    Molecular point group: c1
  Charge       = 0
  Multiplicity = 1
  Basis Set: AUG-CC-PVTZ
    Blend: AUG-CC-PVTZ
  Basis Set: (AUG-CC-PVTZ AUX)
    Blend: AUG-CC-PVTZ-JKFIT

    Orbital Energies [Eh]
    ---------------------

    Doubly Occupied:

       1A    -15.617863     2A    -15.541850     3A    -11.301443
       4A    -11.254062     5A    -11.252295     6A    -11.215502
       7A     -1.325152     8A     -1.158676     9A     -1.031631
      10A     -0.935693    11A     -0.823164    12A     -0.771347
      13A     -0.729226    14A     -0.622022    15A     -0.599321
      16A     -0.598751    17A     -0.546914    18A     -0.536563
      19A     -0.525561    20A     -0.434812    21A     -0.388502
      22A     -0.313092

  @DF-RHF Final Energy:  -263.94666556553318

   => Energetics <=

    Nuclear Repulsion Energy =            223.1109586438038264
    One-Electron Energy =                -799.0683636646122068
    Two-Electron Energy =                 312.0107394552752567
    Total Energy =                       -263.9466655655331806
  Basis Set: (AUG-CC-PVTZ AUX)
    Blend: AUG-CC-PVTZ-RI
    Molecular point group: c1

    Geometry (in Angstrom), charge = 0, multiplicity = 1:

       Center              X                  Y                   Z               Mass
    ------------   -----------------  -----------------  -----------------  -----------------
         C           -2.182874181087     0.011248089786     0.000047232356    12.000000000000
         C           -0.689605181087     0.036563089786    -0.000031767644    12.000000000000
         C            0.115976718913     1.157176189786    -0.000019667644    12.000000000000
         C            1.313067818913    -0.752795910214    -0.000045767644    12.000000000000
         N            0.044334818913    -1.133013910214    -0.000038767644    14.003074004430
         N            1.428727818913     0.607090089786     0.000085232356    14.003074004430
         H           -2.562035181087    -0.512369910214    -0.882116767644     1.007825032230
         H           -2.588650181087     1.026873089786    -0.000389767644     1.007825032230
         H           -0.031436181087     2.192932089786    -0.000399767644     1.007825032230
         H            2.172854818913    -1.409961910214     0.000018232356     1.007825032230
         H            2.290733818913     1.137339089786     0.000158232356     1.007825032230
         H           -2.561984181087    -0.511608910214     0.882679232356     1.007825032230

  Basis Set: AUG-CC-PVTZ
    Blend: AUG-CC-PVTZ
  Basis Set: (AUG-CC-PVTZ AUX)
    Blend: AUG-CC-PVTZ-JKFIT
	 Reference Energy          =    -263.9466655655331806 [Eh]
	 Singles Energy            =      -0.0000000000000000 [Eh]
	 Same-Spin Energy          =      -0.2864684699748342 [Eh]
	 Opposite-Spin Energy      =      -0.8970788450379283 [Eh]
	 Correlation Energy        =      -1.1835473150127624 [Eh]
	 Total Energy              =    -265.1302128805459688 [Eh]

	 ================> DF-SCS-MP2 Energies <==================
	-----------------------------------------------------------
	 SCS Same-Spin Scale       =       0.3333333333333333 [-]
	 SCS Opposite-Spin Scale   =       1.2000000000000000 [-]
	 SCS Same-Spin Energy      =      -0.0954894899916114 [Eh]
	 SCS Opposite-Spin Energy  =      -1.0764946140455141 [Eh]
	 SCS Correlation Energy    =      -1.1719841040371255 [Eh]
	 SCS Total Energy          =    -265.1186496695702886 [Eh]
	-----------------------------------------------------------

  Dipole Moment: [D]
     X:     2.0311      Y:     2.8049      Z:    -0.0001     Total:     3.4631

*** Psi4 exiting successfully. Buy a developer a beer!
