                               Psi4 1.3.2 release

  ==> Input File <==

--------------------------------------------------------------------------
#psi4
#
memory 32 gb

molecule  {
0 1
  C       -2.1402756    -0.1624774     0.0000392
  C       -0.6578330     0.0187880    -0.0000310
  C        0.1863670     1.1106040    -0.0000190
  C        1.3448400    -0.7705710    -0.0000450
  N        0.0761070    -1.1507890    -0.0000380
  N        1.4605000     0.5893150     0.0000860
  H       -2.5302630    -0.5301450    -0.8821160
  H       -2.5568780     1.0090980    -0.0003890
  H        0.0003360     2.1751570    -0.0003990
  H        2.2046270    -1.4277370     0.0000190
  H        2.3225060     1.1195640     0.0001590
  H       -2.5302120    -0.5293840     0.8826800
units angstrom
no_reorient  #important for SAPT in psi4, default
symmetry c1  #important for SAPT in psi4, default
}

set PROPERTIES_ORIGIN ["COM"]
properties('MP2/aug-cc-pvtz', properties = ['dipole'])
--------------------------------------------------------------------------

    Molecular point group: c1
  Charge       = 0
  Multiplicity = 1
  Basis Set: AUG-CC-PVTZ
    Blend: AUG-CC-PVTZ
  Basis Set: (AUG-CC-PVTZ AUX)
    Blend: AUG-CC-PVTZ-JKFIT

    Orbital Energies [Eh]
    ---------------------

    Doubly Occupied:

       1A    -15.621784     2A    -15.540312     3A    -11.296927
       4A    -11.258119     5A    -11.249673     6A    -11.219452
       7A     -1.335634     8A     -1.165717     9A     -1.028094
      10A     -0.940767    11A     -0.824038    12A     -0.770053
      13A     -0.738442    14A     -0.616464    15A     -0.612829
      16A     -0.597488    17A     -0.576158    18A     -0.549872
      19A     -0.470126    20A     -0.435178    21A     -0.393013
      22A     -0.312655

  @DF-RHF Final Energy:  -263.92678002623728

   => Energetics <=

    Nuclear Repulsion Energy =            223.8919152360521423
    One-Electron Energy =                -800.5318041980237922
    Two-Electron Energy =                 312.7131089357343967
    Total Energy =                       -263.9267800262372816
  Basis Set: (AUG-CC-PVTZ AUX)
    Blend: AUG-CC-PVTZ-RI
    Molecular point group: c1

    Geometry (in Angstrom), charge = 0, multiplicity = 1:

       Center              X                  Y                   Z               Mass
    ------------   -----------------  -----------------  -----------------  -----------------
         C           -2.179278879157    -0.117683586380     0.000039733952    12.000000000000
         C           -0.696836279157     0.063581813620    -0.000030466048    12.000000000000
         C            0.147363720843     1.155397813620    -0.000018466048    12.000000000000
         C            1.305836720843    -0.725777186380    -0.000044466048    12.000000000000
         N            0.037103720843    -1.105995186380    -0.000037466048    14.003074004430
         N            1.421496720843     0.634108813620     0.000086533952    14.003074004430
         H           -2.569266279157    -0.485351186380    -0.882115466048     1.007825032230
         H           -2.595881279157     1.053891813620    -0.000388466048     1.007825032230
         H           -0.038667279157     2.219950813620    -0.000398466048     1.007825032230
         H            2.165623720843    -1.382943186380     0.000019533952     1.007825032230
         H            2.283502720843     1.164357813620     0.000159533952     1.007825032230
         H           -2.569215279157    -0.484590186380     0.882680533952     1.007825032230

  Basis Set: AUG-CC-PVTZ
    Blend: AUG-CC-PVTZ
  Basis Set: (AUG-CC-PVTZ AUX)
    Blend: AUG-CC-PVTZ-JKFIT
	 Reference Energy          =    -263.9267800262372816 [Eh]
	 Singles Energy            =      -0.0000000000000000 [Eh]
	 Same-Spin Energy          =      -0.2872129701137404 [Eh]
	 Opposite-Spin Energy      =      -0.8982091822971280 [Eh]
	 Correlation Energy        =      -1.1854221524108683 [Eh]
	 Total Energy              =    -265.1122021786481469 [Eh]

	 ================> DF-SCS-MP2 Energies <==================
	-----------------------------------------------------------
	 SCS Same-Spin Scale       =       0.3333333333333333 [-]
	 SCS Opposite-Spin Scale   =       1.2000000000000000 [-]
	 SCS Same-Spin Energy      =      -0.0957376567045801 [Eh]
	 SCS Opposite-Spin Energy  =      -1.0778510187565535 [Eh]
	 SCS Correlation Energy    =      -1.1735886754611338 [Eh]
	 SCS Total Energy          =    -265.1003687016984145 [Eh]
	-----------------------------------------------------------

  Dipole Moment: [D]
     X:     2.1639      Y:     2.7409      Z:    -0.0000     Total:     3.4921

*** Psi4 exiting successfully. Buy a developer a beer!
