                               Psi4 1.4a3.dev225

  ==> Input File <==

--------------------------------------------------------------------------
#psi4
#
memory 32 gb

molecule  {
0 1
  C       -2.1510270    -0.0065590     0.0000050
  C       -0.7078140     0.0176301    -0.0000056
  C        0.1861760     1.1105370     0.0000080
  C        1.3450050    -0.7704390     0.0000010
  N        0.0763030    -1.1508590    -0.0000070
  N        1.4603370     0.5895500    -0.0000040
  H       -2.5304610    -0.5297300    -0.8823420
  H       -2.5565240     1.0091620    -0.0000020
  H       -0.0003960     2.1749820    -0.0000490
  H        2.2049760    -1.4273470     0.0000120
  H        2.3223630     1.1197620     0.0000400
  H       -2.5304440    -0.5297090     0.8823710
units angstrom
no_reorient  #important for SAPT in psi4, default
symmetry c1  #important for SAPT in psi4, default
}

set PROPERTIES_ORIGIN ["COM"]
properties('MP2/aug-cc-pvtz', properties = ['dipole'])
--------------------------------------------------------------------------

    Molecular point group: c1
  Charge       = 0
  Multiplicity = 1
  Basis Set: AUG-CC-PVTZ
    Blend: AUG-CC-PVTZ
  Basis Set: (AUG-CC-PVTZ AUX)
    Blend: AUG-CC-PVTZ-JKFIT

    Orbital Energies [Eh]
    ---------------------

    Doubly Occupied:

       1A    -15.620594     2A    -15.542614     3A    -11.296665
       4A    -11.258408     5A    -11.252789     6A    -11.215290
       7A     -1.328490     8A     -1.159189     9A     -1.035369
      10A     -0.939463    11A     -0.819015    12A     -0.767054
      13A     -0.736363    14A     -0.617675    15A     -0.602087
      16A     -0.594287    17A     -0.554899    18A     -0.552488
      19A     -0.525463    20A     -0.425686    21A     -0.387469
      22A     -0.304134

  @DF-RHF Final Energy:  -263.94388177550269

   => Energetics <=

    Nuclear Repulsion Energy =            223.2618758576538482
    One-Electron Energy =                -799.3405315203392547
    Two-Electron Energy =                 312.1347738871826891
    Total Energy =                       -263.9438817755026889
  Basis Set: (AUG-CC-PVTZ AUX)
    Blend: AUG-CC-PVTZ-RI
    Molecular point group: c1

    Geometry (in Angstrom), charge = 0, multiplicity = 1:

       Center              X                  Y                   Z               Mass
    ------------   -----------------  -----------------  -----------------  -----------------
         C           -2.181142797450     0.015556962511     0.000005280295    12.000000000000
         C           -0.737929797450     0.039746062511    -0.000005319705    12.000000000000
         C            0.156060202550     1.132652962511     0.000008280295    12.000000000000
         C            1.314889202550    -0.748323037489     0.000001280295    12.000000000000
         N            0.046187202550    -1.128743037489    -0.000006719705    14.003074004430
         N            1.430221202550     0.611665962511    -0.000003719705    14.003074004430
         H           -2.560576797450    -0.507614037489    -0.882341719705     1.007825032230
         H           -2.586639797450     1.031277962511    -0.000001719705     1.007825032230
         H           -0.030511797450     2.197097962511    -0.000048719705     1.007825032230
         H            2.174860202550    -1.405231037489     0.000012280295     1.007825032230
         H            2.292247202550     1.141877962511     0.000040280295     1.007825032230
         H           -2.560559797450    -0.507593037489     0.882371280295     1.007825032230

  Basis Set: AUG-CC-PVTZ
    Blend: AUG-CC-PVTZ
  Basis Set: (AUG-CC-PVTZ AUX)
    Blend: AUG-CC-PVTZ-JKFIT
	 Reference Energy          =    -263.9438817755026889 [Eh]
	 Singles Energy            =      -0.0000000000000000 [Eh]
	 Same-Spin Energy          =      -0.2876591416821814 [Eh]
	 Opposite-Spin Energy      =      -0.8983116793366417 [Eh]
	 Correlation Energy        =      -1.1859708210188231 [Eh]
	 Total Energy              =    -265.1298525965215163 [Eh]

	 ================> DF-SCS-MP2 Energies <==================
	-----------------------------------------------------------
	 SCS Same-Spin Scale       =       0.3333333333333333 [-]
	 SCS Opposite-Spin Scale   =       1.2000000000000000 [-]
	 SCS Same-Spin Energy      =      -0.0958863805607271 [Eh]
	 SCS Opposite-Spin Energy  =      -1.0779740152039701 [Eh]
	 SCS Correlation Energy    =      -1.1738603957646971 [Eh]
	 SCS Total Energy          =    -265.1177421712673663 [Eh]
	-----------------------------------------------------------

  Dipole Moment: [D]
     X:     1.9692      Y:     2.8423      Z:     0.0000     Total:     3.4578

*** Psi4 exiting successfully. Buy a developer a beer!
