                               Psi4 1.3.2 release

  ==> Input File <==

--------------------------------------------------------------------------
#psi4
#
memory 32 gb

molecule  {
0 1
  C       -2.1511020    -0.0065270     0.0000480
  C       -0.6578330     0.0187880    -0.0000310
  C        0.1863670     1.1106040    -0.0000190
  C        1.3448400    -0.7705710    -0.0000450
  N        0.2676890    -1.0933751    -0.0000391
  N        1.4605000     0.5893150     0.0000860
  H       -2.5302630    -0.5301450    -0.8821160
  H       -2.5568780     1.0090980    -0.0003890
  H        0.0003360     2.1751570    -0.0003990
  H        2.2046270    -1.4277370     0.0000190
  H        2.3225060     1.1195640     0.0001590
  H       -2.5302120    -0.5293840     0.8826800
units angstrom
no_reorient  #important for SAPT in psi4, default
symmetry c1  #important for SAPT in psi4, default
}

set PROPERTIES_ORIGIN ["COM"]
properties('MP2/aug-cc-pvtz', properties = ['dipole'])
--------------------------------------------------------------------------

    Molecular point group: c1
  Charge       = 0
  Multiplicity = 1
  Basis Set: AUG-CC-PVTZ
    Blend: AUG-CC-PVTZ
  Basis Set: (AUG-CC-PVTZ AUX)
    Blend: AUG-CC-PVTZ-JKFIT

    Orbital Energies [Eh]
    ---------------------

    Doubly Occupied:

       1A    -15.591713     2A    -15.514330     3A    -11.261601
       4A    -11.259895     5A    -11.251845     6A    -11.223373
       7A     -1.364632     8A     -1.176111     9A     -1.045403
      10A     -0.936476    11A     -0.796197    12A     -0.785809
      13A     -0.735977    14A     -0.620774    15A     -0.615798
      16A     -0.596559    17A     -0.555332    18A     -0.551853
      19A     -0.533721    20A     -0.409846    21A     -0.405354
      22A     -0.314588

  @DF-RHF Final Energy:  -263.90295638814212

   => Energetics <=

    Nuclear Repulsion Energy =            226.7684037382775273
    One-Electron Energy =                -806.2483439216274519
    Two-Electron Energy =                 315.5769837952078660
    Total Energy =                       -263.9029563881421154
  Basis Set: (AUG-CC-PVTZ AUX)
    Blend: AUG-CC-PVTZ-RI
    Molecular point group: c1

    Geometry (in Angstrom), charge = 0, multiplicity = 1:

       Center              X                  Y                   Z               Mass
    ------------   -----------------  -----------------  -----------------  -----------------
         C           -2.221217085777     0.005661391653     0.000047434705    12.000000000000
         C           -0.727948085777     0.030976391653    -0.000031565295    12.000000000000
         C            0.116251914223     1.122792391653    -0.000019565295    12.000000000000
         C            1.274724914223    -0.758382608347    -0.000045565295    12.000000000000
         N            0.197573914223    -1.081186708347    -0.000039665295    14.003074004430
         N            1.390384914223     0.601503391653     0.000085434705    14.003074004430
         H           -2.600378085777    -0.517956608347    -0.882116565295     1.007825032230
         H           -2.626993085777     1.021286391653    -0.000389565295     1.007825032230
         H           -0.069779085777     2.187345391653    -0.000399565295     1.007825032230
         H            2.134511914223    -1.415548608347     0.000018434705     1.007825032230
         H            2.252390914223     1.131752391653     0.000158434705     1.007825032230
         H           -2.600327085777    -0.517195608347     0.882679434705     1.007825032230

  Basis Set: AUG-CC-PVTZ
    Blend: AUG-CC-PVTZ
  Basis Set: (AUG-CC-PVTZ AUX)
    Blend: AUG-CC-PVTZ-JKFIT
	 Reference Energy          =    -263.9029563881421154 [Eh]
	 Singles Energy            =      -0.0000000000000000 [Eh]
	 Same-Spin Energy          =      -0.2829265895780649 [Eh]
	 Opposite-Spin Energy      =      -0.8899921030024402 [Eh]
	 Correlation Energy        =      -1.1729186925805051 [Eh]
	 Total Energy              =    -265.0758750807225965 [Eh]

	 ================> DF-SCS-MP2 Energies <==================
	-----------------------------------------------------------
	 SCS Same-Spin Scale       =       0.3333333333333333 [-]
	 SCS Opposite-Spin Scale   =       1.2000000000000000 [-]
	 SCS Same-Spin Energy      =      -0.0943088631926883 [Eh]
	 SCS Opposite-Spin Energy  =      -1.0679905236029283 [Eh]
	 SCS Correlation Energy    =      -1.1622993867956166 [Eh]
	 SCS Total Energy          =    -265.0652557749377252 [Eh]
	-----------------------------------------------------------

  Dipole Moment: [D]
     X:     1.4603      Y:     2.4883      Z:    -0.0001     Total:     2.8852

*** Psi4 exiting successfully. Buy a developer a beer!
