                               Psi4 1.3.2 release

  ==> Input File <==

--------------------------------------------------------------------------
#psi4
#
memory 32 gb

molecule  {
0 1
  C       -2.1493089    -0.0586259     0.0000452
  C       -0.6578330     0.0187880    -0.0000310
  C        0.1863670     1.1106040    -0.0000190
  C        1.3448400    -0.7705710    -0.0000450
  N        0.0761070    -1.1507890    -0.0000380
  N        1.4605000     0.5893150     0.0000860
  H       -2.5302630    -0.5301450    -0.8821160
  H       -2.5568780     1.0090980    -0.0003890
  H        0.0003360     2.1751570    -0.0003990
  H        2.2046270    -1.4277370     0.0000190
  H        2.3225060     1.1195640     0.0001590
  H       -2.5302120    -0.5293840     0.8826800
units angstrom
no_reorient  #important for SAPT in psi4, default
symmetry c1  #important for SAPT in psi4, default
}

set PROPERTIES_ORIGIN ["COM"]
properties('MP2/aug-cc-pvtz', properties = ['dipole'])
--------------------------------------------------------------------------

    Molecular point group: c1
  Charge       = 0
  Multiplicity = 1
  Basis Set: AUG-CC-PVTZ
    Blend: AUG-CC-PVTZ
  Basis Set: (AUG-CC-PVTZ AUX)
    Blend: AUG-CC-PVTZ-JKFIT

    Orbital Energies [Eh]
    ---------------------

    Doubly Occupied:

       1A    -15.620615     2A    -15.541314     3A    -11.297229
       4A    -11.255128     5A    -11.248462     6A    -11.216044
       7A     -1.334722     8A     -1.164450     9A     -1.028672
      10A     -0.937821    11A     -0.823768    12A     -0.768990
      13A     -0.736356    14A     -0.614858    15A     -0.606278
      16A     -0.596796    17A     -0.559696    18A     -0.544423
      19A     -0.507106    20A     -0.433844    21A     -0.391827
      22A     -0.310354

  @DF-RHF Final Energy:  -263.94682531764397

   => Energetics <=

    Nuclear Repulsion Energy =            223.8099825109182461
    One-Electron Energy =                -800.4361077987730368
    Two-Electron Energy =                 312.6792999702108773
    Total Energy =                       -263.9468253176439703
  Basis Set: (AUG-CC-PVTZ AUX)
    Blend: AUG-CC-PVTZ-RI
    Molecular point group: c1

    Geometry (in Angstrom), charge = 0, multiplicity = 1:

       Center              X                  Y                   Z               Mass
    ------------   -----------------  -----------------  -----------------  -----------------
         C           -2.186991088273    -0.029020032080     0.000044856471    12.000000000000
         C           -0.695515188273     0.048393867920    -0.000031343529    12.000000000000
         C            0.148684811727     1.140209867920    -0.000019343529    12.000000000000
         C            1.307157811727    -0.740965132080    -0.000045343529    12.000000000000
         N            0.038424811727    -1.121183132080    -0.000038343529    14.003074004430
         N            1.422817811727     0.618920867920     0.000085656471    14.003074004430
         H           -2.567945188273    -0.500539132080    -0.882116343529     1.007825032230
         H           -2.594560188273     1.038703867920    -0.000389343529     1.007825032230
         H           -0.037346188273     2.204762867920    -0.000399343529     1.007825032230
         H            2.166944811727    -1.398131132080     0.000018656471     1.007825032230
         H            2.284823811727     1.149169867920     0.000158656471     1.007825032230
         H           -2.567894188273    -0.499778132080     0.882679656471     1.007825032230

  Basis Set: AUG-CC-PVTZ
    Blend: AUG-CC-PVTZ
  Basis Set: (AUG-CC-PVTZ AUX)
    Blend: AUG-CC-PVTZ-JKFIT
	 Reference Energy          =    -263.9468253176439703 [Eh]
	 Singles Energy            =      -0.0000000000000000 [Eh]
	 Same-Spin Energy          =      -0.2868632608473505 [Eh]
	 Opposite-Spin Energy      =      -0.8970390281074738 [Eh]
	 Correlation Energy        =      -1.1839022889548243 [Eh]
	 Total Energy              =    -265.1307276065987821 [Eh]

	 ================> DF-SCS-MP2 Energies <==================
	-----------------------------------------------------------
	 SCS Same-Spin Scale       =       0.3333333333333333 [-]
	 SCS Opposite-Spin Scale   =       1.2000000000000000 [-]
	 SCS Same-Spin Energy      =      -0.0956210869491168 [Eh]
	 SCS Opposite-Spin Energy  =      -1.0764468337289685 [Eh]
	 SCS Correlation Energy    =      -1.1720679206780853 [Eh]
	 SCS Total Energy          =    -265.1188932383220731 [Eh]
	-----------------------------------------------------------

  Dipole Moment: [D]
     X:     2.0930      Y:     2.8134      Z:    -0.0001     Total:     3.5065

*** Psi4 exiting successfully. Buy a developer a beer!
