                               Psi4 1.3.2 release

  ==> Input File <==

--------------------------------------------------------------------------
#psi4
#
memory 32 gb

molecule  {
0 1
  C       -2.1510758     0.0456028     0.0000507
  C       -0.6578330     0.0187880    -0.0000310
  C        0.1863670     1.1106040    -0.0000190
  C        1.3448400    -0.7705710    -0.0000450
  N        0.0761070    -1.1507890    -0.0000380
  N        1.4605000     0.5893150     0.0000860
  H       -2.5302630    -0.5301450    -0.8821160
  H       -2.5568780     1.0090980    -0.0003890
  H        0.0003360     2.1751570    -0.0003990
  H        2.2046270    -1.4277370     0.0000190
  H        2.3225060     1.1195640     0.0001590
  H       -2.5302120    -0.5293840     0.8826800
units angstrom
no_reorient  #important for SAPT in psi4, default
symmetry c1  #important for SAPT in psi4, default
}

set PROPERTIES_ORIGIN ["COM"]
properties('MP2/aug-cc-pvtz', properties = ['dipole'])
--------------------------------------------------------------------------

    Molecular point group: c1
  Charge       = 0
  Multiplicity = 1
  Basis Set: AUG-CC-PVTZ
    Blend: AUG-CC-PVTZ
  Basis Set: (AUG-CC-PVTZ AUX)
    Blend: AUG-CC-PVTZ-JKFIT

    Orbital Energies [Eh]
    ---------------------

    Doubly Occupied:

       1A    -15.619892     2A    -15.542964     3A    -11.298067
       4A    -11.252588     5A    -11.248780     6A    -11.216453
       7A     -1.334376     8A     -1.163948     9A     -1.030539
      10A     -0.936477    11A     -0.824245    12A     -0.769282
      13A     -0.735593    14A     -0.621134    15A     -0.601563
      16A     -0.596604    17A     -0.542000    18A     -0.537151
      19A     -0.535401    20A     -0.432864    21A     -0.390958
      22A     -0.308013

  @DF-RHF Final Energy:  -263.94675825902289

   => Energetics <=

    Nuclear Repulsion Energy =            223.7693889431607488
    One-Electron Energy =                -800.3545128356589657
    Two-Electron Energy =                 312.6383656334753596
    Total Energy =                       -263.9467582590228858
  Basis Set: (AUG-CC-PVTZ AUX)
    Blend: AUG-CC-PVTZ-RI
    Molecular point group: c1

    Geometry (in Angstrom), charge = 0, multiplicity = 1:

       Center              X                  Y                   Z               Mass
    ------------   -----------------  -----------------  -----------------  -----------------
         C           -2.188499584868     0.059965557941     0.000049552114    12.000000000000
         C           -0.695256784868     0.033150757941    -0.000032147886    12.000000000000
         C            0.148943215132     1.124966757941    -0.000020147886    12.000000000000
         C            1.307416215132    -0.756208242059    -0.000046147886    12.000000000000
         N            0.038683215132    -1.136426242059    -0.000039147886    14.003074004430
         N            1.423076215132     0.603677757941     0.000084852114    14.003074004430
         H           -2.567686784868    -0.515782242059    -0.882117147886     1.007825032230
         H           -2.594301784868     1.023460757941    -0.000390147886     1.007825032230
         H           -0.037087784868     2.189519757941    -0.000400147886     1.007825032230
         H            2.167203215132    -1.413374242059     0.000017852114     1.007825032230
         H            2.285082215132     1.133926757941     0.000157852114     1.007825032230
         H           -2.567635784868    -0.515021242059     0.882678852114     1.007825032230

  Basis Set: AUG-CC-PVTZ
    Blend: AUG-CC-PVTZ
  Basis Set: (AUG-CC-PVTZ AUX)
    Blend: AUG-CC-PVTZ-JKFIT
	 Reference Energy          =    -263.9467582590228858 [Eh]
	 Singles Energy            =      -0.0000000000000000 [Eh]
	 Same-Spin Energy          =      -0.2868893395857922 [Eh]
	 Opposite-Spin Energy      =      -0.8968761867699080 [Eh]
	 Correlation Energy        =      -1.1837655263557001 [Eh]
	 Total Energy              =    -265.1305237853786139 [Eh]

	 ================> DF-SCS-MP2 Energies <==================
	-----------------------------------------------------------
	 SCS Same-Spin Scale       =       0.3333333333333333 [-]
	 SCS Opposite-Spin Scale   =       1.2000000000000000 [-]
	 SCS Same-Spin Energy      =      -0.0956297798619307 [Eh]
	 SCS Opposite-Spin Energy  =      -1.0762514241238896 [Eh]
	 SCS Correlation Energy    =      -1.1718812039858204 [Eh]
	 SCS Total Energy          =    -265.1186394630087193 [Eh]
	-----------------------------------------------------------

  Dipole Moment: [D]
     X:     2.0616      Y:     2.8641      Z:    -0.0001     Total:     3.5290

*** Psi4 exiting successfully. Buy a developer a beer!
