                               Psi4 1.3.2 release

  ==> Input File <==

--------------------------------------------------------------------------
#psi4
#
memory 32 gb

molecule  {
0 1
  C       -2.1456986    -0.1106305     0.0000422
  C       -0.6578330     0.0187880    -0.0000310
  C        0.1863670     1.1106040    -0.0000190
  C        1.3448400    -0.7705710    -0.0000450
  N        0.0761070    -1.1507890    -0.0000380
  N        1.4605000     0.5893150     0.0000860
  H       -2.5302630    -0.5301450    -0.8821160
  H       -2.5568780     1.0090980    -0.0003890
  H        0.0003360     2.1751570    -0.0003990
  H        2.2046270    -1.4277370     0.0000190
  H        2.3225060     1.1195640     0.0001590
  H       -2.5302120    -0.5293840     0.8826800
units angstrom
no_reorient  #important for SAPT in psi4, default
symmetry c1  #important for SAPT in psi4, default
}

set PROPERTIES_ORIGIN ["COM"]
properties('MP2/aug-cc-pvtz', properties = ['dipole'])
--------------------------------------------------------------------------

    Molecular point group: c1
  Charge       = 0
  Multiplicity = 1
  Basis Set: AUG-CC-PVTZ
    Blend: AUG-CC-PVTZ
  Basis Set: (AUG-CC-PVTZ AUX)
    Blend: AUG-CC-PVTZ-JKFIT

    Orbital Energies [Eh]
    ---------------------

    Doubly Occupied:

       1A    -15.621148     2A    -15.540733     3A    -11.297013
       4A    -11.256580     5A    -11.248889     6A    -11.217264
       7A     -1.335111     8A     -1.164988     9A     -1.028238
      10A     -0.939152    11A     -0.823806    12A     -0.769383
      13A     -0.737325    14A     -0.613335    15A     -0.610578
      16A     -0.597090    17A     -0.568983    18A     -0.547573
      19A     -0.488650    20A     -0.434463    21A     -0.392378
      22A     -0.311506

  @DF-RHF Final Energy:  -263.93884043679481

   => Energetics <=

    Nuclear Repulsion Energy =            223.8473161355006766
    One-Electron Energy =                -800.4839413914047554
    Two-Electron Energy =                 312.6977848191092448
    Total Energy =                       -263.9388404367948056
  Basis Set: (AUG-CC-PVTZ AUX)
    Blend: AUG-CC-PVTZ-RI
    Molecular point group: c1

    Geometry (in Angstrom), charge = 0, multiplicity = 1:

       Center              X                  Y                   Z               Mass
    ------------   -----------------  -----------------  -----------------  -----------------
         C           -2.183908782961    -0.073419127673     0.000042295212    12.000000000000
         C           -0.696043182961     0.055999372327    -0.000030904788    12.000000000000
         C            0.148156817039     1.147815372327    -0.000018904788    12.000000000000
         C            1.306629817039    -0.733359627673    -0.000044904788    12.000000000000
         N            0.037896817039    -1.113577627673    -0.000037904788    14.003074004430
         N            1.422289817039     0.626526372327     0.000086095212    14.003074004430
         H           -2.568473182961    -0.492933627673    -0.882115904788     1.007825032230
         H           -2.595088182961     1.046309372327    -0.000388904788     1.007825032230
         H           -0.037874182961     2.212368372327    -0.000398904788     1.007825032230
         H            2.166416817039    -1.390525627673     0.000019095212     1.007825032230
         H            2.284295817039     1.156775372327     0.000159095212     1.007825032230
         H           -2.568422182961    -0.492172627673     0.882680095212     1.007825032230

  Basis Set: AUG-CC-PVTZ
    Blend: AUG-CC-PVTZ
  Basis Set: (AUG-CC-PVTZ AUX)
    Blend: AUG-CC-PVTZ-JKFIT
	 Reference Energy          =    -263.9388404367948056 [Eh]
	 Singles Energy            =      -0.0000000000000000 [Eh]
	 Same-Spin Energy          =      -0.2869929359338508 [Eh]
	 Opposite-Spin Energy      =      -0.8975051422132712 [Eh]
	 Correlation Energy        =      -1.1844980781471219 [Eh]
	 Total Energy              =    -265.1233385149419064 [Eh]

	 ================> DF-SCS-MP2 Energies <==================
	-----------------------------------------------------------
	 SCS Same-Spin Scale       =       0.3333333333333333 [-]
	 SCS Opposite-Spin Scale   =       1.2000000000000000 [-]
	 SCS Same-Spin Energy      =      -0.0956643119779503 [Eh]
	 SCS Opposite-Spin Energy  =      -1.0770061706559253 [Eh]
	 SCS Correlation Energy    =      -1.1726704826338756 [Eh]
	 SCS Total Energy          =    -265.1115109194286674 [Eh]
	-----------------------------------------------------------

  Dipole Moment: [D]
     X:     2.1242      Y:     2.7794      Z:    -0.0001     Total:     3.4982

*** Psi4 exiting successfully. Buy a developer a beer!
