                               Psi4 1.3.2 release

  ==> Input File <==

--------------------------------------------------------------------------
#psi4
#
memory 32 gb

molecule  {
0 1
  C       -2.1511020    -0.0065270     0.0000480
  C       -0.6578330     0.0187880    -0.0000310
  C        0.1671836     1.1251710    -0.0000189
  C        1.3448400    -0.7705710    -0.0000450
  N        0.0761070    -1.1507890    -0.0000380
  N        1.4605000     0.5893150     0.0000860
  H       -2.5302630    -0.5301450    -0.8821160
  H       -2.5568780     1.0090980    -0.0003890
  H        0.0003360     2.1751570    -0.0003990
  H        2.2046270    -1.4277370     0.0000190
  H        2.3225060     1.1195640     0.0001590
  H       -2.5302120    -0.5293840     0.8826800
units angstrom
no_reorient  #important for SAPT in psi4, default
symmetry c1  #important for SAPT in psi4, default
}

set PROPERTIES_ORIGIN ["COM"]
properties('MP2/aug-cc-pvtz', properties = ['dipole'])
--------------------------------------------------------------------------

    Molecular point group: c1
  Charge       = 0
  Multiplicity = 1
  Basis Set: AUG-CC-PVTZ
    Blend: AUG-CC-PVTZ
  Basis Set: (AUG-CC-PVTZ AUX)
    Blend: AUG-CC-PVTZ-JKFIT

    Orbital Energies [Eh]
    ---------------------

    Doubly Occupied:

       1A    -15.619072     2A    -15.541938     3A    -11.299535
       4A    -11.253794     5A    -11.250386     6A    -11.215628
       7A     -1.329598     8A     -1.161347     9A     -1.030517
      10A     -0.936261    11A     -0.823403    12A     -0.770033
      13A     -0.732405    14A     -0.618659    15A     -0.600932
      16A     -0.599247    17A     -0.547886    18A     -0.538626
      19A     -0.525292    20A     -0.434081    21A     -0.389900
      22A     -0.311146

  @DF-RHF Final Energy:  -263.94893205525710

   => Energetics <=

    Nuclear Repulsion Energy =            223.4408393397380905
    One-Electron Energy =                -799.7201709663385145
    Two-Electron Energy =                 312.3303995713433210
    Total Energy =                       -263.9489320552571030
  Basis Set: (AUG-CC-PVTZ AUX)
    Blend: AUG-CC-PVTZ-RI
    Molecular point group: c1

    Geometry (in Angstrom), charge = 0, multiplicity = 1:

       Center              X                  Y                   Z               Mass
    ------------   -----------------  -----------------  -----------------  -----------------
         C           -2.185716443050     0.013329195847     0.000047232356    12.000000000000
         C           -0.692447443050     0.038644195847    -0.000031767644    12.000000000000
         C            0.132569156950     1.145027195847    -0.000019667644    12.000000000000
         C            1.310225556950    -0.750714804153    -0.000045767644    12.000000000000
         N            0.041492556950    -1.130932804153    -0.000038767644    14.003074004430
         N            1.425885556950     0.609171195847     0.000085232356    14.003074004430
         H           -2.564877443050    -0.510288804153    -0.882116767644     1.007825032230
         H           -2.591492443050     1.028954195847    -0.000389767644     1.007825032230
         H           -0.034278443050     2.195013195847    -0.000399767644     1.007825032230
         H            2.170012556950    -1.407880804153     0.000018232356     1.007825032230
         H            2.287891556950     1.139420195847     0.000158232356     1.007825032230
         H           -2.564826443050    -0.509527804153     0.882679232356     1.007825032230

  Basis Set: AUG-CC-PVTZ
    Blend: AUG-CC-PVTZ
  Basis Set: (AUG-CC-PVTZ AUX)
    Blend: AUG-CC-PVTZ-JKFIT
	 Reference Energy          =    -263.9489320552571030 [Eh]
	 Singles Energy            =      -0.0000000000000000 [Eh]
	 Same-Spin Energy          =      -0.2866385524636867 [Eh]
	 Opposite-Spin Energy      =      -0.8969264286403351 [Eh]
	 Correlation Energy        =      -1.1835649811040219 [Eh]
	 Total Energy              =    -265.1324970363611442 [Eh]

	 ================> DF-SCS-MP2 Energies <==================
	-----------------------------------------------------------
	 SCS Same-Spin Scale       =       0.3333333333333333 [-]
	 SCS Opposite-Spin Scale   =       1.2000000000000000 [-]
	 SCS Same-Spin Energy      =      -0.0955461841545622 [Eh]
	 SCS Opposite-Spin Energy  =      -1.0763117143684020 [Eh]
	 SCS Correlation Energy    =      -1.1718578985229642 [Eh]
	 SCS Total Energy          =    -265.1207899537800472 [Eh]
	-----------------------------------------------------------

  Dipole Moment: [D]
     X:     2.0514      Y:     2.8236      Z:    -0.0001     Total:     3.4901

*** Psi4 exiting successfully. Buy a developer a beer!
