                               Psi4 1.4a3.dev225

  ==> Input File <==

--------------------------------------------------------------------------
#psi4
#
memory 32 gb

molecule  {
0 1
  C       -2.1510270    -0.0065590     0.0000050
  C       -0.6578210     0.0184680    -0.0000060
  C        0.1861760     1.1105370     0.0000080
  C        1.3450050    -0.7704390     0.0000010
  N        0.0869373    -1.1677975    -0.0000070
  N        1.4603370     0.5895500    -0.0000040
  H       -2.5304610    -0.5297300    -0.8823420
  H       -2.5565240     1.0091620    -0.0000020
  H       -0.0003960     2.1749820    -0.0000490
  H        2.2049760    -1.4273470     0.0000120
  H        2.3223630     1.1197620     0.0000400
  H       -2.5304440    -0.5297090     0.8823710
units angstrom
no_reorient  #important for SAPT in psi4, default
symmetry c1  #important for SAPT in psi4, default
}

set PROPERTIES_ORIGIN ["COM"]
properties('MP2/aug-cc-pvtz', properties = ['dipole'])
--------------------------------------------------------------------------

    Molecular point group: c1
  Charge       = 0
  Multiplicity = 1
  Basis Set: AUG-CC-PVTZ
    Blend: AUG-CC-PVTZ
  Basis Set: (AUG-CC-PVTZ AUX)
    Blend: AUG-CC-PVTZ-JKFIT

    Orbital Energies [Eh]
    ---------------------

    Doubly Occupied:

       1A    -15.619055     2A    -15.543679     3A    -11.297453
       4A    -11.254935     5A    -11.250219     6A    -11.216278
       7A     -1.332910     8A     -1.162030     9A     -1.030496
      10A     -0.936725    11A     -0.821394    12A     -0.769704
      13A     -0.735307    14A     -0.615658    15A     -0.602622
      16A     -0.596993    17A     -0.549110    18A     -0.539602
      19A     -0.524131    20A     -0.435144    21A     -0.390350
      22A     -0.310412

  @DF-RHF Final Energy:  -263.94936448512425

   => Energetics <=

    Nuclear Repulsion Energy =            223.4384441465611246
    One-Electron Energy =                -799.7071997026379222
    Two-Electron Energy =                 312.3193910709525767
    Total Energy =                       -263.9493644851242493
  Basis Set: (AUG-CC-PVTZ AUX)
    Blend: AUG-CC-PVTZ-RI
    Molecular point group: c1

    Geometry (in Angstrom), charge = 0, multiplicity = 1:

       Center              X                  Y                   Z               Mass
    ------------   -----------------  -----------------  -----------------  -----------------
         C           -2.190268947544     0.018325124519     0.000005338794    12.000000000000
         C           -0.697062947544     0.043352124519    -0.000005661206    12.000000000000
         C            0.146934052456     1.135421124519     0.000008338794    12.000000000000
         C            1.305763052456    -0.745554875481     0.000001338794    12.000000000000
         N            0.047695352456    -1.142913375481    -0.000006661206    14.003074004430
         N            1.421095052456     0.614434124519    -0.000003661206    14.003074004430
         H           -2.569702947544    -0.504845875481    -0.882341661206     1.007825032230
         H           -2.595765947544     1.034046124519    -0.000001661206     1.007825032230
         H           -0.039637947544     2.199866124519    -0.000048661206     1.007825032230
         H            2.165734052456    -1.402462875481     0.000012338794     1.007825032230
         H            2.283121052456     1.144646124519     0.000040338794     1.007825032230
         H           -2.569685947544    -0.504824875481     0.882371338794     1.007825032230

  Basis Set: AUG-CC-PVTZ
    Blend: AUG-CC-PVTZ
  Basis Set: (AUG-CC-PVTZ AUX)
    Blend: AUG-CC-PVTZ-JKFIT
	 Reference Energy          =    -263.9493644851242493 [Eh]
	 Singles Energy            =      -0.0000000000000000 [Eh]
	 Same-Spin Energy          =      -0.2865735755530476 [Eh]
	 Opposite-Spin Energy      =      -0.8968544565144008 [Eh]
	 Correlation Energy        =      -1.1834280320674484 [Eh]
	 Total Energy              =    -265.1327925171917173 [Eh]

	 ================> DF-SCS-MP2 Energies <==================
	-----------------------------------------------------------
	 SCS Same-Spin Scale       =       0.3333333333333333 [-]
	 SCS Opposite-Spin Scale   =       1.2000000000000000 [-]
	 SCS Same-Spin Energy      =      -0.0955245251843492 [Eh]
	 SCS Opposite-Spin Energy  =      -1.0762253478172810 [Eh]
	 SCS Correlation Energy    =      -1.1717498730016302 [Eh]
	 SCS Total Energy          =    -265.1211143581258511 [Eh]
	-----------------------------------------------------------

  Dipole Moment: [D]
     X:     2.0472      Y:     2.8697      Z:     0.0000     Total:     3.5251

*** Psi4 exiting successfully. Buy a developer a beer!
