                               Psi4 1.4a3.dev225

  ==> Input File <==

--------------------------------------------------------------------------
#psi4
#
memory 32 gb

molecule  {
0 1
  C       -2.1510270    -0.0065590     0.0000050
  C       -0.6778182     0.0181328    -0.0000059
  C        0.1861760     1.1105370     0.0000080
  C        1.3450050    -0.7704390     0.0000010
  N        0.0763030    -1.1508590    -0.0000070
  N        1.4603370     0.5895500    -0.0000040
  H       -2.5304610    -0.5297300    -0.8823420
  H       -2.5565240     1.0091620    -0.0000020
  H       -0.0003960     2.1749820    -0.0000490
  H        2.2049760    -1.4273470     0.0000120
  H        2.3223630     1.1197620     0.0000400
  H       -2.5304440    -0.5297090     0.8823710
units angstrom
no_reorient  #important for SAPT in psi4, default
symmetry c1  #important for SAPT in psi4, default
}

set PROPERTIES_ORIGIN ["COM"]
properties('MP2/aug-cc-pvtz', properties = ['dipole'])
--------------------------------------------------------------------------

    Molecular point group: c1
  Charge       = 0
  Multiplicity = 1
  Basis Set: AUG-CC-PVTZ
    Blend: AUG-CC-PVTZ
  Basis Set: (AUG-CC-PVTZ AUX)
    Blend: AUG-CC-PVTZ-JKFIT

    Orbital Energies [Eh]
    ---------------------

    Doubly Occupied:

       1A    -15.620361     2A    -15.542281     3A    -11.297193
       4A    -11.255621     5A    -11.250128     6A    -11.215641
       7A     -1.331983     8A     -1.162114     9A     -1.031458
      10A     -0.938082    11A     -0.821934    12A     -0.768187
      13A     -0.736004    14A     -0.617384    15A     -0.602723
      16A     -0.595641    17A     -0.550309    18A     -0.546191
      19A     -0.525522    20A     -0.430377    21A     -0.389806
      22A     -0.307180

  @DF-RHF Final Energy:  -263.94836079067107

   => Energetics <=

    Nuclear Repulsion Energy =            223.5694864798210233
    One-Electron Energy =                -799.9634599622115729
    Two-Electron Energy =                 312.4456126917194183
    Total Energy =                       -263.9483607906710745
  Basis Set: (AUG-CC-PVTZ AUX)
    Blend: AUG-CC-PVTZ-RI
    Molecular point group: c1

    Geometry (in Angstrom), charge = 0, multiplicity = 1:

       Center              X                  Y                   Z               Mass
    ------------   -----------------  -----------------  -----------------  -----------------
         C           -2.185529586101     0.015483444264     0.000005324169    12.000000000000
         C           -0.712320786101     0.040175244264    -0.000005575831    12.000000000000
         C            0.151673413899     1.132579444264     0.000008324169    12.000000000000
         C            1.310502413899    -0.748396555736     0.000001324169    12.000000000000
         N            0.041800413899    -1.128816555736    -0.000006675831    14.003074004430
         N            1.425834413899     0.611592444264    -0.000003675831    14.003074004430
         H           -2.564963586101    -0.507687555736    -0.882341675831     1.007825032230
         H           -2.591026586101     1.031204444264    -0.000001675831     1.007825032230
         H           -0.034898586101     2.197024444264    -0.000048675831     1.007825032230
         H            2.170473413899    -1.405304555736     0.000012324169     1.007825032230
         H            2.287860413899     1.141804444264     0.000040324169     1.007825032230
         H           -2.564946586101    -0.507666555736     0.882371324169     1.007825032230

  Basis Set: AUG-CC-PVTZ
    Blend: AUG-CC-PVTZ
  Basis Set: (AUG-CC-PVTZ AUX)
    Blend: AUG-CC-PVTZ-JKFIT
	 Reference Energy          =    -263.9483607906710745 [Eh]
	 Singles Energy            =      -0.0000000000000000 [Eh]
	 Same-Spin Energy          =      -0.2871284363246295 [Eh]
	 Opposite-Spin Energy      =      -0.8973595528745694 [Eh]
	 Correlation Energy        =      -1.1844879891991988 [Eh]
	 Total Energy              =    -265.1328487798703009 [Eh]

	 ================> DF-SCS-MP2 Energies <==================
	-----------------------------------------------------------
	 SCS Same-Spin Scale       =       0.3333333333333333 [-]
	 SCS Opposite-Spin Scale   =       1.2000000000000000 [-]
	 SCS Same-Spin Energy      =      -0.0957094787748765 [Eh]
	 SCS Opposite-Spin Energy  =      -1.0768314634494831 [Eh]
	 SCS Correlation Energy    =      -1.1725409422243596 [Eh]
	 SCS Total Energy          =    -265.1209017328954474 [Eh]
	-----------------------------------------------------------

  Dipole Moment: [D]
     X:     2.0305      Y:     2.8424      Z:     0.0000     Total:     3.4932

*** Psi4 exiting successfully. Buy a developer a beer!
