                               Psi4 1.4a3.dev225

  ==> Input File <==

--------------------------------------------------------------------------
#psi4
#
memory 32 gb

molecule  {
0 1
  C       -2.1510270    -0.0065590     0.0000050
  C       -0.6578210     0.0184680    -0.0000060
  C        0.1861760     1.1105370     0.0000080
  C        1.3450050    -0.7704390     0.0000010
  N        0.0763030    -1.1508590    -0.0000070
  N        1.4788493     0.5819806    -0.0000042
  H       -2.5304610    -0.5297300    -0.8823420
  H       -2.5565240     1.0091620    -0.0000020
  H       -0.0003960     2.1749820    -0.0000490
  H        2.2049760    -1.4273470     0.0000120
  H        2.3223630     1.1197620     0.0000400
  H       -2.5304440    -0.5297090     0.8823710
units angstrom
no_reorient  #important for SAPT in psi4, default
symmetry c1  #important for SAPT in psi4, default
}

set PROPERTIES_ORIGIN ["COM"]
properties('MP2/aug-cc-pvtz', properties = ['dipole'])
--------------------------------------------------------------------------

    Molecular point group: c1
  Charge       = 0
  Multiplicity = 1
  Basis Set: AUG-CC-PVTZ
    Blend: AUG-CC-PVTZ
  Basis Set: (AUG-CC-PVTZ AUX)
    Blend: AUG-CC-PVTZ-JKFIT

    Orbital Energies [Eh]
    ---------------------

    Doubly Occupied:

       1A    -15.619162     2A    -15.541632     3A    -11.298851
       4A    -11.254520     5A    -11.250159     6A    -11.216571
       7A     -1.332244     8A     -1.164345     9A     -1.029235
      10A     -0.936782    11A     -0.827640    12A     -0.768115
      13A     -0.734855    14A     -0.618538    15A     -0.602235
      16A     -0.594082    17A     -0.549080    18A     -0.541532
      19A     -0.525483    20A     -0.433378    21A     -0.390795
      22A     -0.310728

  @DF-RHF Final Energy:  -263.94972503178980

   => Energetics <=

    Nuclear Repulsion Energy =            223.5210721632001309
    One-Electron Energy =                -799.8616750343926469
    Two-Electron Energy =                 312.3908778394026626
    Total Energy =                       -263.9497250317897965
  Basis Set: (AUG-CC-PVTZ AUX)
    Blend: AUG-CC-PVTZ-RI
    Molecular point group: c1

    Geometry (in Angstrom), charge = 0, multiplicity = 1:

       Center              X                  Y                   Z               Mass
    ------------   -----------------  -----------------  -----------------  -----------------
         C           -2.191613396681     0.016726206214     0.000005372925    12.000000000000
         C           -0.698407396681     0.041753206214    -0.000005627075    12.000000000000
         C            0.145589603319     1.133822206214     0.000008372925    12.000000000000
         C            1.304418603319    -0.747153793786     0.000001372925    12.000000000000
         N            0.035716603319    -1.127573793786    -0.000006627075    14.003074004430
         N            1.438262903319     0.605265806214    -0.000003827075    14.003074004430
         H           -2.571047396681    -0.506444793786    -0.882341627075     1.007825032230
         H           -2.597110396681     1.032447206214    -0.000001627075     1.007825032230
         H           -0.040982396681     2.198267206214    -0.000048627075     1.007825032230
         H            2.164389603319    -1.404061793786     0.000012372925     1.007825032230
         H            2.281776603319     1.143047206214     0.000040372925     1.007825032230
         H           -2.571030396681    -0.506423793786     0.882371372925     1.007825032230

  Basis Set: AUG-CC-PVTZ
    Blend: AUG-CC-PVTZ
  Basis Set: (AUG-CC-PVTZ AUX)
    Blend: AUG-CC-PVTZ-JKFIT
	 Reference Energy          =    -263.9497250317897965 [Eh]
	 Singles Energy            =      -0.0000000000000000 [Eh]
	 Same-Spin Energy          =      -0.2865144102764996 [Eh]
	 Opposite-Spin Energy      =      -0.8966133360032674 [Eh]
	 Correlation Energy        =      -1.1831277462797671 [Eh]
	 Total Energy              =    -265.1328527780695481 [Eh]

	 ================> DF-SCS-MP2 Energies <==================
	-----------------------------------------------------------
	 SCS Same-Spin Scale       =       0.3333333333333333 [-]
	 SCS Opposite-Spin Scale   =       1.2000000000000000 [-]
	 SCS Same-Spin Energy      =      -0.0955048034254999 [Eh]
	 SCS Opposite-Spin Energy  =      -1.0759360032039209 [Eh]
	 SCS Correlation Energy    =      -1.1714408066294208 [Eh]
	 SCS Total Energy          =    -265.1211658384192447 [Eh]
	-----------------------------------------------------------

  Dipole Moment: [D]
     X:     2.0337      Y:     2.8267      Z:     0.0000     Total:     3.4823

*** Psi4 exiting successfully. Buy a developer a beer!
