                               Psi4 1.3.2 release

  ==> Input File <==

--------------------------------------------------------------------------
#psi4
#
memory 32 gb

molecule  {
0 1
  C       -2.1511020    -0.0065270     0.0000480
  C       -0.6954226     0.0489153    -0.0000347
  C        0.1863670     1.1106040    -0.0000190
  C        1.3448400    -0.7705710    -0.0000450
  N        0.0761070    -1.1507890    -0.0000380
  N        1.4605000     0.5893150     0.0000860
  H       -2.5302630    -0.5301450    -0.8821160
  H       -2.5568780     1.0090980    -0.0003890
  H        0.0003360     2.1751570    -0.0003990
  H        2.2046270    -1.4277370     0.0000190
  H        2.3225060     1.1195640     0.0001590
  H       -2.5302120    -0.5293840     0.8826800
units angstrom
no_reorient  #important for SAPT in psi4, default
symmetry c1  #important for SAPT in psi4, default
}

set PROPERTIES_ORIGIN ["COM"]
properties('MP2/aug-cc-pvtz', properties = ['dipole'])
--------------------------------------------------------------------------

    Molecular point group: c1
  Charge       = 0
  Multiplicity = 1
  Basis Set: AUG-CC-PVTZ
    Blend: AUG-CC-PVTZ
  Basis Set: (AUG-CC-PVTZ AUX)
    Blend: AUG-CC-PVTZ-JKFIT

    Orbital Energies [Eh]
    ---------------------

    Doubly Occupied:

       1A    -15.618259     2A    -15.542593     3A    -11.297620
       4A    -11.256415     5A    -11.250089     6A    -11.215699
       7A     -1.328446     8A     -1.154807     9A     -1.036054
      10A     -0.940863    11A     -0.817788    12A     -0.766148
      13A     -0.738170    14A     -0.616303    15A     -0.601825
      16A     -0.594626    17A     -0.553192    18A     -0.551452
      19A     -0.521639    20A     -0.427662    21A     -0.384640
      22A     -0.311316

  @DF-RHF Final Energy:  -263.94629102933879

   => Energetics <=

    Nuclear Repulsion Energy =            223.3305675391301577
    One-Electron Energy =                -799.5025097341665514
    Two-Electron Energy =                 312.2256511656976272
    Total Energy =                       -263.9462910293387949
  Basis Set: (AUG-CC-PVTZ AUX)
    Blend: AUG-CC-PVTZ-RI
    Molecular point group: c1

    Geometry (in Angstrom), charge = 0, multiplicity = 1:

       Center              X                  Y                   Z               Mass
    ------------   -----------------  -----------------  -----------------  -----------------
         C           -2.183024595883     0.011053552342     0.000047788093    12.000000000000
         C           -0.727345195883     0.066495852342    -0.000034911907    12.000000000000
         C            0.154444404117     1.128184552342    -0.000019211907    12.000000000000
         C            1.312917404117    -0.752990447658    -0.000045211907    12.000000000000
         N            0.044184404117    -1.133208447658    -0.000038211907    14.003074004430
         N            1.428577404117     0.606895552342     0.000085788093    14.003074004430
         H           -2.562185595883    -0.512564447658    -0.882116211907     1.007825032230
         H           -2.588800595883     1.026678552342    -0.000389211907     1.007825032230
         H           -0.031586595883     2.192737552342    -0.000399211907     1.007825032230
         H            2.172704404117    -1.410156447658     0.000018788093     1.007825032230
         H            2.290583404117     1.137144552342     0.000158788093     1.007825032230
         H           -2.562134595883    -0.511803447658     0.882679788093     1.007825032230

  Basis Set: AUG-CC-PVTZ
    Blend: AUG-CC-PVTZ
  Basis Set: (AUG-CC-PVTZ AUX)
    Blend: AUG-CC-PVTZ-JKFIT
	 Reference Energy          =    -263.9462910293387949 [Eh]
	 Singles Energy            =      -0.0000000000000000 [Eh]
	 Same-Spin Energy          =      -0.2868826674447285 [Eh]
	 Opposite-Spin Energy      =      -0.8975508415964331 [Eh]
	 Correlation Energy        =      -1.1844335090411615 [Eh]
	 Total Energy              =    -265.1307245383799795 [Eh]

	 ================> DF-SCS-MP2 Energies <==================
	-----------------------------------------------------------
	 SCS Same-Spin Scale       =       0.3333333333333333 [-]
	 SCS Opposite-Spin Scale   =       1.2000000000000000 [-]
	 SCS Same-Spin Energy      =      -0.0956275558149095 [Eh]
	 SCS Opposite-Spin Energy  =      -1.0770610099157196 [Eh]
	 SCS Correlation Energy    =      -1.1726885657306292 [Eh]
	 SCS Total Energy          =    -265.1189795950694474 [Eh]
	-----------------------------------------------------------

  Dipole Moment: [D]
     X:     1.9975      Y:     2.8488      Z:    -0.0001     Total:     3.4793

*** Psi4 exiting successfully. Buy a developer a beer!
