                               Psi4 1.3.2 release

  ==> Input File <==

--------------------------------------------------------------------------
#psi4
#
memory 32 gb

molecule  {
0 1
  C       -2.1511020    -0.0065270     0.0000480
  C       -0.6578330     0.0187880    -0.0000310
  C        0.1863670     1.1106040    -0.0000190
  C        1.3448400    -0.7705710    -0.0000450
  N        0.0433136    -1.0160874    -0.0000235
  N        1.4605000     0.5893150     0.0000860
  H       -2.5302630    -0.5301450    -0.8821160
  H       -2.5568780     1.0090980    -0.0003890
  H        0.0003360     2.1751570    -0.0003990
  H        2.2046270    -1.4277370     0.0000190
  H        2.3225060     1.1195640     0.0001590
  H       -2.5302120    -0.5293840     0.8826800
units angstrom
no_reorient  #important for SAPT in psi4, default
symmetry c1  #important for SAPT in psi4, default
}

set PROPERTIES_ORIGIN ["COM"]
properties('MP2/aug-cc-pvtz', properties = ['dipole'])
--------------------------------------------------------------------------

    Molecular point group: c1
  Charge       = 0
  Multiplicity = 1
  Basis Set: AUG-CC-PVTZ
    Blend: AUG-CC-PVTZ
  Basis Set: (AUG-CC-PVTZ AUX)
    Blend: AUG-CC-PVTZ-JKFIT

    Orbital Energies [Eh]
    ---------------------

    Doubly Occupied:

       1A    -15.623886     2A    -15.524683     3A    -11.292379
       4A    -11.246964     5A    -11.234377     6A    -11.213276
       7A     -1.353633     8A     -1.183165     9A     -1.025306
      10A     -0.938671    11A     -0.841105    12A     -0.764483
      13A     -0.738399    14A     -0.630997    15A     -0.612660
      16A     -0.592961    17A     -0.555453    18A     -0.547595
      19A     -0.529383    20A     -0.408918    21A     -0.404274
      22A     -0.300764

  @DF-RHF Final Energy:  -263.93311443104318

   => Energetics <=

    Nuclear Repulsion Energy =            226.9716876424974998
    One-Electron Energy =                -806.6829388885544176
    Two-Electron Energy =                 315.7781368150137382
    Total Energy =                       -263.9331144310431796
  Basis Set: (AUG-CC-PVTZ AUX)
    Blend: AUG-CC-PVTZ-RI
    Molecular point group: c1

    Geometry (in Angstrom), charge = 0, multiplicity = 1:

       Center              X                  Y                   Z               Mass
    ------------   -----------------  -----------------  -----------------  -----------------
         C           -2.182925474616    -0.007528425751     0.000044772429    12.000000000000
         C           -0.689656474616     0.017786574249    -0.000034227571    12.000000000000
         C            0.154543525384     1.109602574249    -0.000022227571    12.000000000000
         C            1.313016525384    -0.771572425751    -0.000048227571    12.000000000000
         N            0.011490125384    -1.017088825751    -0.000026727571    14.003074004430
         N            1.428676525384     0.588313574249     0.000082772429    14.003074004430
         H           -2.562086474616    -0.531146425751    -0.882119227571     1.007825032230
         H           -2.588701474616     1.008096574249    -0.000392227571     1.007825032230
         H           -0.031487474616     2.174155574249    -0.000402227571     1.007825032230
         H            2.172803525384    -1.428738425751     0.000015772429     1.007825032230
         H            2.290682525384     1.118562574249     0.000155772429     1.007825032230
         H           -2.562035474616    -0.530385425751     0.882676772429     1.007825032230

  Basis Set: AUG-CC-PVTZ
    Blend: AUG-CC-PVTZ
  Basis Set: (AUG-CC-PVTZ AUX)
    Blend: AUG-CC-PVTZ-JKFIT
	 Reference Energy          =    -263.9331144310431796 [Eh]
	 Singles Energy            =      -0.0000000000000000 [Eh]
	 Same-Spin Energy          =      -0.2882954493366615 [Eh]
	 Opposite-Spin Energy      =      -0.8962815551719965 [Eh]
	 Correlation Energy        =      -1.1845770045086579 [Eh]
	 Total Energy              =    -265.1176914355518193 [Eh]

	 ================> DF-SCS-MP2 Energies <==================
	-----------------------------------------------------------
	 SCS Same-Spin Scale       =       0.3333333333333333 [-]
	 SCS Opposite-Spin Scale   =       1.2000000000000000 [-]
	 SCS Same-Spin Energy      =      -0.0960984831122205 [Eh]
	 SCS Opposite-Spin Energy  =      -1.0755378662063957 [Eh]
	 SCS Correlation Energy    =      -1.1716363493186162 [Eh]
	 SCS Total Energy          =    -265.1047507803617691 [Eh]
	-----------------------------------------------------------

  Dipole Moment: [D]
     X:     2.1271      Y:     2.5376      Z:    -0.0001     Total:     3.3112

*** Psi4 exiting successfully. Buy a developer a beer!
