                               Psi4 1.3.2 release

  ==> Input File <==

--------------------------------------------------------------------------
#psi4
#
memory 32 gb

molecule  {
0 1
  C       -2.1511020    -0.0065270     0.0000480
  C       -0.6578330     0.0187880    -0.0000310
  C        0.1863670     1.1106040    -0.0000190
  C        1.3448400    -0.7705710    -0.0000450
  N        0.0829360    -1.1728735    -0.0000404
  N        1.4605000     0.5893150     0.0000860
  H       -2.5302630    -0.5301450    -0.8821160
  H       -2.5568780     1.0090980    -0.0003890
  H        0.0003360     2.1751570    -0.0003990
  H        2.2046270    -1.4277370     0.0000190
  H        2.3225060     1.1195640     0.0001590
  H       -2.5302120    -0.5293840     0.8826800
units angstrom
no_reorient  #important for SAPT in psi4, default
symmetry c1  #important for SAPT in psi4, default
}

set PROPERTIES_ORIGIN ["COM"]
properties('MP2/aug-cc-pvtz', properties = ['dipole'])
--------------------------------------------------------------------------

    Molecular point group: c1
  Charge       = 0
  Multiplicity = 1
  Basis Set: AUG-CC-PVTZ
    Blend: AUG-CC-PVTZ
  Basis Set: (AUG-CC-PVTZ AUX)
    Blend: AUG-CC-PVTZ-JKFIT

    Orbital Energies [Eh]
    ---------------------

    Doubly Occupied:

       1A    -15.619662     2A    -15.544727     3A    -11.298376
       4A    -11.255010     5A    -11.250549     6A    -11.216162
       7A     -1.332092     8A     -1.161370     9A     -1.030060
      10A     -0.936730    11A     -0.821845    12A     -0.769112
      13A     -0.735247    14A     -0.615176    15A     -0.602282
      16A     -0.597116    17A     -0.549065    18A     -0.539285
      19A     -0.523269    20A     -0.436176    21A     -0.389834
      22A     -0.310396

  @DF-RHF Final Energy:  -263.94873841022002

   => Energetics <=

    Nuclear Repulsion Energy =            223.2875615740928765
    One-Electron Energy =                -799.4055154431723622
    Two-Electron Energy =                 312.1692154588594121
    Total Energy =                       -263.9487384102200167
  Basis Set: (AUG-CC-PVTZ AUX)
    Blend: AUG-CC-PVTZ-RI
    Molecular point group: c1

    Geometry (in Angstrom), charge = 0, multiplicity = 1:

       Center              X                  Y                   Z               Mass
    ------------   -----------------  -----------------  -----------------  -----------------
         C           -2.189687381376     0.019228484216     0.000047656561    12.000000000000
         C           -0.696418381376     0.044543484216    -0.000031343439    12.000000000000
         C            0.147781618624     1.136359484216    -0.000019343439    12.000000000000
         C            1.306254618624    -0.744815515784    -0.000045343439    12.000000000000
         N            0.044350618624    -1.147118015784    -0.000040743439    14.003074004430
         N            1.421914618624     0.615070484216     0.000085656561    14.003074004430
         H           -2.568848381376    -0.504389515784    -0.882116343439     1.007825032230
         H           -2.595463381376     1.034853484216    -0.000389343439     1.007825032230
         H           -0.038249381376     2.200912484216    -0.000399343439     1.007825032230
         H            2.166041618624    -1.401981515784     0.000018656561     1.007825032230
         H            2.283920618624     1.145319484216     0.000158656561     1.007825032230
         H           -2.568797381376    -0.503628515784     0.882679656561     1.007825032230

  Basis Set: AUG-CC-PVTZ
    Blend: AUG-CC-PVTZ
  Basis Set: (AUG-CC-PVTZ AUX)
    Blend: AUG-CC-PVTZ-JKFIT
	 Reference Energy          =    -263.9487384102200167 [Eh]
	 Singles Energy            =      -0.0000000000000000 [Eh]
	 Same-Spin Energy          =      -0.2866622657816588 [Eh]
	 Opposite-Spin Energy      =      -0.8971336636797744 [Eh]
	 Correlation Energy        =      -1.1837959294614333 [Eh]
	 Total Energy              =    -265.1325343396814560 [Eh]

	 ================> DF-SCS-MP2 Energies <==================
	-----------------------------------------------------------
	 SCS Same-Spin Scale       =       0.3333333333333333 [-]
	 SCS Opposite-Spin Scale   =       1.2000000000000000 [-]
	 SCS Same-Spin Energy      =      -0.0955540885938863 [Eh]
	 SCS Opposite-Spin Energy  =      -1.0765603964157293 [Eh]
	 SCS Correlation Energy    =      -1.1721144850096157 [Eh]
	 SCS Total Energy          =    -265.1208528952296319 [Eh]
	-----------------------------------------------------------

  Dipole Moment: [D]
     X:     2.0569      Y:     2.8835      Z:    -0.0001     Total:     3.5420

*** Psi4 exiting successfully. Buy a developer a beer!
