                               Psi4 1.4a3.dev225

  ==> Input File <==

--------------------------------------------------------------------------
#psi4
#
memory 32 gb

molecule  {
0 1
  C       -2.1510270    -0.0065590     0.0000050
  C       -0.6078280     0.0193059    -0.0000064
  C        0.1861760     1.1105370     0.0000080
  C        1.3450050    -0.7704390     0.0000010
  N        0.0763030    -1.1508590    -0.0000070
  N        1.4603370     0.5895500    -0.0000040
  H       -2.5304610    -0.5297300    -0.8823420
  H       -2.5565240     1.0091620    -0.0000020
  H       -0.0003960     2.1749820    -0.0000490
  H        2.2049760    -1.4273470     0.0000120
  H        2.3223630     1.1197620     0.0000400
  H       -2.5304440    -0.5297090     0.8823710
units angstrom
no_reorient  #important for SAPT in psi4, default
symmetry c1  #important for SAPT in psi4, default
}

set PROPERTIES_ORIGIN ["COM"]
properties('MP2/aug-cc-pvtz', properties = ['dipole'])
--------------------------------------------------------------------------

    Molecular point group: c1
  Charge       = 0
  Multiplicity = 1
  Basis Set: AUG-CC-PVTZ
    Blend: AUG-CC-PVTZ
  Basis Set: (AUG-CC-PVTZ AUX)
    Blend: AUG-CC-PVTZ-JKFIT

    Orbital Energies [Eh]
    ---------------------

    Doubly Occupied:

       1A    -15.619876     2A    -15.541621     3A    -11.298716
       4A    -11.249340     5A    -11.244395     6A    -11.215746
       7A     -1.341371     8A     -1.169348     9A     -1.026321
      10A     -0.933011    11A     -0.829067    12A     -0.770745
      13A     -0.734888    14A     -0.618723    15A     -0.605899
      16A     -0.598998    17A     -0.545000    18A     -0.530975
      19A     -0.518055    20A     -0.439631    21A     -0.395357
      22A     -0.313981

  @DF-RHF Final Energy:  -263.94792496973560

   => Energetics <=

    Nuclear Repulsion Energy =            224.3554512247394541
    One-Electron Energy =                -801.5246236524999404
    Two-Electron Energy =                 313.2212474580248909
    Total Energy =                       -263.9479249697355954
  Basis Set: (AUG-CC-PVTZ AUX)
    Blend: AUG-CC-PVTZ-RI
    Molecular point group: c1

    Geometry (in Angstrom), charge = 0, multiplicity = 1:

       Center              X                  Y                   Z               Mass
    ------------   -----------------  -----------------  -----------------  -----------------
         C           -2.195765426288     0.015311882186     0.000005397292    12.000000000000
         C           -0.652566426288     0.041176782186    -0.000006002708    12.000000000000
         C            0.141437573712     1.132407882186     0.000008397292    12.000000000000
         C            1.300266573712    -0.748568117814     0.000001397292    12.000000000000
         N            0.031564573712    -1.128988117814    -0.000006602708    14.003074004430
         N            1.415598573712     0.611420882186    -0.000003602708    14.003074004430
         H           -2.575199426288    -0.507859117814    -0.882341602708     1.007825032230
         H           -2.601262426288     1.031032882186    -0.000001602708     1.007825032230
         H           -0.045134426288     2.196852882186    -0.000048602708     1.007825032230
         H            2.160237573712    -1.405476117814     0.000012397292     1.007825032230
         H            2.277624573712     1.141632882186     0.000040397292     1.007825032230
         H           -2.575182426288    -0.507838117814     0.882371397292     1.007825032230

  Basis Set: AUG-CC-PVTZ
    Blend: AUG-CC-PVTZ
  Basis Set: (AUG-CC-PVTZ AUX)
    Blend: AUG-CC-PVTZ-JKFIT
	 Reference Energy          =    -263.9479249697355954 [Eh]
	 Singles Energy            =      -0.0000000000000000 [Eh]
	 Same-Spin Energy          =      -0.2862848125916350 [Eh]
	 Opposite-Spin Energy      =      -0.8958316811190317 [Eh]
	 Correlation Energy        =      -1.1821164937106667 [Eh]
	 Total Energy              =    -265.1300414634462754 [Eh]

	 ================> DF-SCS-MP2 Energies <==================
	-----------------------------------------------------------
	 SCS Same-Spin Scale       =       0.3333333333333333 [-]
	 SCS Opposite-Spin Scale   =       1.2000000000000000 [-]
	 SCS Same-Spin Energy      =      -0.0954282708638783 [Eh]
	 SCS Opposite-Spin Energy  =      -1.0749980173428380 [Eh]
	 SCS Correlation Energy    =      -1.1704262882067162 [Eh]
	 SCS Total Energy          =    -265.1183512579423223 [Eh]
	-----------------------------------------------------------

  Dipole Moment: [D]
     X:     2.1757      Y:     2.8408      Z:     0.0000     Total:     3.5783

*** Psi4 exiting successfully. Buy a developer a beer!
