                               Psi4 1.3.2 release

  ==> Input File <==

--------------------------------------------------------------------------
#psi4
#
memory 32 gb

molecule  {
0 1
  C       -2.1511020    -0.0065270     0.0000480
  C       -0.6578330     0.0187880    -0.0000310
  C        0.1863670     1.1106040    -0.0000190
  C        1.3448400    -0.7705710    -0.0000450
  N        0.0229533    -1.0660855    -0.0000375
  N        1.4605000     0.5893150     0.0000860
  H       -2.5302630    -0.5301450    -0.8821160
  H       -2.5568780     1.0090980    -0.0003890
  H        0.0003360     2.1751570    -0.0003990
  H        2.2046270    -1.4277370     0.0000190
  H        2.3225060     1.1195640     0.0001590
  H       -2.5302120    -0.5293840     0.8826800
units angstrom
no_reorient  #important for SAPT in psi4, default
symmetry c1  #important for SAPT in psi4, default
}

set PROPERTIES_ORIGIN ["COM"]
properties('MP2/aug-cc-pvtz', properties = ['dipole'])
--------------------------------------------------------------------------

    Molecular point group: c1
  Charge       = 0
  Multiplicity = 1
  Basis Set: AUG-CC-PVTZ
    Blend: AUG-CC-PVTZ
  Basis Set: (AUG-CC-PVTZ AUX)
    Blend: AUG-CC-PVTZ-JKFIT

    Orbital Energies [Eh]
    ---------------------

    Doubly Occupied:

       1A    -15.627060     2A    -15.533285     3A    -11.297966
       4A    -11.248176     5A    -11.238315     6A    -11.213016
       7A     -1.344154     8A     -1.179186     9A     -1.022608
      10A     -0.937916    11A     -0.838909    12A     -0.762586
      13A     -0.737555    14A     -0.626381    15A     -0.608397
      16A     -0.594787    17A     -0.548385    18A     -0.547387
      19A     -0.527364    20A     -0.420453    21A     -0.400298
      22A     -0.301309

  @DF-RHF Final Energy:  -263.93983958993761

   => Energetics <=

    Nuclear Repulsion Energy =            225.5937039617311939
    One-Electron Energy =                -803.9561018255147928
    Two-Electron Energy =                 314.4225582738459934
    Total Energy =                       -263.9398395899376055
  Basis Set: (AUG-CC-PVTZ AUX)
    Blend: AUG-CC-PVTZ-RI
    Molecular point group: c1

    Geometry (in Angstrom), charge = 0, multiplicity = 1:

       Center              X                  Y                   Z               Mass
    ------------   -----------------  -----------------  -----------------  -----------------
         C           -2.179450812551     0.001004184348     0.000047161651    12.000000000000
         C           -0.686181812551     0.026319184348    -0.000031838349    12.000000000000
         C            0.158018187449     1.118135184348    -0.000019838349    12.000000000000
         C            1.316491187449    -0.763039815652    -0.000045838349    12.000000000000
         N           -0.005395512551    -1.058554315652    -0.000038338349    14.003074004430
         N            1.432151187449     0.596846184348     0.000085161651    14.003074004430
         H           -2.558611812551    -0.522613815652    -0.882116838349     1.007825032230
         H           -2.585226812551     1.016629184348    -0.000389838349     1.007825032230
         H           -0.028012812551     2.182688184348    -0.000399838349     1.007825032230
         H            2.176278187449    -1.420205815652     0.000018161651     1.007825032230
         H            2.294157187449     1.127095184348     0.000158161651     1.007825032230
         H           -2.558560812551    -0.521852815652     0.882679161651     1.007825032230

  Basis Set: AUG-CC-PVTZ
    Blend: AUG-CC-PVTZ
  Basis Set: (AUG-CC-PVTZ AUX)
    Blend: AUG-CC-PVTZ-JKFIT
	 Reference Energy          =    -263.9398395899376055 [Eh]
	 Singles Energy            =      -0.0000000000000000 [Eh]
	 Same-Spin Energy          =      -0.2882723402839847 [Eh]
	 Opposite-Spin Energy      =      -0.8973539921925693 [Eh]
	 Correlation Energy        =      -1.1856263324765539 [Eh]
	 Total Energy              =    -265.1254659224141506 [Eh]

	 ================> DF-SCS-MP2 Energies <==================
	-----------------------------------------------------------
	 SCS Same-Spin Scale       =       0.3333333333333333 [-]
	 SCS Opposite-Spin Scale   =       1.2000000000000000 [-]
	 SCS Same-Spin Energy      =      -0.0960907800946616 [Eh]
	 SCS Opposite-Spin Energy  =      -1.0768247906310831 [Eh]
	 SCS Correlation Energy    =      -1.1729155707257446 [Eh]
	 SCS Total Energy          =    -265.1127551606633688 [Eh]
	-----------------------------------------------------------

  Dipole Moment: [D]
     X:     2.1815      Y:     2.6896      Z:    -0.0001     Total:     3.4631

*** Psi4 exiting successfully. Buy a developer a beer!
