                               Psi4 1.3.2 release

  ==> Input File <==

--------------------------------------------------------------------------
#psi4
#
memory 32 gb

molecule  {
0 1
  C       -2.1511020    -0.0065270     0.0000480
  C       -0.6578330     0.0187880    -0.0000310
  C        0.2475355     1.1897141    -0.0000181
  C        1.3448400    -0.7705710    -0.0000450
  N        0.0761070    -1.1507890    -0.0000380
  N        1.4605000     0.5893150     0.0000860
  H       -2.5302630    -0.5301450    -0.8821160
  H       -2.5568780     1.0090980    -0.0003890
  H        0.0003360     2.1751570    -0.0003990
  H        2.2046270    -1.4277370     0.0000190
  H        2.3225060     1.1195640     0.0001590
  H       -2.5302120    -0.5293840     0.8826800
units angstrom
no_reorient  #important for SAPT in psi4, default
symmetry c1  #important for SAPT in psi4, default
}

set PROPERTIES_ORIGIN ["COM"]
properties('MP2/aug-cc-pvtz', properties = ['dipole'])
--------------------------------------------------------------------------

    Molecular point group: c1
  Charge       = 0
  Multiplicity = 1
  Basis Set: AUG-CC-PVTZ
    Blend: AUG-CC-PVTZ
  Basis Set: (AUG-CC-PVTZ AUX)
    Blend: AUG-CC-PVTZ-JKFIT

    Orbital Energies [Eh]
    ---------------------

    Doubly Occupied:

       1A    -15.627646     2A    -15.546663     3A    -11.295865
       4A    -11.259772     5A    -11.257610     6A    -11.215870
       7A     -1.334926     8A     -1.169951     9A     -1.022585
      10A     -0.935872    11A     -0.823143    12A     -0.779237
      13A     -0.734177    14A     -0.622434    15A     -0.607844
      16A     -0.601972    17A     -0.550122    18A     -0.532986
      19A     -0.523299    20A     -0.433565    21A     -0.396221
      22A     -0.292613

  @DF-RHF Final Energy:  -263.93246843231225

   => Energetics <=

    Nuclear Repulsion Energy =            222.5369354739324308
    One-Electron Energy =                -797.8100636961760301
    Two-Electron Energy =                 311.3406597899313510
    Total Energy =                       -263.9324684323122483
  Basis Set: (AUG-CC-PVTZ AUX)
    Blend: AUG-CC-PVTZ-RI
    Molecular point group: c1

    Geometry (in Angstrom), charge = 0, multiplicity = 1:

       Center              X                  Y                   Z               Mass
    ------------   -----------------  -----------------  -----------------  -----------------
         C           -2.197467648320     0.003889976403     0.000047115358    12.000000000000
         C           -0.704198648320     0.029204976403    -0.000031884642    12.000000000000
         C            0.201169851680     1.200131076403    -0.000018984642    12.000000000000
         C            1.298474351680    -0.760154023597    -0.000045884642    12.000000000000
         N            0.029741351680    -1.140372023597    -0.000038884642    14.003074004430
         N            1.414134351680     0.599731976403     0.000085115358    14.003074004430
         H           -2.576628648320    -0.519728023597    -0.882116884642     1.007825032230
         H           -2.603243648320     1.019514976403    -0.000389884642     1.007825032230
         H           -0.046029648320     2.185573976403    -0.000399884642     1.007825032230
         H            2.158261351680    -1.417320023597     0.000018115358     1.007825032230
         H            2.276140351680     1.129980976403     0.000158115358     1.007825032230
         H           -2.576577648320    -0.518967023597     0.882679115358     1.007825032230

  Basis Set: AUG-CC-PVTZ
    Blend: AUG-CC-PVTZ
  Basis Set: (AUG-CC-PVTZ AUX)
    Blend: AUG-CC-PVTZ-JKFIT
	 Reference Energy          =    -263.9324684323122483 [Eh]
	 Singles Energy            =      -0.0000000000000000 [Eh]
	 Same-Spin Energy          =      -0.2887643519124877 [Eh]
	 Opposite-Spin Energy      =      -0.8997593564735642 [Eh]
	 Correlation Energy        =      -1.1885237083860520 [Eh]
	 Total Energy              =    -265.1209921406983199 [Eh]

	 ================> DF-SCS-MP2 Energies <==================
	-----------------------------------------------------------
	 SCS Same-Spin Scale       =       0.3333333333333333 [-]
	 SCS Opposite-Spin Scale   =       1.2000000000000000 [-]
	 SCS Same-Spin Energy      =      -0.0962547839708292 [Eh]
	 SCS Opposite-Spin Energy  =      -1.0797112277682770 [Eh]
	 SCS Correlation Energy    =      -1.1759660117391062 [Eh]
	 SCS Total Energy          =    -265.1084344440513405 [Eh]
	-----------------------------------------------------------

  Dipole Moment: [D]
     X:     2.1009      Y:     2.8341      Z:    -0.0001     Total:     3.5278

*** Psi4 exiting successfully. Buy a developer a beer!
