                               Psi4 1.3.2 release

  ==> Input File <==

--------------------------------------------------------------------------
#psi4
#
memory 32 gb

molecule  {
0 1
  C       -2.1511020    -0.0065270     0.0000480
  C       -0.6578330     0.0187880    -0.0000310
  C        0.3087040     1.2688243    -0.0000173
  C        1.3448400    -0.7705710    -0.0000450
  N        0.0761070    -1.1507890    -0.0000380
  N        1.4605000     0.5893150     0.0000860
  H       -2.5302630    -0.5301450    -0.8821160
  H       -2.5568780     1.0090980    -0.0003890
  H        0.0003360     2.1751570    -0.0003990
  H        2.2046270    -1.4277370     0.0000190
  H        2.3225060     1.1195640     0.0001590
  H       -2.5302120    -0.5293840     0.8826800
units angstrom
no_reorient  #important for SAPT in psi4, default
symmetry c1  #important for SAPT in psi4, default
}

set PROPERTIES_ORIGIN ["COM"]
properties('MP2/aug-cc-pvtz', properties = ['dipole'])
--------------------------------------------------------------------------

    Molecular point group: c1
  Charge       = 0
  Multiplicity = 1
  Basis Set: AUG-CC-PVTZ
    Blend: AUG-CC-PVTZ
  Basis Set: (AUG-CC-PVTZ AUX)
    Blend: AUG-CC-PVTZ-JKFIT

    Orbital Energies [Eh]
    ---------------------

    Doubly Occupied:

       1A    -15.635742     2A    -15.551352     3A    -11.294757
       4A    -11.268937     5A    -11.262168     6A    -11.216290
       7A     -1.335568     8A     -1.175875     9A     -1.018778
      10A     -0.936971    11A     -0.825057    12A     -0.787743
      13A     -0.737314    14A     -0.641875    15A     -0.601411
      16A     -0.599156    17A     -0.551540    18A     -0.528576
      19A     -0.515126    20A     -0.430656    21A     -0.401439
      22A     -0.279397

  @DF-RHF Final Energy:  -263.89332702179644

   => Energetics <=

    Nuclear Repulsion Energy =            221.3600984055690049
    One-Electron Energy =                -795.3153987755675871
    Two-Electron Energy =                 310.0619733482021161
    Total Energy =                       -263.8933270217964377
  Basis Set: (AUG-CC-PVTZ AUX)
    Blend: AUG-CC-PVTZ-RI
    Molecular point group: c1

    Geometry (in Angstrom), charge = 0, multiplicity = 1:

       Center              X                  Y                   Z               Mass
    ------------   -----------------  -----------------  -----------------  -----------------
         C           -2.206413343438    -0.007679634261     0.000046998361    12.000000000000
         C           -0.713144343438     0.017635365739    -0.000032001639    12.000000000000
         C            0.253392656562     1.267671665739    -0.000018301639    12.000000000000
         C            1.289528656562    -0.771723634261    -0.000046001639    12.000000000000
         N            0.020795656562    -1.151941634261    -0.000039001639    14.003074004430
         N            1.405188656562     0.588162365739     0.000084998361    14.003074004430
         H           -2.585574343438    -0.531297634261    -0.882117001639     1.007825032230
         H           -2.612189343438     1.007945365739    -0.000390001639     1.007825032230
         H           -0.054975343438     2.174004365739    -0.000400001639     1.007825032230
         H            2.149315656562    -1.428889634261     0.000017998361     1.007825032230
         H            2.267194656562     1.118411365739     0.000157998361     1.007825032230
         H           -2.585523343438    -0.530536634261     0.882678998361     1.007825032230

  Basis Set: AUG-CC-PVTZ
    Blend: AUG-CC-PVTZ
  Basis Set: (AUG-CC-PVTZ AUX)
    Blend: AUG-CC-PVTZ-JKFIT
	 Reference Energy          =    -263.8933270217964377 [Eh]
	 Singles Energy            =      -0.0000000000000000 [Eh]
	 Same-Spin Energy          =      -0.2911897441732392 [Eh]
	 Opposite-Spin Energy      =      -0.9040649941247153 [Eh]
	 Correlation Energy        =      -1.1952547382979546 [Eh]
	 Total Energy              =    -265.0885817600943710 [Eh]

	 ================> DF-SCS-MP2 Energies <==================
	-----------------------------------------------------------
	 SCS Same-Spin Scale       =       0.3333333333333333 [-]
	 SCS Opposite-Spin Scale   =       1.2000000000000000 [-]
	 SCS Same-Spin Energy      =      -0.0970632480577464 [Eh]
	 SCS Opposite-Spin Energy  =      -1.0848779929496584 [Eh]
	 SCS Correlation Energy    =      -1.1819412410074048 [Eh]
	 SCS Total Energy          =    -265.0752682628038315 [Eh]
	-----------------------------------------------------------

  Dipole Moment: [D]
     X:     2.1093      Y:     2.7804      Z:    -0.0001     Total:     3.4900

*** Psi4 exiting successfully. Buy a developer a beer!
