                               Psi4 1.3.2 release

  ==> Input File <==

--------------------------------------------------------------------------
#psi4
#
memory 32 gb

molecule  {
0 1
  C       -2.1511020    -0.0065270     0.0000480
  C       -0.6767592     0.0336876    -0.0000328
  C        0.1863670     1.1106040    -0.0000190
  C        1.3448400    -0.7705710    -0.0000450
  N        0.0761070    -1.1507890    -0.0000380
  N        1.4605000     0.5893150     0.0000860
  H       -2.5302630    -0.5301450    -0.8821160
  H       -2.5568780     1.0090980    -0.0003890
  H        0.0003360     2.1751570    -0.0003990
  H        2.2046270    -1.4277370     0.0000190
  H        2.3225060     1.1195640     0.0001590
  H       -2.5302120    -0.5293840     0.8826800
units angstrom
no_reorient  #important for SAPT in psi4, default
symmetry c1  #important for SAPT in psi4, default
}

set PROPERTIES_ORIGIN ["COM"]
properties('MP2/aug-cc-pvtz', properties = ['dipole'])
--------------------------------------------------------------------------

    Molecular point group: c1
  Charge       = 0
  Multiplicity = 1
  Basis Set: AUG-CC-PVTZ
    Blend: AUG-CC-PVTZ
  Basis Set: (AUG-CC-PVTZ AUX)
    Blend: AUG-CC-PVTZ-JKFIT

    Orbital Energies [Eh]
    ---------------------

    Doubly Occupied:

       1A    -15.619200     2A    -15.542364     3A    -11.297596
       4A    -11.255071     5A    -11.249234     6A    -11.215769
       7A     -1.331319     8A     -1.159327     9A     -1.032673
      10A     -0.938907    11A     -0.820734    12A     -0.767576
      13A     -0.736956    14A     -0.616747    15A     -0.602502
      16A     -0.595654    17A     -0.550177    18A     -0.546785
      19A     -0.523412    20A     -0.430710    21A     -0.387902
      22A     -0.310274

  @DF-RHF Final Energy:  -263.94871336673418

   => Energetics <=

    Nuclear Repulsion Energy =            223.5514570831296624
    One-Electron Energy =                -799.9385560754326434
    Two-Electron Energy =                 312.4383856255687988
    Total Energy =                       -263.9487133667341823
  Basis Set: (AUG-CC-PVTZ AUX)
    Blend: AUG-CC-PVTZ-RI
    Molecular point group: c1

    Geometry (in Angstrom), charge = 0, multiplicity = 1:

       Center              X                  Y                   Z               Mass
    ------------   -----------------  -----------------  -----------------  -----------------
         C           -2.185754057718     0.013280554174     0.000047510224    12.000000000000
         C           -0.711411257718     0.053495154174    -0.000033289776    12.000000000000
         C            0.151714942282     1.130411554174    -0.000019489776    12.000000000000
         C            1.310187942282    -0.750763445826    -0.000045489776    12.000000000000
         N            0.041454942282    -1.130981445826    -0.000038489776    14.003074004430
         N            1.425847942282     0.609122554174     0.000085510224    14.003074004430
         H           -2.564915057718    -0.510337445826    -0.882116489776     1.007825032230
         H           -2.591530057718     1.028905554174    -0.000389489776     1.007825032230
         H           -0.034316057718     2.194964554174    -0.000399489776     1.007825032230
         H            2.169974942282    -1.407929445826     0.000018510224     1.007825032230
         H            2.287853942282     1.139371554174     0.000158510224     1.007825032230
         H           -2.564864057718    -0.509576445826     0.882679510224     1.007825032230

  Basis Set: AUG-CC-PVTZ
    Blend: AUG-CC-PVTZ
  Basis Set: (AUG-CC-PVTZ AUX)
    Blend: AUG-CC-PVTZ-JKFIT
	 Reference Energy          =    -263.9487133667341823 [Eh]
	 Singles Energy            =      -0.0000000000000000 [Eh]
	 Same-Spin Energy          =      -0.2868342994790167 [Eh]
	 Opposite-Spin Energy      =      -0.8971433024165008 [Eh]
	 Correlation Energy        =      -1.1839776018955175 [Eh]
	 Total Energy              =    -265.1326909686296744 [Eh]

	 ================> DF-SCS-MP2 Energies <==================
	-----------------------------------------------------------
	 SCS Same-Spin Scale       =       0.3333333333333333 [-]
	 SCS Opposite-Spin Scale   =       1.2000000000000000 [-]
	 SCS Same-Spin Energy      =      -0.0956114331596722 [Eh]
	 SCS Opposite-Spin Energy  =      -1.0765719628998009 [Eh]
	 SCS Correlation Energy    =      -1.1721833960594732 [Eh]
	 SCS Total Energy          =    -265.1208967627936772 [Eh]
	-----------------------------------------------------------

  Dipole Moment: [D]
     X:     2.0343      Y:     2.8459      Z:    -0.0001     Total:     3.4982

*** Psi4 exiting successfully. Buy a developer a beer!
