                               Psi4 1.3.2 release

  ==> Input File <==

--------------------------------------------------------------------------
#psi4
#
memory 32 gb

molecule  {
0 1
  C       -2.1511020    -0.0065270     0.0000480
  C       -0.6578330     0.0187880    -0.0000310
  C        0.1863670     1.1106040    -0.0000190
  C        1.3448400    -0.7705710    -0.0000450
  N       -0.0302003    -0.9813819    -0.0000370
  N        1.4605000     0.5893150     0.0000860
  H       -2.5302630    -0.5301450    -0.8821160
  H       -2.5568780     1.0090980    -0.0003890
  H        0.0003360     2.1751570    -0.0003990
  H        2.2046270    -1.4277370     0.0000190
  H        2.3225060     1.1195640     0.0001590
  H       -2.5302120    -0.5293840     0.8826800
units angstrom
no_reorient  #important for SAPT in psi4, default
symmetry c1  #important for SAPT in psi4, default
}

set PROPERTIES_ORIGIN ["COM"]
properties('MP2/aug-cc-pvtz', properties = ['dipole'])
--------------------------------------------------------------------------

    Molecular point group: c1
  Charge       = 0
  Multiplicity = 1
  Basis Set: AUG-CC-PVTZ
    Blend: AUG-CC-PVTZ
  Basis Set: (AUG-CC-PVTZ AUX)
    Blend: AUG-CC-PVTZ-JKFIT

    Orbital Energies [Eh]
    ---------------------

    Doubly Occupied:

       1A    -15.635440     2A    -15.522973     3A    -11.297528
       4A    -11.243221     5A    -11.226499     6A    -11.209637
       7A     -1.358271     8A     -1.201275     9A     -1.013548
      10A     -0.939345    11A     -0.855454    12A     -0.753136
      13A     -0.738737    14A     -0.634689    15A     -0.616095
      16A     -0.593475    17A     -0.560159    18A     -0.545967
      19A     -0.527731    20A     -0.415860    21A     -0.402492
      22A     -0.291582

  @DF-RHF Final Energy:  -263.90119163787080

   => Energetics <=

    Nuclear Repulsion Energy =            227.5819056063134838
    One-Electron Energy =                -807.7999651612897196
    Two-Electron Energy =                 316.3168679171054123
    Total Energy =                       -263.9011916378707951
  Basis Set: (AUG-CC-PVTZ AUX)
    Blend: AUG-CC-PVTZ-RI
    Molecular point group: c1

    Geometry (in Angstrom), charge = 0, multiplicity = 1:

       Center              X                  Y                   Z               Mass
    ------------   -----------------  -----------------  -----------------  -----------------
         C           -2.170379688965    -0.013451220814     0.000047076322    12.000000000000
         C           -0.677110688965     0.011863779186    -0.000031923678    12.000000000000
         C            0.167089311035     1.103679779186    -0.000019923678    12.000000000000
         C            1.325562311035    -0.777495220814    -0.000045923678    12.000000000000
         N           -0.049477988965    -0.988306120814    -0.000037923678    14.003074004430
         N            1.441222311035     0.582390779186     0.000085076322    14.003074004430
         H           -2.549540688965    -0.537069220814    -0.882116923678     1.007825032230
         H           -2.576155688965     1.002173779186    -0.000389923678     1.007825032230
         H           -0.018941688965     2.168232779186    -0.000399923678     1.007825032230
         H            2.185349311035    -1.434661220814     0.000018076322     1.007825032230
         H            2.303228311035     1.112639779186     0.000158076322     1.007825032230
         H           -2.549489688965    -0.536308220814     0.882679076322     1.007825032230

  Basis Set: AUG-CC-PVTZ
    Blend: AUG-CC-PVTZ
  Basis Set: (AUG-CC-PVTZ AUX)
    Blend: AUG-CC-PVTZ-JKFIT
	 Reference Energy          =    -263.9011916378707951 [Eh]
	 Singles Energy            =      -0.0000000000000000 [Eh]
	 Same-Spin Energy          =      -0.2897249742984174 [Eh]
	 Opposite-Spin Energy      =      -0.8988633205063452 [Eh]
	 Correlation Energy        =      -1.1885882948047626 [Eh]
	 Total Energy              =    -265.0897799326755830 [Eh]

	 ================> DF-SCS-MP2 Energies <==================
	-----------------------------------------------------------
	 SCS Same-Spin Scale       =       0.3333333333333333 [-]
	 SCS Opposite-Spin Scale   =       1.2000000000000000 [-]
	 SCS Same-Spin Energy      =      -0.0965749914328058 [Eh]
	 SCS Opposite-Spin Energy  =      -1.0786359846076141 [Eh]
	 SCS Correlation Energy    =      -1.1752109760404199 [Eh]
	 SCS Total Energy          =    -265.0764026139112275 [Eh]
	-----------------------------------------------------------

  Dipole Moment: [D]
     X:     2.2748      Y:     2.5021      Z:    -0.0001     Total:     3.3816

*** Psi4 exiting successfully. Buy a developer a beer!
