                               Psi4 1.3.2 release

  ==> Input File <==

--------------------------------------------------------------------------
#psi4
#
memory 32 gb

molecule  {
0 1
  C       -2.1511020    -0.0065270     0.0000480
  C       -0.5578474     0.0204830    -0.0000363
  C        0.1863670     1.1106040    -0.0000190
  C        1.3448400    -0.7705710    -0.0000450
  N        0.0761070    -1.1507890    -0.0000380
  N        1.4605000     0.5893150     0.0000860
  H       -2.5302630    -0.5301450    -0.8821160
  H       -2.5568780     1.0090980    -0.0003890
  H        0.0003360     2.1751570    -0.0003990
  H        2.2046270    -1.4277370     0.0000190
  H        2.3225060     1.1195640     0.0001590
  H       -2.5302120    -0.5293840     0.8826800
units angstrom
no_reorient  #important for SAPT in psi4, default
symmetry c1  #important for SAPT in psi4, default
}

set PROPERTIES_ORIGIN ["COM"]
properties('MP2/aug-cc-pvtz', properties = ['dipole'])
--------------------------------------------------------------------------

    Molecular point group: c1
  Charge       = 0
  Multiplicity = 1
  Basis Set: AUG-CC-PVTZ
    Blend: AUG-CC-PVTZ
  Basis Set: (AUG-CC-PVTZ AUX)
    Blend: AUG-CC-PVTZ-JKFIT

    Orbital Energies [Eh]
    ---------------------

    Doubly Occupied:

       1A    -15.619652     2A    -15.541388     3A    -11.300140
       4A    -11.245242     5A    -11.240955     6A    -11.215062
       7A     -1.349229     8A     -1.174810     9A     -1.025655
      10A     -0.928194    11A     -0.834350    12A     -0.772641
      13A     -0.733882    14A     -0.621604    15A     -0.609476
      16A     -0.600647    17A     -0.541103    18A     -0.528031
      19A     -0.504842    20A     -0.443380    21A     -0.399376
      22A     -0.318742

  @DF-RHF Final Energy:  -263.93864092745088

   => Energetics <=

    Nuclear Repulsion Energy =            224.9672857440994846
    One-Electron Energy =                -802.7150533867826425
    Two-Electron Energy =                 313.8091267152322530
    Total Energy =                       -263.9386409274508765
  Basis Set: (AUG-CC-PVTZ AUX)
    Blend: AUG-CC-PVTZ-RI
    Molecular point group: c1

    Geometry (in Angstrom), charge = 0, multiplicity = 1:

       Center              X                  Y                   Z               Mass
    ------------   -----------------  -----------------  -----------------  -----------------
         C           -2.203144523541     0.015211684180     0.000048022088    12.000000000000
         C           -0.609889923541     0.042221684180    -0.000036277912    12.000000000000
         C            0.134324476459     1.132342684180    -0.000018977912    12.000000000000
         C            1.292797476459    -0.748832315820    -0.000044977912    12.000000000000
         N            0.024064476459    -1.129050315820    -0.000037977912    14.003074004430
         N            1.408457476459     0.611053684180     0.000086022088    14.003074004430
         H           -2.582305523541    -0.508406315820    -0.882115977912     1.007825032230
         H           -2.608920523541     1.030836684180    -0.000388977912     1.007825032230
         H           -0.051706523541     2.196895684180    -0.000398977912     1.007825032230
         H            2.152584476459    -1.405998315820     0.000019022088     1.007825032230
         H            2.270463476459     1.141302684180     0.000159022088     1.007825032230
         H           -2.582254523541    -0.507645315820     0.882680022088     1.007825032230

  Basis Set: AUG-CC-PVTZ
    Blend: AUG-CC-PVTZ
  Basis Set: (AUG-CC-PVTZ AUX)
    Blend: AUG-CC-PVTZ-JKFIT
	 Reference Energy          =    -263.9386409274508765 [Eh]
	 Singles Energy            =      -0.0000000000000000 [Eh]
	 Same-Spin Energy          =      -0.2860108306605255 [Eh]
	 Opposite-Spin Energy      =      -0.8953204726116029 [Eh]
	 Correlation Energy        =      -1.1813313032721284 [Eh]
	 Total Energy              =    -265.1199722307230218 [Eh]

	 ================> DF-SCS-MP2 Energies <==================
	-----------------------------------------------------------
	 SCS Same-Spin Scale       =       0.3333333333333333 [-]
	 SCS Opposite-Spin Scale   =       1.2000000000000000 [-]
	 SCS Same-Spin Energy      =      -0.0953369435535085 [Eh]
	 SCS Opposite-Spin Energy  =      -1.0743845671339234 [Eh]
	 SCS Correlation Energy    =      -1.1697215106874319 [Eh]
	 SCS Total Energy          =    -265.1083624381383288 [Eh]
	-----------------------------------------------------------

  Dipole Moment: [D]
     X:     2.2880      Y:     2.8375      Z:    -0.0001     Total:     3.6451

*** Psi4 exiting successfully. Buy a developer a beer!
