                               Psi4 1.4a3.dev225

  ==> Input File <==

--------------------------------------------------------------------------
#psi4
#
memory 32 gb

molecule  {
0 1
  C       -2.1510270    -0.0065590     0.0000050
  C       -0.6578210     0.0184680    -0.0000060
  C        0.1984061     1.1263618     0.0000082
  C        1.3450050    -0.7704390     0.0000010
  N        0.0763030    -1.1508590    -0.0000070
  N        1.4603370     0.5895500    -0.0000040
  H       -2.5304610    -0.5297300    -0.8823420
  H       -2.5565240     1.0091620    -0.0000020
  H       -0.0003960     2.1749820    -0.0000490
  H        2.2049760    -1.4273470     0.0000120
  H        2.3223630     1.1197620     0.0000400
  H       -2.5304440    -0.5297090     0.8823710
units angstrom
no_reorient  #important for SAPT in psi4, default
symmetry c1  #important for SAPT in psi4, default
}

set PROPERTIES_ORIGIN ["COM"]
properties('MP2/aug-cc-pvtz', properties = ['dipole'])
--------------------------------------------------------------------------

    Molecular point group: c1
  Charge       = 0
  Multiplicity = 1
  Basis Set: AUG-CC-PVTZ
    Blend: AUG-CC-PVTZ
  Basis Set: (AUG-CC-PVTZ AUX)
    Blend: AUG-CC-PVTZ-JKFIT

    Orbital Energies [Eh]
    ---------------------

    Doubly Occupied:

       1A    -15.621643     2A    -15.542963     3A    -11.297202
       4A    -11.254575     5A    -11.250786     6A    -11.215767
       7A     -1.334526     8A     -1.165260     9A     -1.027773
      10A     -0.936489    11A     -0.823670    12A     -0.771027
      13A     -0.735122    14A     -0.615699    15A     -0.603015
      16A     -0.601973    17A     -0.549059    18A     -0.539287
      19A     -0.524773    20A     -0.433521    21A     -0.392289
      22A     -0.305582

  @DF-RHF Final Energy:  -263.94833622033894

   => Energetics <=

    Nuclear Repulsion Energy =            223.5278607683985967
    One-Electron Energy =                -799.8683954373615279
    Two-Electron Energy =                 312.3921984486240149
    Total Energy =                       -263.9483362203389447
  Basis Set: (AUG-CC-PVTZ AUX)
    Blend: AUG-CC-PVTZ-RI
    Molecular point group: c1

    Geometry (in Angstrom), charge = 0, multiplicity = 1:

       Center              X                  Y                   Z               Mass
    ------------   -----------------  -----------------  -----------------  -----------------
         C           -2.190242724404     0.013120096575     0.000005309544    12.000000000000
         C           -0.697036724404     0.038147096575    -0.000005690456    12.000000000000
         C            0.159190375596     1.146040896575     0.000008509544    12.000000000000
         C            1.305789275596    -0.750759903425     0.000001309544    12.000000000000
         N            0.037087275596    -1.131179903425    -0.000006690456    14.003074004430
         N            1.421121275596     0.609229096575    -0.000003690456    14.003074004430
         H           -2.569676724404    -0.510050903425    -0.882341690456     1.007825032230
         H           -2.595739724404     1.028841096575    -0.000001690456     1.007825032230
         H           -0.039611724404     2.194661096575    -0.000048690456     1.007825032230
         H            2.165760275596    -1.407667903425     0.000012309544     1.007825032230
         H            2.283147275596     1.139441096575     0.000040309544     1.007825032230
         H           -2.569659724404    -0.510029903425     0.882371309544     1.007825032230

  Basis Set: AUG-CC-PVTZ
    Blend: AUG-CC-PVTZ
  Basis Set: (AUG-CC-PVTZ AUX)
    Blend: AUG-CC-PVTZ-JKFIT
	 Reference Energy          =    -263.9483362203389447 [Eh]
	 Singles Energy            =      -0.0000000000000000 [Eh]
	 Same-Spin Energy          =      -0.2871775306907450 [Eh]
	 Opposite-Spin Energy      =      -0.8973042900278483 [Eh]
	 Correlation Energy        =      -1.1844818207185934 [Eh]
	 Total Energy              =    -265.1328180410575328 [Eh]

	 ================> DF-SCS-MP2 Energies <==================
	-----------------------------------------------------------
	 SCS Same-Spin Scale       =       0.3333333333333333 [-]
	 SCS Opposite-Spin Scale   =       1.2000000000000000 [-]
	 SCS Same-Spin Energy      =      -0.0957258435635817 [Eh]
	 SCS Opposite-Spin Energy  =      -1.0767651480334179 [Eh]
	 SCS Correlation Energy    =      -1.1724909915969997 [Eh]
	 SCS Total Energy          =    -265.1208272119359322 [Eh]
	-----------------------------------------------------------

  Dipole Moment: [D]
     X:     2.0789      Y:     2.8445      Z:     0.0000     Total:     3.5233

*** Psi4 exiting successfully. Buy a developer a beer!
