                               Psi4 1.3.2 release

  ==> Input File <==

--------------------------------------------------------------------------
#psi4
#
memory 32 gb

molecule  {
0 1
  C       -2.1511020    -0.0065270     0.0000480
  C       -0.6578330     0.0187880    -0.0000310
  C        0.2604718     1.0490560    -0.0000192
  C        1.3448400    -0.7705710    -0.0000450
  N        0.0761070    -1.1507890    -0.0000380
  N        1.4605000     0.5893150     0.0000860
  H       -2.5302630    -0.5301450    -0.8821160
  H       -2.5568780     1.0090980    -0.0003890
  H        0.0003360     2.1751570    -0.0003990
  H        2.2046270    -1.4277370     0.0000190
  H        2.3225060     1.1195640     0.0001590
  H       -2.5302120    -0.5293840     0.8826800
units angstrom
no_reorient  #important for SAPT in psi4, default
symmetry c1  #important for SAPT in psi4, default
}

set PROPERTIES_ORIGIN ["COM"]
properties('MP2/aug-cc-pvtz', properties = ['dipole'])
--------------------------------------------------------------------------

    Molecular point group: c1
  Charge       = 0
  Multiplicity = 1
  Basis Set: AUG-CC-PVTZ
    Blend: AUG-CC-PVTZ
  Basis Set: (AUG-CC-PVTZ AUX)
    Blend: AUG-CC-PVTZ-JKFIT

    Orbital Energies [Eh]
    ---------------------

    Doubly Occupied:

       1A    -15.624036     2A    -15.542957     3A    -11.289531
       4A    -11.255326     5A    -11.241059     6A    -11.216634
       7A     -1.358880     8A     -1.175912     9A     -1.025307
      10A     -0.939891    11A     -0.828823    12A     -0.770649
      13A     -0.745759    14A     -0.623464    15A     -0.616638
      16A     -0.572230    17A     -0.552417    18A     -0.545650
      19A     -0.523017    20A     -0.429853    21A     -0.397803
      22A     -0.301387

  @DF-RHF Final Energy:  -263.93687211459650

   => Energetics <=

    Nuclear Repulsion Energy =            225.2814973782288632
    One-Electron Energy =                -803.2822936290242524
    Two-Electron Energy =                 314.0639241361988638
    Total Energy =                       -263.9368721145964969
  Basis Set: (AUG-CC-PVTZ AUX)
    Blend: AUG-CC-PVTZ-RI
    Molecular point group: c1

    Geometry (in Angstrom), charge = 0, multiplicity = 1:

       Center              X                  Y                   Z               Mass
    ------------   -----------------  -----------------  -----------------  -----------------
         C           -2.199359540320     0.024460768207     0.000047276230    12.000000000000
         C           -0.706090540320     0.049775768207    -0.000031723770    12.000000000000
         C            0.212214259680     1.080043768207    -0.000019923770    12.000000000000
         C            1.296582459680    -0.739583231793    -0.000045723770    12.000000000000
         N            0.027849459680    -1.119801231793    -0.000038723770    14.003074004430
         N            1.412242459680     0.620302768207     0.000085276230    14.003074004430
         H           -2.578520540320    -0.499157231793    -0.882116723770     1.007825032230
         H           -2.605135540320     1.040085768207    -0.000389723770     1.007825032230
         H           -0.047921540320     2.206144768207    -0.000399723770     1.007825032230
         H            2.156369459680    -1.396749231793     0.000018276230     1.007825032230
         H            2.274248459680     1.150551768207     0.000158276230     1.007825032230
         H           -2.578469540320    -0.498396231793     0.882679276230     1.007825032230

  Basis Set: AUG-CC-PVTZ
    Blend: AUG-CC-PVTZ
  Basis Set: (AUG-CC-PVTZ AUX)
    Blend: AUG-CC-PVTZ-JKFIT
	 Reference Energy          =    -263.9368721145964969 [Eh]
	 Singles Energy            =      -0.0000000000000000 [Eh]
	 Same-Spin Energy          =      -0.2877447847537398 [Eh]
	 Opposite-Spin Energy      =      -0.8968699360367730 [Eh]
	 Correlation Energy        =      -1.1846147207905129 [Eh]
	 Total Energy              =    -265.1214868353870315 [Eh]

	 ================> DF-SCS-MP2 Energies <==================
	-----------------------------------------------------------
	 SCS Same-Spin Scale       =       0.3333333333333333 [-]
	 SCS Opposite-Spin Scale   =       1.2000000000000000 [-]
	 SCS Same-Spin Energy      =      -0.0959149282512466 [Eh]
	 SCS Opposite-Spin Energy  =      -1.0762439232441277 [Eh]
	 SCS Correlation Energy    =      -1.1721588514953742 [Eh]
	 SCS Total Energy          =    -265.1090309660918933 [Eh]
	-----------------------------------------------------------

  Dipole Moment: [D]
     X:     2.1586      Y:     2.9053      Z:    -0.0000     Total:     3.6194

*** Psi4 exiting successfully. Buy a developer a beer!
