                               Psi4 1.3.2 release

  ==> Input File <==

--------------------------------------------------------------------------
#psi4
#
memory 32 gb

molecule  {
0 1
  C       -2.1511020    -0.0065270     0.0000480
  C       -0.6578330     0.0187880    -0.0000310
  C        0.1863670     1.1106040    -0.0000190
  C        1.3448400    -0.7705710    -0.0000450
  N        0.0761070    -1.1507890    -0.0000380
  N        1.6456067     0.5135819     0.0001013
  H       -2.5302630    -0.5301450    -0.8821160
  H       -2.5568780     1.0090980    -0.0003890
  H        0.0003360     2.1751570    -0.0003990
  H        2.2046270    -1.4277370     0.0000190
  H        2.3225060     1.1195640     0.0001590
  H       -2.5302120    -0.5293840     0.8826800
units angstrom
no_reorient  #important for SAPT in psi4, default
symmetry c1  #important for SAPT in psi4, default
}

set PROPERTIES_ORIGIN ["COM"]
properties('MP2/aug-cc-pvtz', properties = ['dipole'])
--------------------------------------------------------------------------

    Molecular point group: c1
  Charge       = 0
  Multiplicity = 1
  Basis Set: AUG-CC-PVTZ
    Blend: AUG-CC-PVTZ
  Basis Set: (AUG-CC-PVTZ AUX)
    Blend: AUG-CC-PVTZ-JKFIT

    Orbital Energies [Eh]
    ---------------------

    Doubly Occupied:

       1A    -15.610881     2A    -15.539178     3A    -11.310974
       4A    -11.265000     5A    -11.261461     6A    -11.223600
       7A     -1.318955     8A     -1.174246     9A     -1.028491
      10A     -0.933977    11A     -0.867238    12A     -0.767351
      13A     -0.723943    14A     -0.635085    15A     -0.596754
      16A     -0.563406    17A     -0.551571    18A     -0.541817
      19A     -0.520304    20A     -0.435091    21A     -0.393373
      22A     -0.318493

  @DF-RHF Final Energy:  -263.90822644631686

   => Energetics <=

    Nuclear Repulsion Energy =            221.2953955616185908
    One-Electron Energy =                -795.2448644512394367
    Two-Electron Energy =                 310.0412424433040428
    Total Energy =                       -263.9082264463168599
  Basis Set: (AUG-CC-PVTZ AUX)
    Blend: AUG-CC-PVTZ-RI
    Molecular point group: c1

    Geometry (in Angstrom), charge = 0, multiplicity = 1:

       Center              X                  Y                   Z               Mass
    ------------   -----------------  -----------------  -----------------  -----------------
         C           -2.220112019581     0.028384083852     0.000044635902    12.000000000000
         C           -0.726843019581     0.053699083852    -0.000034364098    12.000000000000
         C            0.117356980419     1.145515083852    -0.000022364098    12.000000000000
         C            1.275829980419    -0.735659916148    -0.000048364098    12.000000000000
         N            0.007096980419    -1.115877916148    -0.000041364098    14.003074004430
         N            1.576596680419     0.548492983852     0.000097935902    14.003074004430
         H           -2.599273019581    -0.495233916148    -0.882119364098     1.007825032230
         H           -2.625888019581     1.044009083852    -0.000392364098     1.007825032230
         H           -0.068674019581     2.210068083852    -0.000402364098     1.007825032230
         H            2.135616980419    -1.392825916148     0.000015635902     1.007825032230
         H            2.253495980419     1.154475083852     0.000155635902     1.007825032230
         H           -2.599222019581    -0.494472916148     0.882676635902     1.007825032230

  Basis Set: AUG-CC-PVTZ
    Blend: AUG-CC-PVTZ
  Basis Set: (AUG-CC-PVTZ AUX)
    Blend: AUG-CC-PVTZ-JKFIT
	 Reference Energy          =    -263.9082264463168599 [Eh]
	 Singles Energy            =      -0.0000000000000000 [Eh]
	 Same-Spin Energy          =      -0.2850103842445633 [Eh]
	 Opposite-Spin Energy      =      -0.8974320404720875 [Eh]
	 Correlation Energy        =      -1.1824424247166507 [Eh]
	 Total Energy              =    -265.0906688710335288 [Eh]

	 ================> DF-SCS-MP2 Energies <==================
	-----------------------------------------------------------
	 SCS Same-Spin Scale       =       0.3333333333333333 [-]
	 SCS Opposite-Spin Scale   =       1.2000000000000000 [-]
	 SCS Same-Spin Energy      =      -0.0950034614148544 [Eh]
	 SCS Opposite-Spin Energy  =      -1.0769184485665049 [Eh]
	 SCS Correlation Energy    =      -1.1719219099813594 [Eh]
	 SCS Total Energy          =    -265.0801483562981957 [Eh]
	-----------------------------------------------------------

  Dipole Moment: [D]
     X:     1.6690      Y:     2.7375      Z:    -0.0001     Total:     3.2062

*** Psi4 exiting successfully. Buy a developer a beer!
