                               Psi4 1.4a3.dev225

  ==> Input File <==

--------------------------------------------------------------------------
#psi4
#
memory 32 gb

molecule  {
0 1
  C       -2.1510270    -0.0065590     0.0000050
  C       -0.6578210     0.0184680    -0.0000060
  C        0.1861760     1.1105370     0.0000080
  C        1.3450050    -0.7704390     0.0000010
  N        0.0497173    -1.1085128    -0.0000070
  N        1.4603370     0.5895500    -0.0000040
  H       -2.5304610    -0.5297300    -0.8823420
  H       -2.5565240     1.0091620    -0.0000020
  H       -0.0003960     2.1749820    -0.0000490
  H        2.2049760    -1.4273470     0.0000120
  H        2.3223630     1.1197620     0.0000400
  H       -2.5304440    -0.5297090     0.8823710
units angstrom
no_reorient  #important for SAPT in psi4, default
symmetry c1  #important for SAPT in psi4, default
}

set PROPERTIES_ORIGIN ["COM"]
properties('MP2/aug-cc-pvtz', properties = ['dipole'])
--------------------------------------------------------------------------

    Molecular point group: c1
  Charge       = 0
  Multiplicity = 1
  Basis Set: AUG-CC-PVTZ
    Blend: AUG-CC-PVTZ
  Basis Set: (AUG-CC-PVTZ AUX)
    Blend: AUG-CC-PVTZ-JKFIT

    Orbital Energies [Eh]
    ---------------------

    Doubly Occupied:

       1A    -15.623423     2A    -15.537847     3A    -11.297848
       4A    -11.250935     5A    -11.243577     6A    -11.214461
       7A     -1.338896     8A     -1.170700     9A     -1.026341
      10A     -0.937344    11A     -0.831049    12A     -0.766204
      13A     -0.736709    14A     -0.621978    15A     -0.605641
      16A     -0.595711    17A     -0.548088    18A     -0.543841
      19A     -0.526514    20A     -0.427586    21A     -0.395032
      22A     -0.305534

  @DF-RHF Final Energy:  -263.94756946308235

   => Energetics <=

    Nuclear Repulsion Energy =            224.6718433993245583
    One-Electron Energy =                -802.1483080682356785
    Two-Electron Energy =                 313.5288952058288032
    Total Energy =                       -263.9475694630823455
  Basis Set: (AUG-CC-PVTZ AUX)
    Blend: AUG-CC-PVTZ-RI
    Molecular point group: c1

    Geometry (in Angstrom), charge = 0, multiplicity = 1:

       Center              X                  Y                   Z               Mass
    ------------   -----------------  -----------------  -----------------  -----------------
         C           -2.183917031214     0.008207675457     0.000005338794    12.000000000000
         C           -0.690711031214     0.033234675457    -0.000005661206    12.000000000000
         C            0.153285968786     1.125303675457     0.000008338794    12.000000000000
         C            1.312114968786    -0.755672324543     0.000001338794    12.000000000000
         N            0.016827268786    -1.093746124543    -0.000006661206    14.003074004430
         N            1.427446968786     0.604316675457    -0.000003661206    14.003074004430
         H           -2.563351031214    -0.514963324543    -0.882341661206     1.007825032230
         H           -2.589414031214     1.023928675457    -0.000001661206     1.007825032230
         H           -0.033286031214     2.189748675457    -0.000048661206     1.007825032230
         H            2.172085968786    -1.412580324543     0.000012338794     1.007825032230
         H            2.289472968786     1.134528675457     0.000040338794     1.007825032230
         H           -2.563334031214    -0.514942324543     0.882371338794     1.007825032230

  Basis Set: AUG-CC-PVTZ
    Blend: AUG-CC-PVTZ
  Basis Set: (AUG-CC-PVTZ AUX)
    Blend: AUG-CC-PVTZ-JKFIT
	 Reference Energy          =    -263.9475694630823455 [Eh]
	 Singles Energy            =      -0.0000000000000000 [Eh]
	 Same-Spin Energy          =      -0.2875317604180851 [Eh]
	 Opposite-Spin Energy      =      -0.8969542222552878 [Eh]
	 Correlation Energy        =      -1.1844859826733729 [Eh]
	 Total Energy              =    -265.1320554457557250 [Eh]

	 ================> DF-SCS-MP2 Energies <==================
	-----------------------------------------------------------
	 SCS Same-Spin Scale       =       0.3333333333333333 [-]
	 SCS Opposite-Spin Scale   =       1.2000000000000000 [-]
	 SCS Same-Spin Energy      =      -0.0958439201393617 [Eh]
	 SCS Opposite-Spin Energy  =      -1.0763450667063452 [Eh]
	 SCS Correlation Energy    =      -1.1721889868457069 [Eh]
	 SCS Total Energy          =    -265.1197584499280424 [Eh]
	-----------------------------------------------------------

  Dipole Moment: [D]
     X:     2.1285      Y:     2.7696      Z:     0.0000     Total:     3.4930

*** Psi4 exiting successfully. Buy a developer a beer!
