                               Psi4 1.3.2 release

  ==> Input File <==

--------------------------------------------------------------------------
#psi4
#
memory 32 gb

molecule  {
0 1
  C       -2.1511020    -0.0065270     0.0000480
  C       -0.6578330     0.0187880    -0.0000310
  C        0.1081493     1.1668328    -0.0000188
  C        1.3448400    -0.7705710    -0.0000450
  N        0.0761070    -1.1507890    -0.0000380
  N        1.4605000     0.5893150     0.0000860
  H       -2.5302630    -0.5301450    -0.8821160
  H       -2.5568780     1.0090980    -0.0003890
  H        0.0003360     2.1751570    -0.0003990
  H        2.2046270    -1.4277370     0.0000190
  H        2.3225060     1.1195640     0.0001590
  H       -2.5302120    -0.5293840     0.8826800
units angstrom
no_reorient  #important for SAPT in psi4, default
symmetry c1  #important for SAPT in psi4, default
}

set PROPERTIES_ORIGIN ["COM"]
properties('MP2/aug-cc-pvtz', properties = ['dipole'])
--------------------------------------------------------------------------

    Molecular point group: c1
  Charge       = 0
  Multiplicity = 1
  Basis Set: AUG-CC-PVTZ
    Blend: AUG-CC-PVTZ
  Basis Set: (AUG-CC-PVTZ AUX)
    Blend: AUG-CC-PVTZ-JKFIT

    Orbital Energies [Eh]
    ---------------------

    Doubly Occupied:

       1A    -15.615141     2A    -15.541750     3A    -11.305083
       4A    -11.257124     5A    -11.254220     6A    -11.215349
       7A     -1.317416     8A     -1.153602     9A     -1.033947
      10A     -0.934751    11A     -0.823477    12A     -0.774289
      13A     -0.723566    14A     -0.631711    15A     -0.595352
      16A     -0.595157    17A     -0.544946    18A     -0.532440
      19A     -0.525212    20A     -0.436178    21A     -0.385870
      22A     -0.316957

  @DF-RHF Final Energy:  -263.93825882109945

   => Energetics <=

    Nuclear Repulsion Energy =            222.4865222319041607
    One-Electron Energy =                -797.8224915460554030
    Two-Electron Energy =                 311.3977104930518180
    Total Energy =                       -263.9382588210994527
  Basis Set: (AUG-CC-PVTZ AUX)
    Blend: AUG-CC-PVTZ-RI
    Molecular point group: c1

    Geometry (in Angstrom), charge = 0, multiplicity = 1:

       Center              X                  Y                   Z               Mass
    ------------   -----------------  -----------------  -----------------  -----------------
         C           -2.177082867774     0.007236292460     0.000047217731    12.000000000000
         C           -0.683813867774     0.032551292460    -0.000031782269    12.000000000000
         C            0.082168432226     1.180596092460    -0.000019582269    12.000000000000
         C            1.318859132226    -0.756807707540    -0.000045782269    12.000000000000
         N            0.050126132226    -1.137025707540    -0.000038782269    14.003074004430
         N            1.434519132226     0.603078292460     0.000085217731    14.003074004430
         H           -2.556243867774    -0.516381707540    -0.882116782269     1.007825032230
         H           -2.582858867774     1.022861292460    -0.000389782269     1.007825032230
         H           -0.025644867774     2.188920292460    -0.000399782269     1.007825032230
         H            2.178646132226    -1.413973707540     0.000018217731     1.007825032230
         H            2.296525132226     1.133327292460     0.000158217731     1.007825032230
         H           -2.556192867774    -0.515620707540     0.882679217731     1.007825032230

  Basis Set: AUG-CC-PVTZ
    Blend: AUG-CC-PVTZ
  Basis Set: (AUG-CC-PVTZ AUX)
    Blend: AUG-CC-PVTZ-JKFIT
	 Reference Energy          =    -263.9382588210994527 [Eh]
	 Singles Energy            =      -0.0000000000000000 [Eh]
	 Same-Spin Energy          =      -0.2861863900034274 [Eh]
	 Opposite-Spin Energy      =      -0.8975206628625148 [Eh]
	 Correlation Energy        =      -1.1837070528659421 [Eh]
	 Total Energy              =    -265.1219658739653937 [Eh]

	 ================> DF-SCS-MP2 Energies <==================
	-----------------------------------------------------------
	 SCS Same-Spin Scale       =       0.3333333333333333 [-]
	 SCS Opposite-Spin Scale   =       1.2000000000000000 [-]
	 SCS Same-Spin Energy      =      -0.0953954633344758 [Eh]
	 SCS Opposite-Spin Energy  =      -1.0770247954350176 [Eh]
	 SCS Correlation Energy    =      -1.1724202587694934 [Eh]
	 SCS Total Energy          =    -265.1106790798689303 [Eh]
	-----------------------------------------------------------

  Dipole Moment: [D]
     X:     1.9901      Y:     2.7671      Z:    -0.0001     Total:     3.4084

*** Psi4 exiting successfully. Buy a developer a beer!
