                               Psi4 1.3.2 release

  ==> Input File <==

--------------------------------------------------------------------------
#psi4
#
memory 32 gb

molecule  {
0 1
  C       -2.1511020    -0.0065270     0.0000480
  C       -0.6386496     0.0042210    -0.0000291
  C        0.1863670     1.1106040    -0.0000190
  C        1.3448400    -0.7705710    -0.0000450
  N        0.0761070    -1.1507890    -0.0000380
  N        1.4605000     0.5893150     0.0000860
  H       -2.5302630    -0.5301450    -0.8821160
  H       -2.5568780     1.0090980    -0.0003890
  H        0.0003360     2.1751570    -0.0003990
  H        2.2046270    -1.4277370     0.0000190
  H        2.3225060     1.1195640     0.0001590
  H       -2.5302120    -0.5293840     0.8826800
units angstrom
no_reorient  #important for SAPT in psi4, default
symmetry c1  #important for SAPT in psi4, default
}

set PROPERTIES_ORIGIN ["COM"]
properties('MP2/aug-cc-pvtz', properties = ['dipole'])
--------------------------------------------------------------------------

    Molecular point group: c1
  Charge       = 0
  Multiplicity = 1
  Basis Set: AUG-CC-PVTZ
    Blend: AUG-CC-PVTZ
  Basis Set: (AUG-CC-PVTZ AUX)
    Blend: AUG-CC-PVTZ-JKFIT

    Orbital Energies [Eh]
    ---------------------

    Doubly Occupied:

       1A    -15.621243     2A    -15.541685     3A    -11.297584
       4A    -11.252569     5A    -11.247652     6A    -11.215720
       7A     -1.337943     8A     -1.169123     9A     -1.026335
      10A     -0.934804    11A     -0.827325    12A     -0.770226
      13A     -0.734415    14A     -0.618426    15A     -0.604531
      16A     -0.597526    17A     -0.547450    18A     -0.534544
      19A     -0.526122    20A     -0.435386    21A     -0.395002
      22A     -0.308082

  @DF-RHF Final Energy:  -263.94939583741115

   => Energetics <=

    Nuclear Repulsion Energy =            224.0257470933278228
    One-Electron Energy =                -800.8628979836603321
    Two-Electron Energy =                 312.8877550529213636
    Total Energy =                       -263.9493958374111457
  Basis Set: (AUG-CC-PVTZ AUX)
    Blend: AUG-CC-PVTZ-RI
    Molecular point group: c1

    Geometry (in Angstrom), charge = 0, multiplicity = 1:

       Center              X                  Y                   Z               Mass
    ------------   -----------------  -----------------  -----------------  -----------------
         C           -2.191327463354     0.017589949038     0.000046969111    12.000000000000
         C           -0.678875063354     0.028337949038    -0.000030130889    12.000000000000
         C            0.146141536646     1.134720949038    -0.000020030889    12.000000000000
         C            1.304614536646    -0.746454050962    -0.000046030889    12.000000000000
         N            0.035881536646    -1.126672050962    -0.000039030889    14.003074004430
         N            1.420274536646     0.613431949038     0.000084969111    14.003074004430
         H           -2.570488463354    -0.506028050962    -0.882117030889     1.007825032230
         H           -2.597103463354     1.033214949038    -0.000390030889     1.007825032230
         H           -0.039889463354     2.199273949038    -0.000400030889     1.007825032230
         H            2.164401536646    -1.403620050962     0.000017969111     1.007825032230
         H            2.282280536646     1.143680949038     0.000157969111     1.007825032230
         H           -2.570437463354    -0.505267050962     0.882678969111     1.007825032230

  Basis Set: AUG-CC-PVTZ
    Blend: AUG-CC-PVTZ
  Basis Set: (AUG-CC-PVTZ AUX)
    Blend: AUG-CC-PVTZ-JKFIT
	 Reference Energy          =    -263.9493958374111457 [Eh]
	 Singles Energy            =      -0.0000000000000000 [Eh]
	 Same-Spin Energy          =      -0.2868602365187294 [Eh]
	 Opposite-Spin Energy      =      -0.8965864578780472 [Eh]
	 Correlation Energy        =      -1.1834466943967767 [Eh]
	 Total Energy              =    -265.1328425318079098 [Eh]

	 ================> DF-SCS-MP2 Energies <==================
	-----------------------------------------------------------
	 SCS Same-Spin Scale       =       0.3333333333333333 [-]
	 SCS Opposite-Spin Scale   =       1.2000000000000000 [-]
	 SCS Same-Spin Energy      =      -0.0956200788395765 [Eh]
	 SCS Opposite-Spin Energy  =      -1.0759037494536567 [Eh]
	 SCS Correlation Energy    =      -1.1715238282932332 [Eh]
	 SCS Total Energy          =    -265.1209196657043776 [Eh]
	-----------------------------------------------------------

  Dipole Moment: [D]
     X:     2.1104      Y:     2.8360      Z:    -0.0001     Total:     3.5351

*** Psi4 exiting successfully. Buy a developer a beer!
