                               Psi4 1.3.2 release

  ==> Input File <==

--------------------------------------------------------------------------
#psi4
#
memory 32 gb

molecule  {
0 1
  C       -2.1511020    -0.0065270     0.0000480
  C       -0.6578330     0.0187880    -0.0000310
  C        0.1863670     1.1106040    -0.0000190
  C        1.3448400    -0.7705710    -0.0000450
  N        0.1057202    -1.2383651    -0.0000477
  N        1.4605000     0.5893150     0.0000860
  H       -2.5302630    -0.5301450    -0.8821160
  H       -2.5568780     1.0090980    -0.0003890
  H        0.0003360     2.1751570    -0.0003990
  H        2.2046270    -1.4277370     0.0000190
  H        2.3225060     1.1195640     0.0001590
  H       -2.5302120    -0.5293840     0.8826800
units angstrom
no_reorient  #important for SAPT in psi4, default
symmetry c1  #important for SAPT in psi4, default
}

set PROPERTIES_ORIGIN ["COM"]
properties('MP2/aug-cc-pvtz', properties = ['dipole'])
--------------------------------------------------------------------------

    Molecular point group: c1
  Charge       = 0
  Multiplicity = 1
  Basis Set: AUG-CC-PVTZ
    Blend: AUG-CC-PVTZ
  Basis Set: (AUG-CC-PVTZ AUX)
    Blend: AUG-CC-PVTZ-JKFIT

    Orbital Energies [Eh]
    ---------------------

    Doubly Occupied:

       1A    -15.618254     2A    -15.552306     3A    -11.300659
       4A    -11.258765     5A    -11.256425     6A    -11.217273
       7A     -1.326058     8A     -1.154114     9A     -1.031842
      10A     -0.936448    11A     -0.817395    12A     -0.768433
      13A     -0.733944    14A     -0.608944    15A     -0.599481
      16A     -0.598025    17A     -0.549757    18A     -0.537465
      19A     -0.517645    20A     -0.442017    21A     -0.386370
      22A     -0.313544

  @DF-RHF Final Energy:  -263.94102125619997

   => Energetics <=

    Nuclear Repulsion Energy =            221.8611132235643311
    One-Electron Energy =                -796.5539392539242272
    Two-Electron Energy =                 310.7518047741599503
    Total Energy =                       -263.9410212561999742
  Basis Set: (AUG-CC-PVTZ AUX)
    Blend: AUG-CC-PVTZ-RI
    Molecular point group: c1

    Geometry (in Angstrom), charge = 0, multiplicity = 1:

       Center              X                  Y                   Z               Mass
    ------------   -----------------  -----------------  -----------------  -----------------
         C           -2.193575703033     0.030405194683     0.000048902370    12.000000000000
         C           -0.700306703033     0.055720194683    -0.000030097630    12.000000000000
         C            0.143893296967     1.147536194683    -0.000018097630    12.000000000000
         C            1.302366296967    -0.733638805317    -0.000044097630    12.000000000000
         N            0.063246496967    -1.201432905317    -0.000046797630    14.003074004430
         N            1.418026296967     0.626247194683     0.000086902370    14.003074004430
         H           -2.572736703033    -0.493212805317    -0.882115097630     1.007825032230
         H           -2.599351703033     1.046030194683    -0.000388097630     1.007825032230
         H           -0.042137703033     2.212089194683    -0.000398097630     1.007825032230
         H            2.162153296967    -1.390804805317     0.000019902370     1.007825032230
         H            2.280032296967     1.156496194683     0.000159902370     1.007825032230
         H           -2.572685703033    -0.492451805317     0.882680902370     1.007825032230

  Basis Set: AUG-CC-PVTZ
    Blend: AUG-CC-PVTZ
  Basis Set: (AUG-CC-PVTZ AUX)
    Blend: AUG-CC-PVTZ-JKFIT
	 Reference Energy          =    -263.9410212561999742 [Eh]
	 Singles Energy            =      -0.0000000000000000 [Eh]
	 Same-Spin Energy          =      -0.2863223452635272 [Eh]
	 Opposite-Spin Energy      =      -0.8984358356643483 [Eh]
	 Correlation Energy        =      -1.1847581809278755 [Eh]
	 Total Energy              =    -265.1257794371278464 [Eh]

	 ================> DF-SCS-MP2 Energies <==================
	-----------------------------------------------------------
	 SCS Same-Spin Scale       =       0.3333333333333333 [-]
	 SCS Opposite-Spin Scale   =       1.2000000000000000 [-]
	 SCS Same-Spin Energy      =      -0.0954407817545091 [Eh]
	 SCS Opposite-Spin Energy  =      -1.0781230027972180 [Eh]
	 SCS Correlation Energy    =      -1.1735637845517271 [Eh]
	 SCS Total Energy          =    -265.1145850407517059 [Eh]
	-----------------------------------------------------------

  Dipole Moment: [D]
     X:     2.0027      Y:     2.9971      Z:    -0.0000     Total:     3.6047

*** Psi4 exiting successfully. Buy a developer a beer!
