                               Psi4 1.3.2 release

  ==> Input File <==

--------------------------------------------------------------------------
#psi4
#
memory 32 gb

molecule  {
0 1
  C       -2.1511020    -0.0065270     0.0000480
  C       -0.7319378     0.0803360    -0.0000384
  C        0.1863670     1.1106040    -0.0000190
  C        1.3448400    -0.7705710    -0.0000450
  N        0.0761070    -1.1507890    -0.0000380
  N        1.4605000     0.5893150     0.0000860
  H       -2.5302630    -0.5301450    -0.8821160
  H       -2.5568780     1.0090980    -0.0003890
  H        0.0003360     2.1751570    -0.0003990
  H        2.2046270    -1.4277370     0.0000190
  H        2.3225060     1.1195640     0.0001590
  H       -2.5302120    -0.5293840     0.8826800
units angstrom
no_reorient  #important for SAPT in psi4, default
symmetry c1  #important for SAPT in psi4, default
}

set PROPERTIES_ORIGIN ["COM"]
properties('MP2/aug-cc-pvtz', properties = ['dipole'])
--------------------------------------------------------------------------

    Molecular point group: c1
  Charge       = 0
  Multiplicity = 1
  Basis Set: AUG-CC-PVTZ
    Blend: AUG-CC-PVTZ
  Basis Set: (AUG-CC-PVTZ AUX)
    Blend: AUG-CC-PVTZ-JKFIT

    Orbital Energies [Eh]
    ---------------------

    Doubly Occupied:

       1A    -15.616520     2A    -15.542763     3A    -11.297639
       4A    -11.259283     5A    -11.251919     6A    -11.215471
       7A     -1.323433     8A     -1.146577     9A     -1.043170
      10A     -0.944580    11A     -0.812647    12A     -0.763056
      13A     -0.740470    14A     -0.616127    15A     -0.601110
      16A     -0.592522    17A     -0.566001    18A     -0.553813
      19A     -0.517433    20A     -0.420475    21A     -0.378683
      22A     -0.313249

  @DF-RHF Final Energy:  -263.93766457842543

   => Energetics <=

    Nuclear Repulsion Energy =            222.9186100424415429
    One-Electron Energy =                -798.6786680708062249
    Two-Electron Energy =                 311.8223934499392840
    Total Energy =                       -263.9376645784254265
  Basis Set: (AUG-CC-PVTZ AUX)
    Blend: AUG-CC-PVTZ-RI
    Molecular point group: c1

    Geometry (in Angstrom), charge = 0, multiplicity = 1:

       Center              X                  Y                   Z               Mass
    ------------   -----------------  -----------------  -----------------  -----------------
         C           -2.177684366085     0.006458376678     0.000048329206    12.000000000000
         C           -0.758520166085     0.093321376678    -0.000038070794    12.000000000000
         C            0.159784633915     1.123589376678    -0.000018670794    12.000000000000
         C            1.318257633915    -0.757585623322    -0.000044670794    12.000000000000
         N            0.049524633915    -1.137803623322    -0.000037670794    14.003074004430
         N            1.433917633915     0.602300376678     0.000086329206    14.003074004430
         H           -2.556845366085    -0.517159623322    -0.882115670794     1.007825032230
         H           -2.583460366085     1.022083376678    -0.000388670794     1.007825032230
         H           -0.026246366085     2.188142376678    -0.000398670794     1.007825032230
         H            2.178044633915    -1.414751623322     0.000019329206     1.007825032230
         H            2.295923633915     1.132549376678     0.000159329206     1.007825032230
         H           -2.556794366085    -0.516398623322     0.882680329206     1.007825032230

  Basis Set: AUG-CC-PVTZ
    Blend: AUG-CC-PVTZ
  Basis Set: (AUG-CC-PVTZ AUX)
    Blend: AUG-CC-PVTZ-JKFIT
	 Reference Energy          =    -263.9376645784254265 [Eh]
	 Singles Energy            =      -0.0000000000000000 [Eh]
	 Same-Spin Energy          =      -0.2871068636871305 [Eh]
	 Opposite-Spin Energy      =      -0.8986155594541050 [Eh]
	 Correlation Energy        =      -1.1857224231412355 [Eh]
	 Total Energy              =    -265.1233870015666412 [Eh]

	 ================> DF-SCS-MP2 Energies <==================
	-----------------------------------------------------------
	 SCS Same-Spin Scale       =       0.3333333333333333 [-]
	 SCS Opposite-Spin Scale   =       1.2000000000000000 [-]
	 SCS Same-Spin Energy      =      -0.0957022878957101 [Eh]
	 SCS Opposite-Spin Energy  =      -1.0783386713449259 [Eh]
	 SCS Correlation Energy    =      -1.1740409592406360 [Eh]
	 SCS Total Energy          =    -265.1117055376660687 [Eh]
	-----------------------------------------------------------

  Dipole Moment: [D]
     X:     1.9241      Y:     2.8509      Z:    -0.0000     Total:     3.4394

*** Psi4 exiting successfully. Buy a developer a beer!
