                               Psi4 1.3.2 release

  ==> Input File <==

--------------------------------------------------------------------------
#psi4
#
memory 32 gb

molecule  {
0 1
  C       -2.1511020    -0.0065270     0.0000480
  C       -0.6578330     0.0187880    -0.0000310
  C        0.1863670     1.1106040    -0.0000190
  C        1.3448400    -0.7705710    -0.0000450
  N        0.1228009    -1.2813248    -0.0000526
  N        1.4605000     0.5893150     0.0000860
  H       -2.5302630    -0.5301450    -0.8821160
  H       -2.5568780     1.0090980    -0.0003890
  H        0.0003360     2.1751570    -0.0003990
  H        2.2046270    -1.4277370     0.0000190
  H        2.3225060     1.1195640     0.0001590
  H       -2.5302120    -0.5293840     0.8826800
units angstrom
no_reorient  #important for SAPT in psi4, default
symmetry c1  #important for SAPT in psi4, default
}

set PROPERTIES_ORIGIN ["COM"]
properties('MP2/aug-cc-pvtz', properties = ['dipole'])
--------------------------------------------------------------------------

    Molecular point group: c1
  Charge       = 0
  Multiplicity = 1
  Basis Set: AUG-CC-PVTZ
    Blend: AUG-CC-PVTZ
  Basis Set: (AUG-CC-PVTZ AUX)
    Blend: AUG-CC-PVTZ-JKFIT

    Orbital Energies [Eh]
    ---------------------

    Doubly Occupied:

       1A    -15.617479     2A    -15.557012     3A    -11.302112
       4A    -11.261366     5A    -11.259826     6A    -11.218002
       7A     -1.322839     8A     -1.150103     9A     -1.032936
      10A     -0.936395    11A     -0.815899    12A     -0.767005
      13A     -0.733158    14A     -0.605975    15A     -0.598013
      16A     -0.597632    17A     -0.550236    18A     -0.537140
      19A     -0.514461    20A     -0.443198    21A     -0.384951
      22A     -0.315234

  @DF-RHF Final Energy:  -263.93279560235555

   => Energetics <=

    Nuclear Repulsion Energy =            220.9588497180126296
    One-Electron Energy =                -794.7413431679257201
    Two-Electron Energy =                 309.8496978475575361
    Total Energy =                       -263.9327956023555544
  Basis Set: (AUG-CC-PVTZ AUX)
    Blend: AUG-CC-PVTZ-RI
    Molecular point group: c1

    Geometry (in Angstrom), charge = 0, multiplicity = 1:

       Center              X                  Y                   Z               Mass
    ------------   -----------------  -----------------  -----------------  -----------------
         C           -2.196490672868     0.037736640679     0.000049738597    12.000000000000
         C           -0.703221672868     0.063051640679    -0.000029261403    12.000000000000
         C            0.140978327132     1.154867640679    -0.000017261403    12.000000000000
         C            1.299451327132    -0.726307359321    -0.000043261403    12.000000000000
         N            0.077412227132    -1.237061159321    -0.000050861403    14.003074004430
         N            1.415111327132     0.633578640679     0.000087738597    14.003074004430
         H           -2.575651672868    -0.485881359321    -0.882114261403     1.007825032230
         H           -2.602266672868     1.053361640679    -0.000387261403     1.007825032230
         H           -0.045052672868     2.219420640679    -0.000397261403     1.007825032230
         H            2.159238327132    -1.383473359321     0.000020738597     1.007825032230
         H            2.277117327132     1.163827640679     0.000160738597     1.007825032230
         H           -2.575600672868    -0.485120359321     0.882681738597     1.007825032230

  Basis Set: AUG-CC-PVTZ
    Blend: AUG-CC-PVTZ
  Basis Set: (AUG-CC-PVTZ AUX)
    Blend: AUG-CC-PVTZ-JKFIT
	 Reference Energy          =    -263.9327956023555544 [Eh]
	 Singles Energy            =      -0.0000000000000000 [Eh]
	 Same-Spin Energy          =      -0.2862300263892535 [Eh]
	 Opposite-Spin Energy      =      -0.8995919819577469 [Eh]
	 Correlation Energy        =      -1.1858220083470004 [Eh]
	 Total Energy              =    -265.1186176107025290 [Eh]

	 ================> DF-SCS-MP2 Energies <==================
	-----------------------------------------------------------
	 SCS Same-Spin Scale       =       0.3333333333333333 [-]
	 SCS Opposite-Spin Scale   =       1.2000000000000000 [-]
	 SCS Same-Spin Energy      =      -0.0954100087964178 [Eh]
	 SCS Opposite-Spin Energy  =      -1.0795103783492963 [Eh]
	 SCS Correlation Energy    =      -1.1749203871457141 [Eh]
	 SCS Total Energy          =    -265.1077159895012869 [Eh]
	-----------------------------------------------------------

  Dipole Moment: [D]
     X:     1.9590      Y:     3.0645      Z:    -0.0000     Total:     3.6371

*** Psi4 exiting successfully. Buy a developer a beer!
