                               Psi4 1.3.2 release

  ==> Input File <==

--------------------------------------------------------------------------
#psi4
#
memory 32 gb

molecule  {
0 1
  C       -2.1511020    -0.0065270     0.0000480
  C       -0.6578330     0.0187880    -0.0000310
  C        0.1251985     1.0314939    -0.0000199
  C        1.3448400    -0.7705710    -0.0000450
  N        0.0761070    -1.1507890    -0.0000380
  N        1.4605000     0.5893150     0.0000860
  H       -2.5302630    -0.5301450    -0.8821160
  H       -2.5568780     1.0090980    -0.0003890
  H        0.0003360     2.1751570    -0.0003990
  H        2.2046270    -1.4277370     0.0000190
  H        2.3225060     1.1195640     0.0001590
  H       -2.5302120    -0.5293840     0.8826800
units angstrom
no_reorient  #important for SAPT in psi4, default
symmetry c1  #important for SAPT in psi4, default
}

set PROPERTIES_ORIGIN ["COM"]
properties('MP2/aug-cc-pvtz', properties = ['dipole'])
--------------------------------------------------------------------------

    Molecular point group: c1
  Charge       = 0
  Multiplicity = 1
  Basis Set: AUG-CC-PVTZ
    Blend: AUG-CC-PVTZ
  Basis Set: (AUG-CC-PVTZ AUX)
    Blend: AUG-CC-PVTZ-JKFIT

    Orbital Energies [Eh]
    ---------------------

    Doubly Occupied:

       1A    -15.613479     2A    -15.537992     3A    -11.299688
       4A    -11.250042     5A    -11.235308     6A    -11.216159
       7A     -1.334910     8A     -1.159082     9A     -1.040283
      10A     -0.940219    11A     -0.825540    12A     -0.758820
      13A     -0.739211    14A     -0.625067    15A     -0.606389
      16A     -0.573219    17A     -0.547786    18A     -0.540281
      19A     -0.525648    20A     -0.431429    21A     -0.387814
      22A     -0.328693

  @DF-RHF Final Energy:  -263.93851926829552

   => Energetics <=

    Nuclear Repulsion Energy =            225.1430352269933906
    One-Electron Energy =                -803.1289858823447503
    Two-Electron Energy =                 314.0474313870558944
    Total Energy =                       -263.9385192682955221
  Basis Set: (AUG-CC-PVTZ AUX)
    Blend: AUG-CC-PVTZ-RI
    Molecular point group: c1

    Geometry (in Angstrom), charge = 0, multiplicity = 1:

       Center              X                  Y                   Z               Mass
    ------------   -----------------  -----------------  -----------------  -----------------
         C           -2.179576258084     0.027029168483     0.000047378602    12.000000000000
         C           -0.686307258084     0.052344168483    -0.000031621398    12.000000000000
         C            0.096724241916     1.065050068483    -0.000020521398    12.000000000000
         C            1.316365741916    -0.737014831517    -0.000045621398    12.000000000000
         N            0.047632741916    -1.117232831517    -0.000038621398    14.003074004430
         N            1.432025741916     0.622871168483     0.000085378602    14.003074004430
         H           -2.558737258084    -0.496588831517    -0.882116621398     1.007825032230
         H           -2.585352258084     1.042654168483    -0.000389621398     1.007825032230
         H           -0.028138258084     2.208713168483    -0.000399621398     1.007825032230
         H            2.176152741916    -1.394180831517     0.000018378602     1.007825032230
         H            2.294031741916     1.153120168483     0.000158378602     1.007825032230
         H           -2.558686258084    -0.495827831517     0.882679378602     1.007825032230

  Basis Set: AUG-CC-PVTZ
    Blend: AUG-CC-PVTZ
  Basis Set: (AUG-CC-PVTZ AUX)
    Blend: AUG-CC-PVTZ-JKFIT
	 Reference Energy          =    -263.9385192682955221 [Eh]
	 Singles Energy            =      -0.0000000000000000 [Eh]
	 Same-Spin Energy          =      -0.2854522978581784 [Eh]
	 Opposite-Spin Energy      =      -0.8952228036840824 [Eh]
	 Correlation Energy        =      -1.1806751015422607 [Eh]
	 Total Energy              =    -265.1191943698377713 [Eh]

	 ================> DF-SCS-MP2 Energies <==================
	-----------------------------------------------------------
	 SCS Same-Spin Scale       =       0.3333333333333333 [-]
	 SCS Opposite-Spin Scale   =       1.2000000000000000 [-]
	 SCS Same-Spin Energy      =      -0.0951507659527261 [Eh]
	 SCS Opposite-Spin Energy  =      -1.0742673644208989 [Eh]
	 SCS Correlation Energy    =      -1.1694181303736251 [Eh]
	 SCS Total Energy          =    -265.1079373986691508 [Eh]
	-----------------------------------------------------------

  Dipole Moment: [D]
     X:     2.0187      Y:     2.7985      Z:    -0.0000     Total:     3.4506

*** Psi4 exiting successfully. Buy a developer a beer!
