                               Psi4 1.3.2 release

  ==> Input File <==

--------------------------------------------------------------------------
#psi4
#
memory 32 gb

molecule  {
0 1
  C       -2.1492304     0.0976998     0.0000534
  C       -0.6578330     0.0187880    -0.0000310
  C        0.1863670     1.1106040    -0.0000190
  C        1.3448400    -0.7705710    -0.0000450
  N        0.0761070    -1.1507890    -0.0000380
  N        1.4605000     0.5893150     0.0000860
  H       -2.5302630    -0.5301450    -0.8821160
  H       -2.5568780     1.0090980    -0.0003890
  H        0.0003360     2.1751570    -0.0003990
  H        2.2046270    -1.4277370     0.0000190
  H        2.3225060     1.1195640     0.0001590
  H       -2.5302120    -0.5293840     0.8826800
units angstrom
no_reorient  #important for SAPT in psi4, default
symmetry c1  #important for SAPT in psi4, default
}

set PROPERTIES_ORIGIN ["COM"]
properties('MP2/aug-cc-pvtz', properties = ['dipole'])
--------------------------------------------------------------------------

    Molecular point group: c1
  Charge       = 0
  Multiplicity = 1
  Basis Set: AUG-CC-PVTZ
    Blend: AUG-CC-PVTZ
  Basis Set: (AUG-CC-PVTZ AUX)
    Blend: AUG-CC-PVTZ-JKFIT

    Orbital Energies [Eh]
    ---------------------

    Doubly Occupied:

       1A    -15.619713     2A    -15.544034     3A    -11.298691
       4A    -11.251607     5A    -11.249496     6A    -11.218025
       7A     -1.334429     8A     -1.163980     9A     -1.032026
      10A     -0.936717    11A     -0.824732    12A     -0.770134
      13A     -0.736297    14A     -0.625825    15A     -0.600446
      16A     -0.596749    17A     -0.556632    18A     -0.530220
      19A     -0.525244    20A     -0.432461    21A     -0.390620
      22A     -0.306801

  @DF-RHF Final Energy:  -263.93689687625135

   => Energetics <=

    Nuclear Repulsion Energy =            223.7717414845375572
    One-Electron Energy =                -800.3275223518575103
    Two-Electron Energy =                 312.6188839910686283
    Total Energy =                       -263.9368968762513532
  Basis Set: (AUG-CC-PVTZ AUX)
    Blend: AUG-CC-PVTZ-RI
    Molecular point group: c1

    Geometry (in Angstrom), charge = 0, multiplicity = 1:

       Center              X                  Y                   Z               Mass
    ------------   -----------------  -----------------  -----------------  -----------------
         C           -2.186924068644     0.104443540333     0.000051857248    12.000000000000
         C           -0.695526668644     0.025531740333    -0.000032542752    12.000000000000
         C            0.148673331356     1.117347740333    -0.000020542752    12.000000000000
         C            1.307146331356    -0.763827259667    -0.000046542752    12.000000000000
         N            0.038413331356    -1.144045259667    -0.000039542752    14.003074004430
         N            1.422806331356     0.596058740333     0.000084457248    14.003074004430
         H           -2.567956668644    -0.523401259667    -0.882117542752     1.007825032230
         H           -2.594571668644     1.015841740333    -0.000390542752     1.007825032230
         H           -0.037357668644     2.181900740333    -0.000400542752     1.007825032230
         H            2.166933331356    -1.420993259667     0.000017457248     1.007825032230
         H            2.284812331356     1.126307740333     0.000157457248     1.007825032230
         H           -2.567905668644    -0.522640259667     0.882678457248     1.007825032230

  Basis Set: AUG-CC-PVTZ
    Blend: AUG-CC-PVTZ
  Basis Set: (AUG-CC-PVTZ AUX)
    Blend: AUG-CC-PVTZ-JKFIT
	 Reference Energy          =    -263.9368968762513532 [Eh]
	 Singles Energy            =      -0.0000000000000000 [Eh]
	 Same-Spin Energy          =      -0.2870549293250483 [Eh]
	 Opposite-Spin Energy      =      -0.8972362555816699 [Eh]
	 Correlation Energy        =      -1.1842911849067181 [Eh]
	 Total Energy              =    -265.1211880611580796 [Eh]

	 ================> DF-SCS-MP2 Energies <==================
	-----------------------------------------------------------
	 SCS Same-Spin Scale       =       0.3333333333333333 [-]
	 SCS Opposite-Spin Scale   =       1.2000000000000000 [-]
	 SCS Same-Spin Energy      =      -0.0956849764416828 [Eh]
	 SCS Opposite-Spin Energy  =      -1.0766835066980038 [Eh]
	 SCS Correlation Energy    =      -1.1723684831396866 [Eh]
	 SCS Total Energy          =    -265.1092653593910313 [Eh]
	-----------------------------------------------------------

  Dipole Moment: [D]
     X:     2.0634      Y:     2.8805      Z:    -0.0001     Total:     3.5433

*** Psi4 exiting successfully. Buy a developer a beer!
