                               Psi4 1.4a3.dev225

  ==> Input File <==

--------------------------------------------------------------------------
#psi4
#
memory 32 gb

molecule  {
0 1
  O        1.4032031    -0.5837802     0.0295232
  O       -1.4102950    -0.5835890    -0.1635680
  C        0.6753190     0.6118990    -0.2881280
  C       -0.7297860     0.5791870     0.2830810
  H        1.2295620     1.4983740     0.0482790
  H        0.6301520     0.6189470    -1.3788980
  H       -1.3096140     1.4447800    -0.0505840
  H       -0.6789700     0.6132250     1.3845490
  H        1.5826490    -0.5504470     1.0004920
  H       -0.7479790    -1.2966940    -0.0970910
units angstrom
no_reorient  #important for SAPT in psi4, default
symmetry c1  #important for SAPT in psi4, default
}

set PROPERTIES_ORIGIN ["COM"]
properties('MP2/aug-cc-pvtz', properties = ['dipole'])
--------------------------------------------------------------------------

    Molecular point group: c1
  Charge       = 0
  Multiplicity = 1
  Basis Set: AUG-CC-PVTZ
    Blend: AUG-CC-PVTZ
  Basis Set: (AUG-CC-PVTZ AUX)
    Blend: AUG-CC-PVTZ-JKFIT

    Orbital Energies [Eh]
    ---------------------

    Doubly Occupied:

       1A    -20.578422     2A    -20.556711     3A    -11.286022
       4A    -11.281871     5A     -1.378354     6A     -1.348040
       7A     -1.001418     8A     -0.850718     9A     -0.705995
      10A     -0.686508    11A     -0.645936    12A     -0.617251
      13A     -0.570971    14A     -0.528780    15A     -0.509746
      16A     -0.473786    17A     -0.439411

  @DF-RHF Final Energy:  -229.02673967703828

   => Energetics <=

    Nuclear Repulsion Energy =            133.1741508492490311
    One-Electron Energy =                -577.4819034176722425
    Two-Electron Energy =                 215.2810128913849326
    Total Energy =                       -229.0267396770382788
  Basis Set: (AUG-CC-PVTZ AUX)
    Blend: AUG-CC-PVTZ-RI
    Molecular point group: c1

    Geometry (in Angstrom), charge = 0, multiplicity = 1:

       Center              X                  Y                   Z               Mass
    ------------   -----------------  -----------------  -----------------  -----------------
         O            1.404101203154    -0.551016804165     0.050329515520    15.994914619570
         O           -1.409396896846    -0.550825604165    -0.142761684480    15.994914619570
         C            0.676217103154     0.644662395835    -0.267321684480    12.000000000000
         C           -0.728887896846     0.611950395835     0.303887315520    12.000000000000
         H            1.230460103154     1.531137395835     0.069085315520     1.007825032230
         H            0.631050103154     0.651710395835    -1.358091684480     1.007825032230
         H           -1.308715896846     1.477543395835    -0.029777684480     1.007825032230
         H           -0.678071896846     0.645988395835     1.405355315520     1.007825032230
         H            1.583547103154    -0.517683604165     1.021298315520     1.007825032230
         H           -0.747080896846    -1.263930604165    -0.076284684480     1.007825032230

  Basis Set: AUG-CC-PVTZ
    Blend: AUG-CC-PVTZ
  Basis Set: (AUG-CC-PVTZ AUX)
    Blend: AUG-CC-PVTZ-JKFIT
	 Reference Energy          =    -229.0267396770382788 [Eh]
	 Singles Energy            =      -0.0000000000000000 [Eh]
	 Same-Spin Energy          =      -0.2169605610208315 [Eh]
	 Opposite-Spin Energy      =      -0.7056734049342240 [Eh]
	 Correlation Energy        =      -0.9226339659550555 [Eh]
	 Total Energy              =    -229.9493736429933222 [Eh]

	 ================> DF-SCS-MP2 Energies <==================
	-----------------------------------------------------------
	 SCS Same-Spin Scale       =       0.3333333333333333 [-]
	 SCS Opposite-Spin Scale   =       1.2000000000000000 [-]
	 SCS Same-Spin Energy      =      -0.0723201870069438 [Eh]
	 SCS Opposite-Spin Energy  =      -0.8468080859210688 [Eh]
	 SCS Correlation Energy    =      -0.9191282729280127 [Eh]
	 SCS Total Energy          =    -229.9458679499662992 [Eh]
	-----------------------------------------------------------

  Dipole Moment: [D]
     X:     1.2913      Y:     1.4431      Z:     1.5137     Total:     2.4580

*** Psi4 exiting successfully. Buy a developer a beer!
