                               Psi4 1.4a3.dev225

  ==> Input File <==

--------------------------------------------------------------------------
#psi4
#
memory 32 gb

molecule  {
0 1
  O        1.3629200    -0.6007480     0.0540100
  O       -1.4102950    -0.5835890    -0.1635680
  C        0.6657384     0.6287953    -0.2928952
  C       -0.7297860     0.5791870     0.2830810
  H        1.2295620     1.4983740     0.0482790
  H        0.6301520     0.6189470    -1.3788980
  H       -1.3096140     1.4447800    -0.0505840
  H       -0.6789700     0.6132250     1.3845490
  H        1.5826490    -0.5504470     1.0004920
  H       -0.7479790    -1.2966940    -0.0970910
units angstrom
no_reorient  #important for SAPT in psi4, default
symmetry c1  #important for SAPT in psi4, default
}

set PROPERTIES_ORIGIN ["COM"]
properties('MP2/aug-cc-pvtz', properties = ['dipole'])
--------------------------------------------------------------------------

    Molecular point group: c1
  Charge       = 0
  Multiplicity = 1
  Basis Set: AUG-CC-PVTZ
    Blend: AUG-CC-PVTZ
  Basis Set: (AUG-CC-PVTZ AUX)
    Blend: AUG-CC-PVTZ-JKFIT

    Orbital Energies [Eh]
    ---------------------

    Doubly Occupied:

       1A    -20.574512     2A    -20.555554     3A    -11.286689
       4A    -11.280898     5A     -1.375742     6A     -1.345028
       7A     -1.004616     8A     -0.851093     9A     -0.704122
      10A     -0.689681    11A     -0.643829    12A     -0.614639
      13A     -0.570276    14A     -0.525739    15A     -0.511719
      16A     -0.474158    17A     -0.441111

  @DF-RHF Final Energy:  -229.02738486254020

   => Energetics <=

    Nuclear Repulsion Energy =            133.4033463642935544
    One-Electron Energy =                -577.9626523028221072
    Two-Electron Energy =                 215.5319210759883504
    Total Energy =                       -229.0273848625402024
  Basis Set: (AUG-CC-PVTZ AUX)
    Blend: AUG-CC-PVTZ-RI
    Molecular point group: c1

    Geometry (in Angstrom), charge = 0, multiplicity = 1:

       Center              X                  Y                   Z               Mass
    ------------   -----------------  -----------------  -----------------  -----------------
         O            1.376057486823    -0.566878116806     0.069425031859    15.994914619570
         O           -1.397157513177    -0.549719116806    -0.148152968141    15.994914619570
         C            0.678875886823     0.662665183194    -0.277480168141    12.000000000000
         C           -0.716648513177     0.613056883194     0.298496031859    12.000000000000
         H            1.242699486823     1.532243883194     0.063694031859     1.007825032230
         H            0.643289486823     0.652816883194    -1.363482968141     1.007825032230
         H           -1.296476513177     1.478649883194    -0.035168968141     1.007825032230
         H           -0.665832513177     0.647094883194     1.399964031859     1.007825032230
         H            1.595786486823    -0.516577116806     1.015907031859     1.007825032230
         H           -0.734841513177    -1.262824116806    -0.081675968141     1.007825032230

  Basis Set: AUG-CC-PVTZ
    Blend: AUG-CC-PVTZ
  Basis Set: (AUG-CC-PVTZ AUX)
    Blend: AUG-CC-PVTZ-JKFIT
	 Reference Energy          =    -229.0273848625402024 [Eh]
	 Singles Energy            =      -0.0000000000000000 [Eh]
	 Same-Spin Energy          =      -0.2168989419824822 [Eh]
	 Opposite-Spin Energy      =      -0.7054992260835328 [Eh]
	 Correlation Energy        =      -0.9223981680660149 [Eh]
	 Total Energy              =    -229.9497830306062269 [Eh]

	 ================> DF-SCS-MP2 Energies <==================
	-----------------------------------------------------------
	 SCS Same-Spin Scale       =       0.3333333333333333 [-]
	 SCS Opposite-Spin Scale   =       1.2000000000000000 [-]
	 SCS Same-Spin Energy      =      -0.0722996473274941 [Eh]
	 SCS Opposite-Spin Energy  =      -0.8465990713002393 [Eh]
	 SCS Correlation Energy    =      -0.9188987186277333 [Eh]
	 SCS Total Energy          =    -229.9462835811679327 [Eh]
	-----------------------------------------------------------

  Dipole Moment: [D]
     X:     1.3777      Y:     1.5448      Z:     1.4568     Total:     2.5312

*** Psi4 exiting successfully. Buy a developer a beer!
