                               Psi4 1.4a3.dev225

  ==> Input File <==

--------------------------------------------------------------------------
#psi4
#
memory 32 gb

molecule  {
0 1
  O        1.3629200    -0.6007480     0.0540100
  O       -1.4102950    -0.5835890    -0.1635680
  C        0.6753190     0.6118990    -0.2881280
  C       -0.7094192     0.5655803     0.2867863
  H        1.2295620     1.4983740     0.0482790
  H        0.6301520     0.6189470    -1.3788980
  H       -1.3096140     1.4447800    -0.0505840
  H       -0.6789700     0.6132250     1.3845490
  H        1.5826490    -0.5504470     1.0004920
  H       -0.7479790    -1.2966940    -0.0970910
units angstrom
no_reorient  #important for SAPT in psi4, default
symmetry c1  #important for SAPT in psi4, default
}

set PROPERTIES_ORIGIN ["COM"]
properties('MP2/aug-cc-pvtz', properties = ['dipole'])
--------------------------------------------------------------------------

    Molecular point group: c1
  Charge       = 0
  Multiplicity = 1
  Basis Set: AUG-CC-PVTZ
    Blend: AUG-CC-PVTZ
  Basis Set: (AUG-CC-PVTZ AUX)
    Blend: AUG-CC-PVTZ-JKFIT

    Orbital Energies [Eh]
    ---------------------

    Doubly Occupied:

       1A    -20.576328     2A    -20.555900     3A    -11.286300
       4A    -11.280756     5A     -1.381661     6A     -1.347962
       7A     -1.004754     8A     -0.849369     9A     -0.706348
      10A     -0.691980    11A     -0.646966    12A     -0.614311
      13A     -0.570461    14A     -0.526845    15A     -0.510200
      16A     -0.472095    17A     -0.441788

  @DF-RHF Final Energy:  -229.02708032801891

   => Energetics <=

    Nuclear Repulsion Energy =            133.8044237820218427
    One-Electron Energy =                -578.7349623739772824
    Two-Electron Energy =                 215.9034582639365283
    Total Energy =                       -229.0270803280189114
  Basis Set: (AUG-CC-PVTZ AUX)
    Blend: AUG-CC-PVTZ-RI
    Molecular point group: c1

    Geometry (in Angstrom), charge = 0, multiplicity = 1:

       Center              X                  Y                   Z               Mass
    ------------   -----------------  -----------------  -----------------  -----------------
         O            1.370264652261    -0.560977810514     0.067786165352    15.994914619570
         O           -1.402950347739    -0.543818810514    -0.149791834648    15.994914619570
         C            0.682663652261     0.651669189486    -0.274351834648    12.000000000000
         C           -0.702074547739     0.605350489486     0.300562465352    12.000000000000
         H            1.236906652261     1.538144189486     0.062055165352     1.007825032230
         H            0.637496652261     0.658717189486    -1.365121834648     1.007825032230
         H           -1.302269347739     1.484550189486    -0.036807834648     1.007825032230
         H           -0.671625347739     0.652995189486     1.398325165352     1.007825032230
         H            1.589993652261    -0.510676810514     1.014268165352     1.007825032230
         H           -0.740634347739    -1.256923810514    -0.083314834648     1.007825032230

  Basis Set: AUG-CC-PVTZ
    Blend: AUG-CC-PVTZ
  Basis Set: (AUG-CC-PVTZ AUX)
    Blend: AUG-CC-PVTZ-JKFIT
	 Reference Energy          =    -229.0270803280189114 [Eh]
	 Singles Energy            =      -0.0000000000000000 [Eh]
	 Same-Spin Energy          =      -0.2170009432530649 [Eh]
	 Opposite-Spin Energy      =      -0.7053803026353584 [Eh]
	 Correlation Energy        =      -0.9223812458884234 [Eh]
	 Total Energy              =    -229.9494615739073424 [Eh]

	 ================> DF-SCS-MP2 Energies <==================
	-----------------------------------------------------------
	 SCS Same-Spin Scale       =       0.3333333333333333 [-]
	 SCS Opposite-Spin Scale   =       1.2000000000000000 [-]
	 SCS Same-Spin Energy      =      -0.0723336477510216 [Eh]
	 SCS Opposite-Spin Energy  =      -0.8464563631624301 [Eh]
	 SCS Correlation Energy    =      -0.9187900109134518 [Eh]
	 SCS Total Energy          =    -229.9458703389323659 [Eh]
	-----------------------------------------------------------

  Dipole Moment: [D]
     X:     1.4322      Y:     1.4725      Z:     1.4777     Total:     2.5304

*** Psi4 exiting successfully. Buy a developer a beer!
