                               Psi4 1.4a3.dev225

  ==> Input File <==

--------------------------------------------------------------------------
#psi4
#
memory 32 gb

molecule  {
0 1
  O        1.3629200    -0.6007480     0.0540100
  O       -1.3388353    -0.6374979    -0.1211129
  C        0.6753190     0.6118990    -0.2881280
  C       -0.7297860     0.5791870     0.2830810
  H        1.2295620     1.4983740     0.0482790
  H        0.6301520     0.6189470    -1.3788980
  H       -1.3096140     1.4447800    -0.0505840
  H       -0.6789700     0.6132250     1.3845490
  H        1.5826490    -0.5504470     1.0004920
  H       -0.7479790    -1.2966940    -0.0970910
units angstrom
no_reorient  #important for SAPT in psi4, default
symmetry c1  #important for SAPT in psi4, default
}

set PROPERTIES_ORIGIN ["COM"]
properties('MP2/aug-cc-pvtz', properties = ['dipole'])
--------------------------------------------------------------------------

    Molecular point group: c1
  Charge       = 0
  Multiplicity = 1
  Basis Set: AUG-CC-PVTZ
    Blend: AUG-CC-PVTZ
  Basis Set: (AUG-CC-PVTZ AUX)
    Blend: AUG-CC-PVTZ-JKFIT

    Orbital Energies [Eh]
    ---------------------

    Doubly Occupied:

       1A    -20.574873     2A    -20.543442     3A    -11.285881
       4A    -11.282670     5A     -1.388280     6A     -1.356447
       7A     -1.006698     8A     -0.858513     9A     -0.714470
      10A     -0.689868    11A     -0.646817    12A     -0.629389
      13A     -0.572581    14A     -0.524570    15A     -0.511757
      16A     -0.470967    17A     -0.439218

  @DF-RHF Final Energy:  -229.02414899958310

   => Energetics <=

    Nuclear Repulsion Energy =            134.5023552137595289
    One-Electron Energy =                -580.0601251010440365
    Two-Electron Energy =                 216.5336208877014030
    Total Energy =                       -229.0241489995831046
  Basis Set: (AUG-CC-PVTZ AUX)
    Blend: AUG-CC-PVTZ-RI
    Molecular point group: c1

    Geometry (in Angstrom), charge = 0, multiplicity = 1:

       Center              X                  Y                   Z               Mass
    ------------   -----------------  -----------------  -----------------  -----------------
         O            1.355779854558    -0.549710496847     0.057556715896    15.994914619570
         O           -1.345975445442    -0.586460396847    -0.117566184104    15.994914619570
         C            0.668178854558     0.662936503153    -0.284581284104    12.000000000000
         C           -0.736926145442     0.630224503153     0.286627715896    12.000000000000
         H            1.222421854558     1.549411503153     0.051825715896     1.007825032230
         H            0.623011854558     0.669984503153    -1.375351284104     1.007825032230
         H           -1.316754145442     1.495817503153    -0.047037284104     1.007825032230
         H           -0.686110145442     0.664262503153     1.388095715896     1.007825032230
         H            1.575508854558    -0.499409496847     1.004038715896     1.007825032230
         H           -0.755119145442    -1.245656496847    -0.093544284104     1.007825032230

  Basis Set: AUG-CC-PVTZ
    Blend: AUG-CC-PVTZ
  Basis Set: (AUG-CC-PVTZ AUX)
    Blend: AUG-CC-PVTZ-JKFIT
	 Reference Energy          =    -229.0241489995831046 [Eh]
	 Singles Energy            =      -0.0000000000000000 [Eh]
	 Same-Spin Energy          =      -0.2156130915639533 [Eh]
	 Opposite-Spin Energy      =      -0.7021988121738503 [Eh]
	 Correlation Energy        =      -0.9178119037378035 [Eh]
	 Total Energy              =    -229.9419609033209042 [Eh]

	 ================> DF-SCS-MP2 Energies <==================
	-----------------------------------------------------------
	 SCS Same-Spin Scale       =       0.3333333333333333 [-]
	 SCS Opposite-Spin Scale   =       1.2000000000000000 [-]
	 SCS Same-Spin Energy      =      -0.0718710305213177 [Eh]
	 SCS Opposite-Spin Energy  =      -0.8426385746086203 [Eh]
	 SCS Correlation Energy    =      -0.9145096051299381 [Eh]
	 SCS Total Energy          =    -229.9386586047130550 [Eh]
	-----------------------------------------------------------

  Dipole Moment: [D]
     X:     1.2989      Y:     1.6087      Z:     1.4023     Total:     2.4983

*** Psi4 exiting successfully. Buy a developer a beer!
