                               Psi4 1.4a3.dev225

  ==> Input File <==

--------------------------------------------------------------------------
#psi4
#
memory 32 gb

molecule  {
0 1
  O        1.2798907    -0.6302325     0.1017037
  O       -1.4102950    -0.5835890    -0.1635680
  C        0.6753190     0.6118990    -0.2881280
  C       -0.7297860     0.5791870     0.2830810
  H        1.2295620     1.4983740     0.0482790
  H        0.6301520     0.6189470    -1.3788980
  H       -1.3096140     1.4447800    -0.0505840
  H       -0.6789700     0.6132250     1.3845490
  H        1.5826490    -0.5504470     1.0004920
  H       -0.7479790    -1.2966940    -0.0970910
units angstrom
no_reorient  #important for SAPT in psi4, default
symmetry c1  #important for SAPT in psi4, default
}

set PROPERTIES_ORIGIN ["COM"]
properties('MP2/aug-cc-pvtz', properties = ['dipole'])
--------------------------------------------------------------------------

    Molecular point group: c1
  Charge       = 0
  Multiplicity = 1
  Basis Set: AUG-CC-PVTZ
    Blend: AUG-CC-PVTZ
  Basis Set: (AUG-CC-PVTZ AUX)
    Blend: AUG-CC-PVTZ-JKFIT

    Orbital Energies [Eh]
    ---------------------

    Doubly Occupied:

       1A    -20.574330     2A    -20.551639     3A    -11.287527
       4A    -11.277264     5A     -1.385332     6A     -1.344971
       7A     -1.002048     8A     -0.850831     9A     -0.708514
      10A     -0.695332    11A     -0.642267    12A     -0.614193
      13A     -0.572950    14A     -0.522283    15A     -0.513608
      16A     -0.471946    17A     -0.436535

  @DF-RHF Final Energy:  -229.02762242669871

   => Energetics <=

    Nuclear Repulsion Energy =            134.3731372059488081
    One-Electron Energy =                -579.8983805817116490
    Two-Electron Energy =                 216.4976209490641281
    Total Energy =                       -229.0276224266987128
  Basis Set: (AUG-CC-PVTZ AUX)
    Blend: AUG-CC-PVTZ-RI
    Molecular point group: c1

    Geometry (in Angstrom), charge = 0, multiplicity = 1:

       Center              X                  Y                   Z               Mass
    ------------   -----------------  -----------------  -----------------  -----------------
         O            1.312582383149    -0.585492328788     0.103899750041    15.994914619570
         O           -1.377603316851    -0.538848828788    -0.161371949959    15.994914619570
         C            0.708010683149     0.656639171212    -0.285931949959    12.000000000000
         C           -0.697094316851     0.623927171212     0.285277050041    12.000000000000
         H            1.262253683149     1.543114171212     0.050475050041     1.007825032230
         H            0.662843683149     0.663687171212    -1.376701949959     1.007825032230
         H           -1.276922316851     1.489520171212    -0.048387949959     1.007825032230
         H           -0.646278316851     0.657965171212     1.386745050041     1.007825032230
         H            1.615340683149    -0.505706828788     1.002688050041     1.007825032230
         H           -0.715287316851    -1.251953828788    -0.094894949959     1.007825032230

  Basis Set: AUG-CC-PVTZ
    Blend: AUG-CC-PVTZ
  Basis Set: (AUG-CC-PVTZ AUX)
    Blend: AUG-CC-PVTZ-JKFIT
	 Reference Energy          =    -229.0276224266987128 [Eh]
	 Singles Energy            =      -0.0000000000000000 [Eh]
	 Same-Spin Energy          =      -0.2167757018997715 [Eh]
	 Opposite-Spin Energy      =      -0.7045990695941607 [Eh]
	 Correlation Energy        =      -0.9213747714939322 [Eh]
	 Total Energy              =    -229.9489971981926431 [Eh]

	 ================> DF-SCS-MP2 Energies <==================
	-----------------------------------------------------------
	 SCS Same-Spin Scale       =       0.3333333333333333 [-]
	 SCS Opposite-Spin Scale   =       1.2000000000000000 [-]
	 SCS Same-Spin Energy      =      -0.0722585672999238 [Eh]
	 SCS Opposite-Spin Energy  =      -0.8455188835129929 [Eh]
	 SCS Correlation Energy    =      -0.9177774508129167 [Eh]
	 SCS Total Energy          =    -229.9453998775116190 [Eh]
	-----------------------------------------------------------

  Dipole Moment: [D]
     X:     1.6772      Y:     1.5618      Z:     1.3918     Total:     2.6813

*** Psi4 exiting successfully. Buy a developer a beer!
