                               Psi4 1.4a3.dev225

  ==> Input File <==

--------------------------------------------------------------------------
#psi4
#
memory 32 gb

molecule  {
0 1
  O        1.3629200    -0.6007480     0.0540100
  O       -1.4221540    -0.6089341    -0.0685307
  C        0.6753190     0.6118990    -0.2881280
  C       -0.7297860     0.5791870     0.2830810
  H        1.2295620     1.4983740     0.0482790
  H        0.6301520     0.6189470    -1.3788980
  H       -1.3096140     1.4447800    -0.0505840
  H       -0.6789700     0.6132250     1.3845490
  H        1.5826490    -0.5504470     1.0004920
  H       -0.7479790    -1.2966940    -0.0970910
units angstrom
no_reorient  #important for SAPT in psi4, default
symmetry c1  #important for SAPT in psi4, default
}

set PROPERTIES_ORIGIN ["COM"]
properties('MP2/aug-cc-pvtz', properties = ['dipole'])
--------------------------------------------------------------------------

    Molecular point group: c1
  Charge       = 0
  Multiplicity = 1
  Basis Set: AUG-CC-PVTZ
    Blend: AUG-CC-PVTZ
  Basis Set: (AUG-CC-PVTZ AUX)
    Blend: AUG-CC-PVTZ-JKFIT

    Orbital Energies [Eh]
    ---------------------

    Doubly Occupied:

       1A    -20.577239     2A    -20.553160     3A    -11.288610
       4A    -11.280172     5A     -1.381365     6A     -1.348935
       7A     -1.003150     8A     -0.852661     9A     -0.706337
      10A     -0.689658    11A     -0.647993    12A     -0.615463
      13A     -0.574216    14A     -0.530583    15A     -0.511389
      16A     -0.469672    17A     -0.438856

  @DF-RHF Final Energy:  -229.02825147733842

   => Energetics <=

    Nuclear Repulsion Energy =            133.4579280693643568
    One-Electron Energy =                -578.0334440749926443
    Two-Electron Energy =                 215.5472645282898725
    Total Energy =                       -229.0282514773384150
  Basis Set: (AUG-CC-PVTZ AUX)
    Blend: AUG-CC-PVTZ-RI
    Molecular point group: c1

    Geometry (in Angstrom), charge = 0, multiplicity = 1:

       Center              X                  Y                   Z               Mass
    ------------   -----------------  -----------------  -----------------  -----------------
         O            1.377261877076    -0.557075088407     0.043999471190    15.994914619570
         O           -1.407812122924    -0.565261188407    -0.078541228810    15.994914619570
         C            0.689660877076     0.655571911593    -0.298138528810    12.000000000000
         C           -0.715444122924     0.622859911593     0.273070471190    12.000000000000
         H            1.243903877076     1.542046911593     0.038268471190     1.007825032230
         H            0.644493877076     0.662619911593    -1.388908528810     1.007825032230
         H           -1.295272122924     1.488452911593    -0.060594528810     1.007825032230
         H           -0.664628122924     0.656897911593     1.374538471190     1.007825032230
         H            1.596990877076    -0.506774088407     0.990481471190     1.007825032230
         H           -0.733637122924    -1.253021088407    -0.107101528810     1.007825032230

  Basis Set: AUG-CC-PVTZ
    Blend: AUG-CC-PVTZ
  Basis Set: (AUG-CC-PVTZ AUX)
    Blend: AUG-CC-PVTZ-JKFIT
	 Reference Energy          =    -229.0282514773384150 [Eh]
	 Singles Energy            =      -0.0000000000000000 [Eh]
	 Same-Spin Energy          =      -0.2166072202349339 [Eh]
	 Opposite-Spin Energy      =      -0.7046814543929465 [Eh]
	 Correlation Energy        =      -0.9212886746278803 [Eh]
	 Total Energy              =    -229.9495401519662892 [Eh]

	 ================> DF-SCS-MP2 Energies <==================
	-----------------------------------------------------------
	 SCS Same-Spin Scale       =       0.3333333333333333 [-]
	 SCS Opposite-Spin Scale   =       1.2000000000000000 [-]
	 SCS Same-Spin Energy      =      -0.0722024067449780 [Eh]
	 SCS Opposite-Spin Energy  =      -0.8456177452715358 [Eh]
	 SCS Correlation Energy    =      -0.9178201520165137 [Eh]
	 SCS Total Energy          =    -229.9460716293549183 [Eh]
	-----------------------------------------------------------

  Dipole Moment: [D]
     X:     1.4798      Y:     1.5493      Z:     1.2575     Total:     2.4842

*** Psi4 exiting successfully. Buy a developer a beer!
