                               Psi4 1.4a3.dev225

  ==> Input File <==

--------------------------------------------------------------------------
#psi4
#
memory 32 gb

molecule  {
0 1
  O        1.3629200    -0.6007480     0.0540100
  O       -1.4102950    -0.5835890    -0.1635680
  C        0.6753190     0.6118990    -0.2881280
  C       -0.8561182     0.6532519     0.2580344
  H        1.2295620     1.4983740     0.0482790
  H        0.6301520     0.6189470    -1.3788980
  H       -1.3096140     1.4447800    -0.0505840
  H       -0.6789700     0.6132250     1.3845490
  H        1.5826490    -0.5504470     1.0004920
  H       -0.7479790    -1.2966940    -0.0970910
units angstrom
no_reorient  #important for SAPT in psi4, default
symmetry c1  #important for SAPT in psi4, default
}

set PROPERTIES_ORIGIN ["COM"]
properties('MP2/aug-cc-pvtz', properties = ['dipole'])
--------------------------------------------------------------------------

    Molecular point group: c1
  Charge       = 0
  Multiplicity = 1
  Basis Set: AUG-CC-PVTZ
    Blend: AUG-CC-PVTZ
  Basis Set: (AUG-CC-PVTZ AUX)
    Blend: AUG-CC-PVTZ-JKFIT

    Orbital Energies [Eh]
    ---------------------

    Doubly Occupied:

       1A    -20.579502     2A    -20.552003     3A    -11.288667
       4A    -11.281548     5A     -1.376853     6A     -1.344955
       7A     -0.988235     8A     -0.863983     9A     -0.702656
      10A     -0.683106    11A     -0.652293    12A     -0.623954
      13A     -0.580956    14A     -0.522724    15A     -0.509725
      16A     -0.475239    17A     -0.414100

  @DF-RHF Final Energy:  -229.00187497641915

   => Energetics <=

    Nuclear Repulsion Energy =            132.2145379173985305
    One-Electron Energy =                -575.5518276179889199
    Two-Electron Energy =                 214.3354147241712724
    Total Energy =                       -229.0018749764191455
  Basis Set: (AUG-CC-PVTZ AUX)
    Blend: AUG-CC-PVTZ-RI
    Molecular point group: c1

    Geometry (in Angstrom), charge = 0, multiplicity = 1:

       Center              X                  Y                   Z               Mass
    ------------   -----------------  -----------------  -----------------  -----------------
         O            1.398641173675    -0.577936447142     0.073347749999    15.994914619570
         O           -1.374573826325    -0.560777447142    -0.144230250001    15.994914619570
         C            0.711040173675     0.634710552858    -0.268790250001    12.000000000000
         C           -0.820397026325     0.676063452858     0.277372149999    12.000000000000
         H            1.265283173675     1.521185552858     0.067616749999     1.007825032230
         H            0.665873173675     0.641758552858    -1.359560250001     1.007825032230
         H           -1.273892826325     1.467591552858    -0.031246250001     1.007825032230
         H           -0.643248826325     0.636036552858     1.403886749999     1.007825032230
         H            1.618370173675    -0.527635447142     1.019829749999     1.007825032230
         H           -0.712257826325    -1.273882447142    -0.077753250001     1.007825032230

  Basis Set: AUG-CC-PVTZ
    Blend: AUG-CC-PVTZ
  Basis Set: (AUG-CC-PVTZ AUX)
    Blend: AUG-CC-PVTZ-JKFIT
	 Reference Energy          =    -229.0018749764191455 [Eh]
	 Singles Energy            =      -0.0000000000000000 [Eh]
	 Same-Spin Energy          =      -0.2166453057155938 [Eh]
	 Opposite-Spin Energy      =      -0.7057389919062892 [Eh]
	 Correlation Energy        =      -0.9223842976218830 [Eh]
	 Total Energy              =    -229.9242592740410203 [Eh]

	 ================> DF-SCS-MP2 Energies <==================
	-----------------------------------------------------------
	 SCS Same-Spin Scale       =       0.3333333333333333 [-]
	 SCS Opposite-Spin Scale   =       1.2000000000000000 [-]
	 SCS Same-Spin Energy      =      -0.0722151019051979 [Eh]
	 SCS Opposite-Spin Energy  =      -0.8468867902875470 [Eh]
	 SCS Correlation Energy    =      -0.9191018921927450 [Eh]
	 SCS Total Energy          =    -229.9209768686118878 [Eh]
	-----------------------------------------------------------

  Dipole Moment: [D]
     X:     1.3301      Y:     1.5244      Z:     1.4347     Total:     2.4802

*** Psi4 exiting successfully. Buy a developer a beer!
