                               Psi4 1.4a3.dev225

  ==> Input File <==

--------------------------------------------------------------------------
#psi4
#
memory 32 gb

molecule  {
0 1
  O        1.3629200    -0.6007480     0.0540100
  O       -1.4102950    -0.5835890    -0.1635680
  C        0.6753190     0.6118990    -0.2881280
  C       -0.7297860     0.5791870     0.2830810
  H        1.2295620     1.4983740     0.0482790
  H        0.6301520     0.6189470    -1.3788980
  H       -1.3096140     1.4447800    -0.0505840
  H       -0.6812732     0.6116823     1.3346259
  H        1.5826490    -0.5504470     1.0004920
  H       -0.7479790    -1.2966940    -0.0970910
units angstrom
no_reorient  #important for SAPT in psi4, default
symmetry c1  #important for SAPT in psi4, default
}

set PROPERTIES_ORIGIN ["COM"]
properties('MP2/aug-cc-pvtz', properties = ['dipole'])
--------------------------------------------------------------------------

    Molecular point group: c1
  Charge       = 0
  Multiplicity = 1
  Basis Set: AUG-CC-PVTZ
    Blend: AUG-CC-PVTZ
  Basis Set: (AUG-CC-PVTZ AUX)
    Blend: AUG-CC-PVTZ-JKFIT

    Orbital Energies [Eh]
    ---------------------

    Doubly Occupied:

       1A    -20.576685     2A    -20.553825     3A    -11.285912
       4A    -11.273809     5A     -1.380503     6A     -1.346725
       7A     -1.003625     8A     -0.854935     9A     -0.706110
      10A     -0.691531    11A     -0.648431    12A     -0.616952
      13A     -0.571849    14A     -0.526285    15A     -0.510539
      16A     -0.475118    17A     -0.439567

  @DF-RHF Final Energy:  -229.02737688586163

   => Energetics <=

    Nuclear Repulsion Energy =            133.7969279237373712
    One-Electron Energy =                -578.7238035868647330
    Two-Electron Energy =                 215.8994987772657339
    Total Energy =                       -229.0273768858616279
  Basis Set: (AUG-CC-PVTZ AUX)
    Blend: AUG-CC-PVTZ-RI
    Molecular point group: c1

    Geometry (in Angstrom), charge = 0, multiplicity = 1:

       Center              X                  Y                   Z               Mass
    ------------   -----------------  -----------------  -----------------  -----------------
         O            1.374241693379    -0.563584741915     0.069313925993    15.994914619570
         O           -1.398973306621    -0.546425741915    -0.148264074007    15.994914619570
         C            0.686640693379     0.649062258085    -0.272824074007    12.000000000000
         C           -0.718464306621     0.616350258085     0.298384925993    12.000000000000
         H            1.240883693379     1.535537258085     0.063582925993     1.007825032230
         H            0.641473693379     0.656110258085    -1.363594074007     1.007825032230
         H           -1.298292306621     1.481943258085    -0.035280074007     1.007825032230
         H           -0.669951506621     0.648845558085     1.349929825993     1.007825032230
         H            1.593970693379    -0.513283741915     1.015795925993     1.007825032230
         H           -0.736657306621    -1.259530741915    -0.081787074007     1.007825032230

  Basis Set: AUG-CC-PVTZ
    Blend: AUG-CC-PVTZ
  Basis Set: (AUG-CC-PVTZ AUX)
    Blend: AUG-CC-PVTZ-JKFIT
	 Reference Energy          =    -229.0273768858616279 [Eh]
	 Singles Energy            =      -0.0000000000000000 [Eh]
	 Same-Spin Energy          =      -0.2168063368593768 [Eh]
	 Opposite-Spin Energy      =      -0.7048693835377680 [Eh]
	 Correlation Energy        =      -0.9216757203971447 [Eh]
	 Total Energy              =    -229.9490526062587605 [Eh]

	 ================> DF-SCS-MP2 Energies <==================
	-----------------------------------------------------------
	 SCS Same-Spin Scale       =       0.3333333333333333 [-]
	 SCS Opposite-Spin Scale   =       1.2000000000000000 [-]
	 SCS Same-Spin Energy      =      -0.0722687789531256 [Eh]
	 SCS Opposite-Spin Energy  =      -0.8458432602453215 [Eh]
	 SCS Correlation Energy    =      -0.9181120391984471 [Eh]
	 SCS Total Energy          =    -229.9454889250600615 [Eh]
	-----------------------------------------------------------

  Dipole Moment: [D]
     X:     1.4233      Y:     1.5047      Z:     1.5205     Total:     2.5694

*** Psi4 exiting successfully. Buy a developer a beer!
