                               Psi4 1.4a3.dev225

  ==> Input File <==

--------------------------------------------------------------------------
#psi4
#
memory 32 gb

molecule  {
0 1
  O        1.3629200    -0.6007480     0.0540100
  O       -1.3951207    -0.5525790    -0.2564293
  C        0.6753190     0.6118990    -0.2881280
  C       -0.7297860     0.5791870     0.2830810
  H        1.2295620     1.4983740     0.0482790
  H        0.6301520     0.6189470    -1.3788980
  H       -1.3096140     1.4447800    -0.0505840
  H       -0.6789700     0.6132250     1.3845490
  H        1.5826490    -0.5504470     1.0004920
  H       -0.7479790    -1.2966940    -0.0970910
units angstrom
no_reorient  #important for SAPT in psi4, default
symmetry c1  #important for SAPT in psi4, default
}

set PROPERTIES_ORIGIN ["COM"]
properties('MP2/aug-cc-pvtz', properties = ['dipole'])
--------------------------------------------------------------------------

    Molecular point group: c1
  Charge       = 0
  Multiplicity = 1
  Basis Set: AUG-CC-PVTZ
    Blend: AUG-CC-PVTZ
  Basis Set: (AUG-CC-PVTZ AUX)
    Blend: AUG-CC-PVTZ-JKFIT

    Orbital Energies [Eh]
    ---------------------

    Doubly Occupied:

       1A    -20.576144     2A    -20.558167     3A    -11.284440
       4A    -11.280173     5A     -1.379642     6A     -1.344548
       7A     -0.999593     8A     -0.848830     9A     -0.704354
      10A     -0.691098    11A     -0.643326    12A     -0.614120
      13A     -0.569398    14A     -0.522129    15A     -0.509407
      16A     -0.478427    17A     -0.437029

  @DF-RHF Final Energy:  -229.02450920048116

   => Energetics <=

    Nuclear Repulsion Energy =            133.6540457298411866
    One-Electron Energy =                -578.4754608730250993
    Two-Electron Energy =                 215.7969059427027503
    Total Energy =                       -229.0245092004811625
  Basis Set: (AUG-CC-PVTZ AUX)
    Blend: AUG-CC-PVTZ-RI
    Molecular point group: c1

    Geometry (in Angstrom), charge = 0, multiplicity = 1:

       Center              X                  Y                   Z               Mass
    ------------   -----------------  -----------------  -----------------  -----------------
         O            1.370291893635    -0.571605098203     0.092445281750    15.994914619570
         O           -1.387748806365    -0.523436098203    -0.217994018250    15.994914619570
         C            0.682690893635     0.641041901797    -0.249692718250    12.000000000000
         C           -0.722414106365     0.608329901797     0.321516281750    12.000000000000
         H            1.236933893635     1.527516901797     0.086714281750     1.007825032230
         H            0.637523893635     0.648089901797    -1.340462718250     1.007825032230
         H           -1.302242106365     1.473922901797    -0.012148718250     1.007825032230
         H           -0.671598106365     0.642367901797     1.422984281750     1.007825032230
         H            1.590020893635    -0.521304098203     1.038927281750     1.007825032230
         H           -0.740607106365    -1.267551098203    -0.058655718250     1.007825032230

  Basis Set: AUG-CC-PVTZ
    Blend: AUG-CC-PVTZ
  Basis Set: (AUG-CC-PVTZ AUX)
    Blend: AUG-CC-PVTZ-JKFIT
	 Reference Energy          =    -229.0245092004811625 [Eh]
	 Singles Energy            =      -0.0000000000000000 [Eh]
	 Same-Spin Energy          =      -0.2172985536156860 [Eh]
	 Opposite-Spin Energy      =      -0.7062147625691659 [Eh]
	 Correlation Energy        =      -0.9235133161848519 [Eh]
	 Total Energy              =    -229.9480225166660148 [Eh]

	 ================> DF-SCS-MP2 Energies <==================
	-----------------------------------------------------------
	 SCS Same-Spin Scale       =       0.3333333333333333 [-]
	 SCS Opposite-Spin Scale   =       1.2000000000000000 [-]
	 SCS Same-Spin Energy      =      -0.0724328512052286 [Eh]
	 SCS Opposite-Spin Energy  =      -0.8474577150829991 [Eh]
	 SCS Correlation Energy    =      -0.9198905662882277 [Eh]
	 SCS Total Energy          =    -229.9443997667693793 [Eh]
	-----------------------------------------------------------

  Dipole Moment: [D]
     X:     1.3343      Y:     1.4116      Z:     1.6779     Total:     2.5668

*** Psi4 exiting successfully. Buy a developer a beer!
