                               Psi4 1.4a3.dev225

  ==> Input File <==

--------------------------------------------------------------------------
#psi4
#
memory 32 gb

molecule  {
0 1
  O        1.3629200    -0.6007480     0.0540100
  O       -1.4102950    -0.5835890    -0.1635680
  C        0.6753190     0.6118990    -0.2881280
  C       -0.7297860     0.5791870     0.2830810
  H        1.2295620     1.4983740     0.0482790
  H        0.6384264     0.6176558    -1.1790734
  H       -1.3096140     1.4447800    -0.0505840
  H       -0.6789700     0.6132250     1.3845490
  H        1.5826490    -0.5504470     1.0004920
  H       -0.7479790    -1.2966940    -0.0970910
units angstrom
no_reorient  #important for SAPT in psi4, default
symmetry c1  #important for SAPT in psi4, default
}

set PROPERTIES_ORIGIN ["COM"]
properties('MP2/aug-cc-pvtz', properties = ['dipole'])
--------------------------------------------------------------------------

    Molecular point group: c1
  Charge       = 0
  Multiplicity = 1
  Basis Set: AUG-CC-PVTZ
    Blend: AUG-CC-PVTZ
  Basis Set: (AUG-CC-PVTZ AUX)
    Blend: AUG-CC-PVTZ-JKFIT

    Orbital Energies [Eh]
    ---------------------

    Doubly Occupied:

       1A    -20.574643     2A    -20.555107     3A    -11.278938
       4A    -11.262147     5A     -1.380558     6A     -1.346908
       7A     -1.017300     8A     -0.870982     9A     -0.710307
      10A     -0.691642    11A     -0.650258    12A     -0.617340
      13A     -0.585785    14A     -0.534310    15A     -0.515684
      16A     -0.472833    17A     -0.438420

  @DF-RHF Final Energy:  -228.99368477502213

   => Energetics <=

    Nuclear Repulsion Energy =            134.5995517637684600
    One-Electron Energy =                -580.1801492745979658
    Two-Electron Energy =                 216.5869127358074024
    Total Energy =                       -228.9936847750221318
  Basis Set: (AUG-CC-PVTZ AUX)
    Blend: AUG-CC-PVTZ-RI
    Molecular point group: c1

    Geometry (in Angstrom), charge = 0, multiplicity = 1:

       Center              X                  Y                   Z               Mass
    ------------   -----------------  -----------------  -----------------  -----------------
         O            1.374069853865    -0.563588827685     0.065256623436    15.994914619570
         O           -1.399145146135    -0.546429827685    -0.152321376564    15.994914619570
         C            0.686468853865     0.649058172315    -0.276881376564    12.000000000000
         C           -0.718636146135     0.616346172315     0.294327623436    12.000000000000
         H            1.240711853865     1.535533172315     0.059525623436     1.007825032230
         H            0.649576253865     0.654814972315    -1.167826776564     1.007825032230
         H           -1.298464146135     1.481939172315    -0.039337376564     1.007825032230
         H           -0.667820146135     0.650384172315     1.395795623436     1.007825032230
         H            1.593798853865    -0.513287827685     1.011738623436     1.007825032230
         H           -0.736829146135    -1.259534827685    -0.085844376564     1.007825032230

  Basis Set: AUG-CC-PVTZ
    Blend: AUG-CC-PVTZ
  Basis Set: (AUG-CC-PVTZ AUX)
    Blend: AUG-CC-PVTZ-JKFIT
	 Reference Energy          =    -228.9936847750221318 [Eh]
	 Singles Energy            =      -0.0000000000000000 [Eh]
	 Same-Spin Energy          =      -0.2168389599948451 [Eh]
	 Opposite-Spin Energy      =      -0.7045878840994311 [Eh]
	 Correlation Energy        =      -0.9214268440942762 [Eh]
	 Total Energy              =    -229.9151116191164022 [Eh]

	 ================> DF-SCS-MP2 Energies <==================
	-----------------------------------------------------------
	 SCS Same-Spin Scale       =       0.3333333333333333 [-]
	 SCS Opposite-Spin Scale   =       1.2000000000000000 [-]
	 SCS Same-Spin Energy      =      -0.0722796533316150 [Eh]
	 SCS Opposite-Spin Energy  =      -0.8455054609193172 [Eh]
	 SCS Correlation Energy    =      -0.9177851142509322 [Eh]
	 SCS Total Energy          =    -229.9114698892730644 [Eh]
	-----------------------------------------------------------

  Dipole Moment: [D]
     X:     1.4152      Y:     1.5158      Z:     1.4218     Total:     2.5144

*** Psi4 exiting successfully. Buy a developer a beer!
