                               Psi4 1.4a3.dev225

  ==> Input File <==

--------------------------------------------------------------------------
#psi4
#
memory 32 gb

molecule  {
0 1
  O        1.3629200    -0.6007480     0.0540100
  O       -1.4102950    -0.5835890    -0.1635680
  C        0.6753190     0.6118990    -0.2881280
  C       -0.7297860     0.5791870     0.2830810
  H        1.2295620     1.4983740     0.0482790
  H        0.6301520     0.6189470    -1.3788980
  H       -1.3096140     1.4447800    -0.0505840
  H       -0.6789700     0.6132250     1.3845490
  H        1.5826490    -0.5504470     1.0004920
  H       -0.7819265    -1.2601433    -0.1004983
units angstrom
no_reorient  #important for SAPT in psi4, default
symmetry c1  #important for SAPT in psi4, default
}

set PROPERTIES_ORIGIN ["COM"]
properties('MP2/aug-cc-pvtz', properties = ['dipole'])
--------------------------------------------------------------------------

    Molecular point group: c1
  Charge       = 0
  Multiplicity = 1
  Basis Set: AUG-CC-PVTZ
    Blend: AUG-CC-PVTZ
  Basis Set: (AUG-CC-PVTZ AUX)
    Blend: AUG-CC-PVTZ-JKFIT

    Orbital Energies [Eh]
    ---------------------

    Doubly Occupied:

       1A    -20.576239     2A    -20.551329     3A    -11.286828
       4A    -11.281018     5A     -1.384698     6A     -1.355355
       7A     -1.004089     8A     -0.854384     9A     -0.710900
      10A     -0.692581    11A     -0.645713    12A     -0.619464
      13A     -0.572971    14A     -0.529984    15A     -0.511495
      16A     -0.474321    17A     -0.439828

  @DF-RHF Final Energy:  -229.02879145028712

   => Energetics <=

    Nuclear Repulsion Energy =            133.8248301539778709
    One-Electron Energy =                -578.7248502291004115
    Two-Electron Energy =                 215.8712286248354246
    Total Energy =                       -229.0287914502871160
  Basis Set: (AUG-CC-PVTZ AUX)
    Blend: AUG-CC-PVTZ-RI
    Molecular point group: c1

    Geometry (in Angstrom), charge = 0, multiplicity = 1:

       Center              X                  Y                   Z               Mass
    ------------   -----------------  -----------------  -----------------  -----------------
         O            1.374755774187    -0.564203592256     0.068558248666    15.994914619570
         O           -1.398459225813    -0.547044592256    -0.149019751334    15.994914619570
         C            0.687154774187     0.648443407744    -0.273579751334    12.000000000000
         C           -0.717950225813     0.615731407744     0.297629248666    12.000000000000
         H            1.241397774187     1.534918407744     0.062827248666     1.007825032230
         H            0.641987774187     0.655491407744    -1.364349751334     1.007825032230
         H           -1.297778225813     1.481324407744    -0.036035751334     1.007825032230
         H           -0.667134225813     0.649769407744     1.399097248666     1.007825032230
         H            1.594484774187    -0.513902592256     1.015040248666     1.007825032230
         H           -0.770090725813    -1.223598892256    -0.085950051334     1.007825032230

  Basis Set: AUG-CC-PVTZ
    Blend: AUG-CC-PVTZ
  Basis Set: (AUG-CC-PVTZ AUX)
    Blend: AUG-CC-PVTZ-JKFIT
	 Reference Energy          =    -229.0287914502871160 [Eh]
	 Singles Energy            =      -0.0000000000000000 [Eh]
	 Same-Spin Energy          =      -0.2161915598874077 [Eh]
	 Opposite-Spin Energy      =      -0.7036629387869047 [Eh]
	 Correlation Energy        =      -0.9198544986743123 [Eh]
	 Total Energy              =    -229.9486459489614276 [Eh]

	 ================> DF-SCS-MP2 Energies <==================
	-----------------------------------------------------------
	 SCS Same-Spin Scale       =       0.3333333333333333 [-]
	 SCS Opposite-Spin Scale   =       1.2000000000000000 [-]
	 SCS Same-Spin Energy      =      -0.0720638532958026 [Eh]
	 SCS Opposite-Spin Energy  =      -0.8443955265442856 [Eh]
	 SCS Correlation Energy    =      -0.9164593798400882 [Eh]
	 SCS Total Energy          =    -229.9452508301272076 [Eh]
	-----------------------------------------------------------

  Dipole Moment: [D]
     X:     1.3787      Y:     1.5275      Z:     1.4753     Total:     2.5319

*** Psi4 exiting successfully. Buy a developer a beer!
