                               Psi4 1.4a3.dev225

  ==> Input File <==

--------------------------------------------------------------------------
#psi4
#
memory 32 gb

molecule  {
0 1
  O        1.3629200    -0.6007480     0.0540100
  O       -1.4102950    -0.5835890    -0.1635680
  C        0.6753190     0.6118990    -0.2881280
  C       -0.7297860     0.5791870     0.2830810
  H        1.2295620     1.4983740     0.0482790
  H        0.6301520     0.6189470    -1.3788980
  H       -1.3096140     1.4447800    -0.0505840
  H       -0.6789700     0.6132250     1.3845490
  H        1.5826490    -0.5504470     1.0004920
  H       -0.7479790    -1.2966940    -0.0970910
units angstrom
no_reorient  #important for SAPT in psi4, default
symmetry c1  #important for SAPT in psi4, default
}

set PROPERTIES_ORIGIN ["COM"]
properties('MP2/aug-cc-pvtz', properties = ['dipole'])
--------------------------------------------------------------------------

    Molecular point group: c1
  Charge       = 0
  Multiplicity = 1
  Basis Set: AUG-CC-PVTZ
    Blend: AUG-CC-PVTZ
  Basis Set: (AUG-CC-PVTZ AUX)
    Blend: AUG-CC-PVTZ-JKFIT

    Orbital Energies [Eh]
    ---------------------

    Doubly Occupied:

       1A    -20.576732     2A    -20.555088     3A    -11.286586
       4A    -11.280330     5A     -1.380715     6A     -1.347367
       7A     -1.001715     8A     -0.851071     9A     -0.705871
      10A     -0.690587    11A     -0.644969    12A     -0.616299
      13A     -0.571888    14A     -0.526588    15A     -0.510753
      16A     -0.473659    17A     -0.438542

  @DF-RHF Final Energy:  -229.02807942052692

   => Energetics <=

    Nuclear Repulsion Energy =            133.5683174576263639
    One-Electron Energy =                -578.2752738514354860
    Two-Electron Energy =                 215.6788769732822288
    Total Energy =                       -229.0280794205269217
  Basis Set: (AUG-CC-PVTZ AUX)
    Blend: AUG-CC-PVTZ-RI
    Molecular point group: c1

    Geometry (in Angstrom), charge = 0, multiplicity = 1:

       Center              X                  Y                   Z               Mass
    ------------   -----------------  -----------------  -----------------  -----------------
         O            1.374204276501    -0.563609804010     0.068502895015    15.994914619570
         O           -1.399010723499    -0.546450804010    -0.149075104985    15.994914619570
         C            0.686603276501     0.649037195990    -0.273635104985    12.000000000000
         C           -0.718501723499     0.616325195990     0.297573895015    12.000000000000
         H            1.240846276501     1.535512195990     0.062771895015     1.007825032230
         H            0.641436276501     0.656085195990    -1.364405104985     1.007825032230
         H           -1.298329723499     1.481918195990    -0.036091104985     1.007825032230
         H           -0.667685723499     0.650363195990     1.399041895015     1.007825032230
         H            1.593933276501    -0.513308804010     1.014984895015     1.007825032230
         H           -0.736694723499    -1.259555804010    -0.082598104985     1.007825032230

  Basis Set: AUG-CC-PVTZ
    Blend: AUG-CC-PVTZ
  Basis Set: (AUG-CC-PVTZ AUX)
    Blend: AUG-CC-PVTZ-JKFIT
	 Reference Energy          =    -229.0280794205269217 [Eh]
	 Singles Energy            =      -0.0000000000000000 [Eh]
	 Same-Spin Energy          =      -0.2168346823791410 [Eh]
	 Opposite-Spin Energy      =      -0.7051638767975736 [Eh]
	 Correlation Energy        =      -0.9219985591767147 [Eh]
	 Total Energy              =    -229.9500779797036500 [Eh]

	 ================> DF-SCS-MP2 Energies <==================
	-----------------------------------------------------------
	 SCS Same-Spin Scale       =       0.3333333333333333 [-]
	 SCS Opposite-Spin Scale   =       1.2000000000000000 [-]
	 SCS Same-Spin Energy      =      -0.0722782274597137 [Eh]
	 SCS Opposite-Spin Energy  =      -0.8461966521570884 [Eh]
	 SCS Correlation Energy    =      -0.9184748796168021 [Eh]
	 SCS Total Energy          =    -229.9465543001437311 [Eh]
	-----------------------------------------------------------

  Dipole Moment: [D]
     X:     1.4151      Y:     1.4883      Z:     1.4741     Total:     2.5279

*** Psi4 exiting successfully. Buy a developer a beer!
