                               Psi4 1.4a3.dev225

  ==> Input File <==

--------------------------------------------------------------------------
#psi4
#
memory 32 gb

molecule  {
0 1
  O        1.3700483    -0.6202226    -0.0440095
  O       -1.4102950    -0.5835890    -0.1635680
  C        0.6753190     0.6118990    -0.2881280
  C       -0.7297860     0.5791870     0.2830810
  H        1.2295620     1.4983740     0.0482790
  H        0.6301520     0.6189470    -1.3788980
  H       -1.3096140     1.4447800    -0.0505840
  H       -0.6789700     0.6132250     1.3845490
  H        1.5826490    -0.5504470     1.0004920
  H       -0.7479790    -1.2966940    -0.0970910
units angstrom
no_reorient  #important for SAPT in psi4, default
symmetry c1  #important for SAPT in psi4, default
}

set PROPERTIES_ORIGIN ["COM"]
properties('MP2/aug-cc-pvtz', properties = ['dipole'])
--------------------------------------------------------------------------

    Molecular point group: c1
  Charge       = 0
  Multiplicity = 1
  Basis Set: AUG-CC-PVTZ
    Blend: AUG-CC-PVTZ
  Basis Set: (AUG-CC-PVTZ AUX)
    Blend: AUG-CC-PVTZ-JKFIT

    Orbital Energies [Eh]
    ---------------------

    Doubly Occupied:

       1A    -20.588313     2A    -20.555496     3A    -11.285258
       4A    -11.281525     5A     -1.372685     6A     -1.341751
       7A     -0.998187     8A     -0.844797     9A     -0.703428
      10A     -0.683207    11A     -0.636590    12A     -0.618017
      13A     -0.567141    14A     -0.524204    15A     -0.510282
      16A     -0.474397    17A     -0.438764

  @DF-RHF Final Energy:  -229.01301725600300

   => Energetics <=

    Nuclear Repulsion Energy =            133.0565371225786180
    One-Electron Energy =                -577.2910233081031492
    Two-Electron Energy =                 215.2214689295215351
    Total Energy =                       -229.0130172560029962
  Basis Set: (AUG-CC-PVTZ AUX)
    Blend: AUG-CC-PVTZ-RI
    Molecular point group: c1

    Geometry (in Angstrom), charge = 0, multiplicity = 1:

       Center              X                  Y                   Z               Mass
    ------------   -----------------  -----------------  -----------------  -----------------
         O            1.379494690155    -0.578063276752    -0.004244281891    15.994914619570
         O           -1.400848609845    -0.541429676752    -0.123802781891    15.994914619570
         C            0.684765390155     0.654058323248    -0.248362781891    12.000000000000
         C           -0.720339609845     0.621346323248     0.322846218109    12.000000000000
         H            1.239008390155     1.540533323248     0.088044218109     1.007825032230
         H            0.639598390155     0.661106323248    -1.339132781891     1.007825032230
         H           -1.300167609845     1.486939323248    -0.010818781891     1.007825032230
         H           -0.669523609845     0.655384323248     1.424314218109     1.007825032230
         H            1.592095390155    -0.508287676752     1.040257218109     1.007825032230
         H           -0.738532609845    -1.254534676752    -0.057325781891     1.007825032230

  Basis Set: AUG-CC-PVTZ
    Blend: AUG-CC-PVTZ
  Basis Set: (AUG-CC-PVTZ AUX)
    Blend: AUG-CC-PVTZ-JKFIT
	 Reference Energy          =    -229.0130172560029962 [Eh]
	 Singles Energy            =      -0.0000000000000000 [Eh]
	 Same-Spin Energy          =      -0.2182204767830244 [Eh]
	 Opposite-Spin Energy      =      -0.7089707044947819 [Eh]
	 Correlation Energy        =      -0.9271911812778064 [Eh]
	 Total Energy              =    -229.9402084372808019 [Eh]

	 ================> DF-SCS-MP2 Energies <==================
	-----------------------------------------------------------
	 SCS Same-Spin Scale       =       0.3333333333333333 [-]
	 SCS Opposite-Spin Scale   =       1.2000000000000000 [-]
	 SCS Same-Spin Energy      =      -0.0727401589276748 [Eh]
	 SCS Opposite-Spin Energy  =      -0.8507648453937383 [Eh]
	 SCS Correlation Energy    =      -0.9235050043214131 [Eh]
	 SCS Total Energy          =    -229.9365222603244092 [Eh]
	-----------------------------------------------------------

  Dipole Moment: [D]
     X:     1.3932      Y:     1.4834      Z:     1.5990     Total:     2.5881

*** Psi4 exiting successfully. Buy a developer a beer!
