                               Psi4 1.4a3.dev225

  ==> Input File <==

--------------------------------------------------------------------------
#psi4
#
memory 32 gb

molecule  {
0 1
  O        1.3424612    -0.6086791     0.0660989
  O       -1.4102950    -0.5835890    -0.1635680
  C        0.6753190     0.6118990    -0.2881280
  C       -0.7297860     0.5791870     0.2830810
  H        1.2295620     1.4983740     0.0482790
  H        0.6301520     0.6189470    -1.3788980
  H       -1.3096140     1.4447800    -0.0505840
  H       -0.6789700     0.6132250     1.3845490
  H        1.5826490    -0.5504470     1.0004920
  H       -0.7479790    -1.2966940    -0.0970910
units angstrom
no_reorient  #important for SAPT in psi4, default
symmetry c1  #important for SAPT in psi4, default
}

set PROPERTIES_ORIGIN ["COM"]
properties('MP2/aug-cc-pvtz', properties = ['dipole'])
--------------------------------------------------------------------------

    Molecular point group: c1
  Charge       = 0
  Multiplicity = 1
  Basis Set: AUG-CC-PVTZ
    Blend: AUG-CC-PVTZ
  Basis Set: (AUG-CC-PVTZ AUX)
    Blend: AUG-CC-PVTZ-JKFIT

    Orbital Energies [Eh]
    ---------------------

    Doubly Occupied:

       1A    -20.576002     2A    -20.554250     3A    -11.286850
       4A    -11.279559     5A     -1.381909     6A     -1.346887
       7A     -1.001838     8A     -0.851134     9A     -0.706055
      10A     -0.692337    11A     -0.644376    12A     -0.615802
      13A     -0.572252    14A     -0.525480    15A     -0.511377
      16A     -0.473411    17A     -0.438071

  @DF-RHF Final Energy:  -229.02832664650273

   => Energetics <=

    Nuclear Repulsion Energy =            133.7676277060606651
    One-Electron Energy =                -578.6767268421037897
    Two-Electron Energy =                 215.8807724895403624
    Total Energy =                       -229.0283266465027339
  Basis Set: (AUG-CC-PVTZ AUX)
    Blend: AUG-CC-PVTZ-RI
    Molecular point group: c1

    Geometry (in Angstrom), charge = 0, multiplicity = 1:

       Center              X                  Y                   Z               Mass
    ------------   -----------------  -----------------  -----------------  -----------------
         O            1.359020359598    -0.569496032105     0.077474919428    15.994914619570
         O           -1.393735840402    -0.544405932105    -0.152191980572    15.994914619570
         C            0.691878159598     0.651082067895    -0.276751980572    12.000000000000
         C           -0.713226840402     0.618370067895     0.294457019428    12.000000000000
         H            1.246121159598     1.537557067895     0.059655019428     1.007825032230
         H            0.646711159598     0.658130067895    -1.367521980572     1.007825032230
         H           -1.293054840402     1.483963067895    -0.039207980572     1.007825032230
         H           -0.662410840402     0.652408067895     1.395925019428     1.007825032230
         H            1.599208159598    -0.511263932105     1.011868019428     1.007825032230
         H           -0.731419840402    -1.257510932105    -0.085714980572     1.007825032230

  Basis Set: AUG-CC-PVTZ
    Blend: AUG-CC-PVTZ
  Basis Set: (AUG-CC-PVTZ AUX)
    Blend: AUG-CC-PVTZ-JKFIT
	 Reference Energy          =    -229.0283266465027339 [Eh]
	 Singles Energy            =      -0.0000000000000000 [Eh]
	 Same-Spin Energy          =      -0.2167953662392795 [Eh]
	 Opposite-Spin Energy      =      -0.7049655950693984 [Eh]
	 Correlation Energy        =      -0.9217609613086779 [Eh]
	 Total Energy              =    -229.9500876078114118 [Eh]

	 ================> DF-SCS-MP2 Energies <==================
	-----------------------------------------------------------
	 SCS Same-Spin Scale       =       0.3333333333333333 [-]
	 SCS Opposite-Spin Scale   =       1.2000000000000000 [-]
	 SCS Same-Spin Energy      =      -0.0722651220797598 [Eh]
	 SCS Opposite-Spin Energy  =      -0.8459587140832781 [Eh]
	 SCS Correlation Energy    =      -0.9182238361630379 [Eh]
	 SCS Total Energy          =    -229.9465504826657707 [Eh]
	-----------------------------------------------------------

  Dipole Moment: [D]
     X:     1.4789      Y:     1.5090      Z:     1.4538     Total:     2.5647

*** Psi4 exiting successfully. Buy a developer a beer!
