                               Psi4 1.4a3.dev225

  ==> Input File <==

--------------------------------------------------------------------------
#psi4
#
memory 32 gb

molecule  {
0 1
  O        1.3629200    -0.6007480     0.0540100
  O       -1.4102950    -0.5835890    -0.1635680
  C        0.6753190     0.6118990    -0.2881280
  C       -0.6109096     0.4923825     0.3032340
  H        1.2295620     1.4983740     0.0482790
  H        0.6301520     0.6189470    -1.3788980
  H       -1.3096140     1.4447800    -0.0505840
  H       -0.6789700     0.6132250     1.3845490
  H        1.5826490    -0.5504470     1.0004920
  H       -0.7479790    -1.2966940    -0.0970910
units angstrom
no_reorient  #important for SAPT in psi4, default
symmetry c1  #important for SAPT in psi4, default
}

set PROPERTIES_ORIGIN ["COM"]
properties('MP2/aug-cc-pvtz', properties = ['dipole'])
--------------------------------------------------------------------------

    Molecular point group: c1
  Charge       = 0
  Multiplicity = 1
  Basis Set: AUG-CC-PVTZ
    Blend: AUG-CC-PVTZ
  Basis Set: (AUG-CC-PVTZ AUX)
    Blend: AUG-CC-PVTZ-JKFIT

    Orbital Energies [Eh]
    ---------------------

    Doubly Occupied:

       1A    -20.574751     2A    -20.561216     3A    -11.286049
       4A    -11.284899     5A     -1.387993     6A     -1.351928
       7A     -1.021876     8A     -0.842543     9A     -0.708882
      10A     -0.700861    11A     -0.656987    12A     -0.609793
      13A     -0.572184    14A     -0.527535    15A     -0.504881
      16A     -0.462340    17A     -0.445823

  @DF-RHF Final Energy:  -229.00266444272901

   => Energetics <=

    Nuclear Repulsion Energy =            135.0103360721247441
    One-Electron Energy =                -581.0249222123929940
    Two-Electron Energy =                 217.0119216975392362
    Total Energy =                       -229.0026644427290137
  Basis Set: (AUG-CC-PVTZ AUX)
    Blend: AUG-CC-PVTZ-RI
    Molecular point group: c1

    Geometry (in Angstrom), charge = 0, multiplicity = 1:

       Center              X                  Y                   Z               Mass
    ------------   -----------------  -----------------  -----------------  -----------------
         O            1.351209581853    -0.546818893690     0.064604626888    15.994914619570
         O           -1.422005418147    -0.529659893690    -0.152973373112    15.994914619570
         C            0.663608581853     0.665828106310    -0.277533373112    12.000000000000
         C           -0.622620018147     0.546311606310     0.313828626888    12.000000000000
         H            1.217851581853     1.552303106310     0.058873626888     1.007825032230
         H            0.618441581853     0.672876106310    -1.368303373112     1.007825032230
         H           -1.321324418147     1.498709106310    -0.039989373112     1.007825032230
         H           -0.690680418147     0.667154106310     1.395143626888     1.007825032230
         H            1.570938581853    -0.496517893690     1.011086626888     1.007825032230
         H           -0.759689418147    -1.242764893690    -0.086496373112     1.007825032230

  Basis Set: AUG-CC-PVTZ
    Blend: AUG-CC-PVTZ
  Basis Set: (AUG-CC-PVTZ AUX)
    Blend: AUG-CC-PVTZ-JKFIT
	 Reference Energy          =    -229.0026644427290137 [Eh]
	 Singles Energy            =      -0.0000000000000000 [Eh]
	 Same-Spin Energy          =      -0.2184054287205854 [Eh]
	 Opposite-Spin Energy      =      -0.7077041790740779 [Eh]
	 Correlation Energy        =      -0.9261096077946633 [Eh]
	 Total Energy              =    -229.9287740505236854 [Eh]

	 ================> DF-SCS-MP2 Energies <==================
	-----------------------------------------------------------
	 SCS Same-Spin Scale       =       0.3333333333333333 [-]
	 SCS Opposite-Spin Scale   =       1.2000000000000000 [-]
	 SCS Same-Spin Energy      =      -0.0728018095735285 [Eh]
	 SCS Opposite-Spin Energy  =      -0.8492450148888935 [Eh]
	 SCS Correlation Energy    =      -0.9220468244624219 [Eh]
	 SCS Total Energy          =    -229.9247112671914408 [Eh]
	-----------------------------------------------------------

  Dipole Moment: [D]
     X:     1.5290      Y:     1.3517      Z:     1.4854     Total:     2.5241

*** Psi4 exiting successfully. Buy a developer a beer!
