                               Psi4 1.4a3.dev225

  ==> Input File <==

--------------------------------------------------------------------------
#psi4
#
memory 32 gb

molecule  {
0 1
  O        1.3629200    -0.6007480     0.0540100
  O       -1.4102950    -0.5835890    -0.1635680
  C        0.6753190     0.6118990    -0.2881280
  C       -0.7297860     0.5791870     0.2830810
  H        1.2295620     1.4983740     0.0482790
  H        0.6301520     0.6189470    -1.3788980
  H       -1.2831131     1.4052182    -0.0353339
  H       -0.6789700     0.6132250     1.3845490
  H        1.5826490    -0.5504470     1.0004920
  H       -0.7479790    -1.2966940    -0.0970910
units angstrom
no_reorient  #important for SAPT in psi4, default
symmetry c1  #important for SAPT in psi4, default
}

set PROPERTIES_ORIGIN ["COM"]
properties('MP2/aug-cc-pvtz', properties = ['dipole'])
--------------------------------------------------------------------------

    Molecular point group: c1
  Charge       = 0
  Multiplicity = 1
  Basis Set: AUG-CC-PVTZ
    Blend: AUG-CC-PVTZ
  Basis Set: (AUG-CC-PVTZ AUX)
    Blend: AUG-CC-PVTZ-JKFIT

    Orbital Energies [Eh]
    ---------------------

    Doubly Occupied:

       1A    -20.576284     2A    -20.554340     3A    -11.286172
       4A    -11.274106     5A     -1.380279     6A     -1.346908
       7A     -1.004179     8A     -0.855068     9A     -0.706145
      10A     -0.690986    11A     -0.644973    12A     -0.619414
      13A     -0.573938    14A     -0.526942    15A     -0.511493
      16A     -0.475200    17A     -0.438053

  @DF-RHF Final Energy:  -229.02717433126674

   => Energetics <=

    Nuclear Repulsion Energy =            133.8050638166724582
    One-Electron Energy =                -578.7355184290831858
    Two-Electron Energy =                 215.9032802811439637
    Total Energy =                       -229.0271743312667354
  Basis Set: (AUG-CC-PVTZ AUX)
    Blend: AUG-CC-PVTZ-RI
    Molecular point group: c1

    Geometry (in Angstrom), charge = 0, multiplicity = 1:

       Center              X                  Y                   Z               Mass
    ------------   -----------------  -----------------  -----------------  -----------------
         O            1.373773753340    -0.562967098623     0.068255147910    15.994914619570
         O           -1.399441246660    -0.545808098623    -0.149322852090    15.994914619570
         C            0.686172753340     0.649679901377    -0.273882852090    12.000000000000
         C           -0.718932246660     0.616967901377     0.297326147910    12.000000000000
         H            1.240415753340     1.536154901377     0.062524147910     1.007825032230
         H            0.641005753340     0.656727901377    -1.364652852090     1.007825032230
         H           -1.272259346660     1.442999101377    -0.021088752090     1.007825032230
         H           -0.668116246660     0.651005901377     1.398794147910     1.007825032230
         H            1.593502753340    -0.512666098623     1.014737147910     1.007825032230
         H           -0.737125246660    -1.258913098623    -0.082845852090     1.007825032230

  Basis Set: AUG-CC-PVTZ
    Blend: AUG-CC-PVTZ
  Basis Set: (AUG-CC-PVTZ AUX)
    Blend: AUG-CC-PVTZ-JKFIT
	 Reference Energy          =    -229.0271743312667354 [Eh]
	 Singles Energy            =      -0.0000000000000000 [Eh]
	 Same-Spin Energy          =      -0.2168149189651653 [Eh]
	 Opposite-Spin Energy      =      -0.7048805880280747 [Eh]
	 Correlation Energy        =      -0.9216955069932400 [Eh]
	 Total Energy              =    -229.9488698382599807 [Eh]

	 ================> DF-SCS-MP2 Energies <==================
	-----------------------------------------------------------
	 SCS Same-Spin Scale       =       0.3333333333333333 [-]
	 SCS Opposite-Spin Scale   =       1.2000000000000000 [-]
	 SCS Same-Spin Energy      =      -0.0722716396550551 [Eh]
	 SCS Opposite-Spin Energy  =      -0.8458567056336896 [Eh]
	 SCS Correlation Energy    =      -0.9181283452887448 [Eh]
	 SCS Total Energy          =    -229.9453026765554853 [Eh]
	-----------------------------------------------------------

  Dipole Moment: [D]
     X:     1.4046      Y:     1.5156      Z:     1.4725     Total:     2.5374

*** Psi4 exiting successfully. Buy a developer a beer!
