                               Psi4 1.4a3.dev225

  ==> Input File <==

--------------------------------------------------------------------------
#psi4
#
memory 32 gb

molecule  {
0 1
  O        1.3629200    -0.6007480     0.0540100
  O       -1.4784394    -0.5240152    -0.2038471
  C        0.6753190     0.6118990    -0.2881280
  C       -0.7297860     0.5791870     0.2830810
  H        1.2295620     1.4983740     0.0482790
  H        0.6301520     0.6189470    -1.3788980
  H       -1.3096140     1.4447800    -0.0505840
  H       -0.6789700     0.6132250     1.3845490
  H        1.5826490    -0.5504470     1.0004920
  H       -0.7479790    -1.2966940    -0.0970910
units angstrom
no_reorient  #important for SAPT in psi4, default
symmetry c1  #important for SAPT in psi4, default
}

set PROPERTIES_ORIGIN ["COM"]
properties('MP2/aug-cc-pvtz', properties = ['dipole'])
--------------------------------------------------------------------------

    Molecular point group: c1
  Charge       = 0
  Multiplicity = 1
  Basis Set: AUG-CC-PVTZ
    Blend: AUG-CC-PVTZ
  Basis Set: (AUG-CC-PVTZ AUX)
    Blend: AUG-CC-PVTZ-JKFIT

    Orbital Energies [Eh]
    ---------------------

    Doubly Occupied:

       1A    -20.578586     2A    -20.565125     3A    -11.287456
       4A    -11.278951     5A     -1.378702     6A     -1.337142
       7A     -0.998649     8A     -0.845679     9A     -0.701834
      10A     -0.688436    11A     -0.644357    12A     -0.603989
      13A     -0.570782    14A     -0.526032    15A     -0.507872
      16A     -0.475130    17A     -0.438281

  @DF-RHF Final Energy:  -229.01383075795309

   => Energetics <=

    Nuclear Repulsion Energy =            132.7447553728718219
    One-Electron Energy =                -576.6631635381346541
    Two-Electron Energy =                 214.9045774073097164
    Total Energy =                       -229.0138307579530874
  Basis Set: (AUG-CC-PVTZ AUX)
    Blend: AUG-CC-PVTZ-RI
    Molecular point group: c1

    Geometry (in Angstrom), charge = 0, multiplicity = 1:

       Center              X                  Y                   Z               Mass
    ------------   -----------------  -----------------  -----------------  -----------------
         O            1.391773916153    -0.578969689763     0.078888037045    15.994914619570
         O           -1.449585483847    -0.502236889763    -0.178969062955    15.994914619570
         C            0.704172916153     0.633677310237    -0.263249962955    12.000000000000
         C           -0.700932083847     0.600965310237     0.307959037045    12.000000000000
         H            1.258415916153     1.520152310237     0.073157037045     1.007825032230
         H            0.659005916153     0.640725310237    -1.354019962955     1.007825032230
         H           -1.280760083847     1.466558310237    -0.025705962955     1.007825032230
         H           -0.650116083847     0.635003310237     1.409427037045     1.007825032230
         H            1.611502916153    -0.528668689763     1.025370037045     1.007825032230
         H           -0.719125083847    -1.274915689763    -0.072212962955     1.007825032230

  Basis Set: AUG-CC-PVTZ
    Blend: AUG-CC-PVTZ
  Basis Set: (AUG-CC-PVTZ AUX)
    Blend: AUG-CC-PVTZ-JKFIT
	 Reference Energy          =    -229.0138307579530874 [Eh]
	 Singles Energy            =      -0.0000000000000000 [Eh]
	 Same-Spin Energy          =      -0.2182440155307909 [Eh]
	 Opposite-Spin Energy      =      -0.7087963872384360 [Eh]
	 Correlation Energy        =      -0.9270404027692269 [Eh]
	 Total Energy              =    -229.9408711607223097 [Eh]

	 ================> DF-SCS-MP2 Energies <==================
	-----------------------------------------------------------
	 SCS Same-Spin Scale       =       0.3333333333333333 [-]
	 SCS Opposite-Spin Scale   =       1.2000000000000000 [-]
	 SCS Same-Spin Energy      =      -0.0727480051769303 [Eh]
	 SCS Opposite-Spin Energy  =      -0.8505556646861231 [Eh]
	 SCS Correlation Energy    =      -0.9233036698630533 [Eh]
	 SCS Total Energy          =    -229.9371344278161473 [Eh]
	-----------------------------------------------------------

  Dipole Moment: [D]
     X:     1.5250      Y:     1.3817      Z:     1.5378     Total:     2.5689

*** Psi4 exiting successfully. Buy a developer a beer!
