                               Psi4 1.4a3.dev225

  ==> Input File <==

--------------------------------------------------------------------------
#psi4
#
memory 32 gb

molecule  {
0 1
  O        1.3629200    -0.6007480     0.0540100
  O       -1.4102950    -0.5835890    -0.1635680
  C        0.6494979     0.7024132    -0.3366456
  C       -0.7297860     0.5791870     0.2830810
  H        1.2295620     1.4983740     0.0482790
  H        0.6301520     0.6189470    -1.3788980
  H       -1.3096140     1.4447800    -0.0505840
  H       -0.6789700     0.6132250     1.3845490
  H        1.5826490    -0.5504470     1.0004920
  H       -0.7479790    -1.2966940    -0.0970910
units angstrom
no_reorient  #important for SAPT in psi4, default
symmetry c1  #important for SAPT in psi4, default
}

set PROPERTIES_ORIGIN ["COM"]
properties('MP2/aug-cc-pvtz', properties = ['dipole'])
--------------------------------------------------------------------------

    Molecular point group: c1
  Charge       = 0
  Multiplicity = 1
  Basis Set: AUG-CC-PVTZ
    Blend: AUG-CC-PVTZ
  Basis Set: (AUG-CC-PVTZ AUX)
    Blend: AUG-CC-PVTZ-JKFIT

    Orbital Energies [Eh]
    ---------------------

    Doubly Occupied:

       1A    -20.564545     2A    -20.557072     3A    -11.287933
       4A    -11.284354     5A     -1.364782     6A     -1.327890
       7A     -1.010545     8A     -0.855352     9A     -0.700964
      10A     -0.685106    11A     -0.638019    12A     -0.607973
      13A     -0.571546    14A     -0.531298    15A     -0.503818
      16A     -0.470790    17A     -0.446574

  @DF-RHF Final Energy:  -229.01728893331543

   => Energetics <=

    Nuclear Repulsion Energy =            132.4369110646578349
    One-Electron Energy =                -576.0912773140300942
    Two-Electron Energy =                 214.6370773160568604
    Total Energy =                       -229.0172889333154274
  Basis Set: (AUG-CC-PVTZ AUX)
    Blend: AUG-CC-PVTZ-RI
    Molecular point group: c1

    Geometry (in Angstrom), charge = 0, multiplicity = 1:

       Center              X                  Y                   Z               Mass
    ------------   -----------------  -----------------  -----------------  -----------------
         O            1.379198945838    -0.581118295101     0.077887830941    15.994914619570
         O           -1.394016054162    -0.563959295101    -0.139690169059    15.994914619570
         C            0.665776845838     0.722042904899    -0.312767769059    12.000000000000
         C           -0.713507054162     0.598816704899     0.306958830941    12.000000000000
         H            1.245840945838     1.518003704899     0.072156830941     1.007825032230
         H            0.646430945838     0.638576704899    -1.355020169059     1.007825032230
         H           -1.293335054162     1.464409704899    -0.026706169059     1.007825032230
         H           -0.662691054162     0.632854704899     1.408426830941     1.007825032230
         H            1.598927945838    -0.530817295101     1.024369830941     1.007825032230
         H           -0.731700054162    -1.277064295101    -0.073213169059     1.007825032230

  Basis Set: AUG-CC-PVTZ
    Blend: AUG-CC-PVTZ
  Basis Set: (AUG-CC-PVTZ AUX)
    Blend: AUG-CC-PVTZ-JKFIT
	 Reference Energy          =    -229.0172889333154274 [Eh]
	 Singles Energy            =      -0.0000000000000000 [Eh]
	 Same-Spin Energy          =      -0.2171053491141129 [Eh]
	 Opposite-Spin Energy      =      -0.7070028507224828 [Eh]
	 Correlation Energy        =      -0.9241081998365956 [Eh]
	 Total Energy              =    -229.9413971331520088 [Eh]

	 ================> DF-SCS-MP2 Energies <==================
	-----------------------------------------------------------
	 SCS Same-Spin Scale       =       0.3333333333333333 [-]
	 SCS Opposite-Spin Scale   =       1.2000000000000000 [-]
	 SCS Same-Spin Energy      =      -0.0723684497047043 [Eh]
	 SCS Opposite-Spin Energy  =      -0.8484034208669794 [Eh]
	 SCS Correlation Energy    =      -0.9207718705716836 [Eh]
	 SCS Total Energy          =    -229.9380608038871117 [Eh]
	-----------------------------------------------------------

  Dipole Moment: [D]
     X:     1.2511      Y:     1.7570      Z:     1.3685     Total:     2.5544

*** Psi4 exiting successfully. Buy a developer a beer!
