                               Psi4 1.4a3.dev225

  ==> Input File <==

--------------------------------------------------------------------------
#psi4
#
memory 32 gb

molecule  {
0 1
  O        1.3629200    -0.6007480     0.0540100
  O       -1.5111639    -0.4921936    -0.2231089
  C        0.6753190     0.6118990    -0.2881280
  C       -0.7297860     0.5791870     0.2830810
  H        1.2295620     1.4983740     0.0482790
  H        0.6301520     0.6189470    -1.3788980
  H       -1.3096140     1.4447800    -0.0505840
  H       -0.6789700     0.6132250     1.3845490
  H        1.5826490    -0.5504470     1.0004920
  H       -0.7479790    -1.2966940    -0.0970910
units angstrom
no_reorient  #important for SAPT in psi4, default
symmetry c1  #important for SAPT in psi4, default
}

set PROPERTIES_ORIGIN ["COM"]
properties('MP2/aug-cc-pvtz', properties = ['dipole'])
--------------------------------------------------------------------------

    Molecular point group: c1
  Charge       = 0
  Multiplicity = 1
  Basis Set: AUG-CC-PVTZ
    Blend: AUG-CC-PVTZ
  Basis Set: (AUG-CC-PVTZ AUX)
    Blend: AUG-CC-PVTZ-JKFIT

    Orbital Energies [Eh]
    ---------------------

    Doubly Occupied:

       1A    -20.579513     2A    -20.569566     3A    -11.287944
       4A    -11.278575     5A     -1.378568     6A     -1.332681
       7A     -0.997669     8A     -0.843686     9A     -0.701488
      10A     -0.686414    11A     -0.644278    12A     -0.599229
      13A     -0.570235    14A     -0.525140    15A     -0.505419
      16A     -0.474900    17A     -0.438330

  @DF-RHF Final Energy:  -229.00220301005714

   => Energetics <=

    Nuclear Repulsion Energy =            132.3713007114083666
    One-Electron Energy =                -575.9197398042862233
    Two-Electron Energy =                 214.5462360828207125
    Total Energy =                       -229.0022030100571442
  Basis Set: (AUG-CC-PVTZ AUX)
    Blend: AUG-CC-PVTZ-RI
    Molecular point group: c1

    Geometry (in Angstrom), charge = 0, multiplicity = 1:

       Center              X                  Y                   Z               Mass
    ------------   -----------------  -----------------  -----------------  -----------------
         O            1.400211259101    -0.587174238415     0.083854298176    15.994914619570
         O           -1.473872640899    -0.478619838415    -0.193264601824    15.994914619570
         C            0.712610259101     0.625472761585    -0.258283701824    12.000000000000
         C           -0.692494740899     0.592760761585     0.312925298176    12.000000000000
         H            1.266853259101     1.511947761585     0.078123298176     1.007825032230
         H            0.667443259101     0.632520761585    -1.349053701824     1.007825032230
         H           -1.272322740899     1.458353761585    -0.020739701824     1.007825032230
         H           -0.641678740899     0.626798761585     1.414393298176     1.007825032230
         H            1.619940259101    -0.536873238415     1.030336298176     1.007825032230
         H           -0.710687740899    -1.283120238415    -0.067246701824     1.007825032230

  Basis Set: AUG-CC-PVTZ
    Blend: AUG-CC-PVTZ
  Basis Set: (AUG-CC-PVTZ AUX)
    Blend: AUG-CC-PVTZ-JKFIT
	 Reference Energy          =    -229.0022030100571442 [Eh]
	 Singles Energy            =      -0.0000000000000000 [Eh]
	 Same-Spin Energy          =      -0.2189962290315761 [Eh]
	 Opposite-Spin Energy      =      -0.7108369075011459 [Eh]
	 Correlation Energy        =      -0.9298331365327220 [Eh]
	 Total Energy              =    -229.9320361465898657 [Eh]

	 ================> DF-SCS-MP2 Energies <==================
	-----------------------------------------------------------
	 SCS Same-Spin Scale       =       0.3333333333333333 [-]
	 SCS Opposite-Spin Scale   =       1.2000000000000000 [-]
	 SCS Same-Spin Energy      =      -0.0729987430105254 [Eh]
	 SCS Opposite-Spin Energy  =      -0.8530042890013750 [Eh]
	 SCS Correlation Energy    =      -0.9260030320119004 [Eh]
	 SCS Total Energy          =    -229.9282060420690357 [Eh]
	-----------------------------------------------------------

  Dipole Moment: [D]
     X:     1.5779      Y:     1.3333      Z:     1.5672     Total:     2.5930

*** Psi4 exiting successfully. Buy a developer a beer!
