                               Psi4 1.4a3.dev225

  ==> Input File <==

--------------------------------------------------------------------------
#psi4
#
memory 32 gb

molecule  {
0 1
  O        1.3629200    -0.6007480     0.0540100
  O       -1.3927275    -0.5976081    -0.1531503
  C        0.6753190     0.6118990    -0.2881280
  C       -0.7297860     0.5791870     0.2830810
  H        1.2295620     1.4983740     0.0482790
  H        0.6301520     0.6189470    -1.3788980
  H       -1.3096140     1.4447800    -0.0505840
  H       -0.6789700     0.6132250     1.3845490
  H        1.5826490    -0.5504470     1.0004920
  H       -0.7479790    -1.2966940    -0.0970910
units angstrom
no_reorient  #important for SAPT in psi4, default
symmetry c1  #important for SAPT in psi4, default
}

set PROPERTIES_ORIGIN ["COM"]
properties('MP2/aug-cc-pvtz', properties = ['dipole'])
--------------------------------------------------------------------------

    Molecular point group: c1
  Charge       = 0
  Multiplicity = 1
  Basis Set: AUG-CC-PVTZ
    Blend: AUG-CC-PVTZ
  Basis Set: (AUG-CC-PVTZ AUX)
    Blend: AUG-CC-PVTZ-JKFIT

    Orbital Energies [Eh]
    ---------------------

    Doubly Occupied:

       1A    -20.576269     2A    -20.552325     3A    -11.286393
       4A    -11.280819     5A     -1.381885     6A     -1.349936
       7A     -1.002760     8A     -0.852739     9A     -0.707680
      10A     -0.690612    11A     -0.645265    12A     -0.619678
      13A     -0.572110    14A     -0.526330    15A     -0.511136
      16A     -0.473065    17A     -0.438676

  @DF-RHF Final Energy:  -229.02913674455780

   => Energetics <=

    Nuclear Repulsion Energy =            133.7911082220952892
    One-Electron Energy =                -578.7051320341853398
    Two-Electron Energy =                 215.8848870675322189
    Total Energy =                       -229.0291367445578032
  Basis Set: (AUG-CC-PVTZ AUX)
    Blend: AUG-CC-PVTZ-RI
    Molecular point group: c1

    Geometry (in Angstrom), charge = 0, multiplicity = 1:

       Center              X                  Y                   Z               Mass
    ------------   -----------------  -----------------  -----------------  -----------------
         O            1.369674855968    -0.559995265835     0.065816904163    15.994914619570
         O           -1.385972644032    -0.556855365835    -0.141343395837    15.994914619570
         C            0.682073855968     0.652651734165    -0.276321095837    12.000000000000
         C           -0.723031144032     0.619939734165     0.294887904163    12.000000000000
         H            1.236316855968     1.539126734165     0.060085904163     1.007825032230
         H            0.636906855968     0.659699734165    -1.367091095837     1.007825032230
         H           -1.302859144032     1.485532734165    -0.038777095837     1.007825032230
         H           -0.672215144032     0.653977734165     1.396355904163     1.007825032230
         H            1.589403855968    -0.509694265835     1.012298904163     1.007825032230
         H           -0.741224144032    -1.255941265835    -0.085284095837     1.007825032230

  Basis Set: AUG-CC-PVTZ
    Blend: AUG-CC-PVTZ
  Basis Set: (AUG-CC-PVTZ AUX)
    Blend: AUG-CC-PVTZ-JKFIT
	 Reference Energy          =    -229.0291367445578032 [Eh]
	 Singles Energy            =      -0.0000000000000000 [Eh]
	 Same-Spin Energy          =      -0.2165079667843749 [Eh]
	 Opposite-Spin Energy      =      -0.7043564864272479 [Eh]
	 Correlation Energy        =      -0.9208644532116228 [Eh]
	 Total Energy              =    -229.9500011977694385 [Eh]

	 ================> DF-SCS-MP2 Energies <==================
	-----------------------------------------------------------
	 SCS Same-Spin Scale       =       0.3333333333333333 [-]
	 SCS Opposite-Spin Scale   =       1.2000000000000000 [-]
	 SCS Same-Spin Energy      =      -0.0721693222614583 [Eh]
	 SCS Opposite-Spin Energy  =      -0.8452277837126975 [Eh]
	 SCS Correlation Energy    =      -0.9173971059741558 [Eh]
	 SCS Total Energy          =    -229.9465338505319494 [Eh]
	-----------------------------------------------------------

  Dipole Moment: [D]
     X:     1.3867      Y:     1.5171      Z:     1.4570     Total:     2.5194

*** Psi4 exiting successfully. Buy a developer a beer!
