                               Psi4 1.4a3.dev225

  ==> Input File <==

--------------------------------------------------------------------------
#psi4
#
memory 32 gb

molecule  {
0 1
  O        1.3629200    -0.6007480     0.0540100
  O       -1.4102950    -0.5835890    -0.1635680
  C        0.6753190     0.6118990    -0.2881280
  C       -0.7112627     0.5796182     0.2755509
  H        1.2295620     1.4983740     0.0482790
  H        0.6301520     0.6189470    -1.3788980
  H       -1.3096140     1.4447800    -0.0505840
  H       -0.6789700     0.6132250     1.3845490
  H        1.5826490    -0.5504470     1.0004920
  H       -0.7479790    -1.2966940    -0.0970910
units angstrom
no_reorient  #important for SAPT in psi4, default
symmetry c1  #important for SAPT in psi4, default
}

set PROPERTIES_ORIGIN ["COM"]
properties('MP2/aug-cc-pvtz', properties = ['dipole'])
--------------------------------------------------------------------------

    Molecular point group: c1
  Charge       = 0
  Multiplicity = 1
  Basis Set: AUG-CC-PVTZ
    Blend: AUG-CC-PVTZ
  Basis Set: (AUG-CC-PVTZ AUX)
    Blend: AUG-CC-PVTZ-JKFIT

    Orbital Energies [Eh]
    ---------------------

    Doubly Occupied:

       1A    -20.576935     2A    -20.554918     3A    -11.286474
       4A    -11.280847     5A     -1.380949     6A     -1.345734
       7A     -1.006265     8A     -0.849488     9A     -0.706195
      10A     -0.691043    11A     -0.646126    12A     -0.614677
      13A     -0.569685    14A     -0.526211    15A     -0.511382
      16A     -0.473469    17A     -0.441041

  @DF-RHF Final Energy:  -229.02734938719038

   => Energetics <=

    Nuclear Repulsion Energy =            133.7149637250596470
    One-Electron Energy =                -578.5617474299660898
    Two-Electron Energy =                 215.8194343177160590
    Total Energy =                       -229.0273493871903838
  Basis Set: (AUG-CC-PVTZ AUX)
    Blend: AUG-CC-PVTZ-RI
    Molecular point group: c1

    Geometry (in Angstrom), charge = 0, multiplicity = 1:

       Center              X                  Y                   Z               Mass
    ------------   -----------------  -----------------  -----------------  -----------------
         O            1.370621247175    -0.563693212595     0.069959469660    15.994914619570
         O           -1.402593752825    -0.546534212595    -0.147618530340    15.994914619570
         C            0.683020247175     0.648953787405    -0.272178530340    12.000000000000
         C           -0.703561452825     0.616672987405     0.291500369660    12.000000000000
         H            1.237263247175     1.535428787405     0.064228469660     1.007825032230
         H            0.637853247175     0.656001787405    -1.362948530340     1.007825032230
         H           -1.301912752825     1.481834787405    -0.034634530340     1.007825032230
         H           -0.671268752825     0.650279787405     1.400498469660     1.007825032230
         H            1.590350247175    -0.513392212595     1.016441469660     1.007825032230
         H           -0.740277752825    -1.259639212595    -0.081141530340     1.007825032230

  Basis Set: AUG-CC-PVTZ
    Blend: AUG-CC-PVTZ
  Basis Set: (AUG-CC-PVTZ AUX)
    Blend: AUG-CC-PVTZ-JKFIT
	 Reference Energy          =    -229.0273493871903838 [Eh]
	 Singles Energy            =      -0.0000000000000000 [Eh]
	 Same-Spin Energy          =      -0.2169939809032387 [Eh]
	 Opposite-Spin Energy      =      -0.7054252446254994 [Eh]
	 Correlation Energy        =      -0.9224192255287381 [Eh]
	 Total Energy              =    -229.9497686127191116 [Eh]

	 ================> DF-SCS-MP2 Energies <==================
	-----------------------------------------------------------
	 SCS Same-Spin Scale       =       0.3333333333333333 [-]
	 SCS Opposite-Spin Scale   =       1.2000000000000000 [-]
	 SCS Same-Spin Energy      =      -0.0723313269677462 [Eh]
	 SCS Opposite-Spin Energy  =      -0.8465102935505993 [Eh]
	 SCS Correlation Energy    =      -0.9188416205183455 [Eh]
	 SCS Total Energy          =    -229.9461910077087339 [Eh]
	-----------------------------------------------------------

  Dipole Moment: [D]
     X:     1.4366      Y:     1.5036      Z:     1.4669     Total:     2.5449

*** Psi4 exiting successfully. Buy a developer a beer!
