                               Psi4 1.4a3.dev225

  ==> Input File <==

--------------------------------------------------------------------------
#psi4
#
memory 32 gb

molecule  {
0 1
  O        1.3629200    -0.6007480     0.0540100
  O       -1.4135731    -0.5904617    -0.1399947
  C        0.6753190     0.6118990    -0.2881280
  C       -0.7297860     0.5791870     0.2830810
  H        1.2295620     1.4983740     0.0482790
  H        0.6301520     0.6189470    -1.3788980
  H       -1.3096140     1.4447800    -0.0505840
  H       -0.6789700     0.6132250     1.3845490
  H        1.5826490    -0.5504470     1.0004920
  H       -0.7479790    -1.2966940    -0.0970910
units angstrom
no_reorient  #important for SAPT in psi4, default
symmetry c1  #important for SAPT in psi4, default
}

set PROPERTIES_ORIGIN ["COM"]
properties('MP2/aug-cc-pvtz', properties = ['dipole'])
--------------------------------------------------------------------------

    Molecular point group: c1
  Charge       = 0
  Multiplicity = 1
  Basis Set: AUG-CC-PVTZ
    Blend: AUG-CC-PVTZ
  Basis Set: (AUG-CC-PVTZ AUX)
    Blend: AUG-CC-PVTZ-JKFIT

    Orbital Energies [Eh]
    ---------------------

    Doubly Occupied:

       1A    -20.576868     2A    -20.554486     3A    -11.287107
       4A    -11.280323     5A     -1.380925     6A     -1.347886
       7A     -1.002142     8A     -0.851545     9A     -0.706080
      10A     -0.690396    11A     -0.645614    12A     -0.616377
      13A     -0.572490    14A     -0.527625    15A     -0.510975
      16A     -0.472566    17A     -0.438748

  @DF-RHF Final Energy:  -229.02839901583235

   => Energetics <=

    Nuclear Repulsion Energy =            133.5433606428419466
    One-Electron Energy =                -578.2192127042363836
    Two-Electron Energy =                 215.6474530455620879
    Total Energy =                       -229.0283990158323491
  Basis Set: (AUG-CC-PVTZ AUX)
    Blend: AUG-CC-PVTZ-RI
    Molecular point group: c1

    Geometry (in Angstrom), charge = 0, multiplicity = 1:

       Center              X                  Y                   Z               Mass
    ------------   -----------------  -----------------  -----------------  -----------------
         O            1.375049467533    -0.561837818896     0.062425001800    15.994914619570
         O           -1.401443632467    -0.551551518896    -0.131579698200    15.994914619570
         C            0.687448467533     0.650809181104    -0.279712998200    12.000000000000
         C           -0.717656532467     0.618097181104     0.291496001800    12.000000000000
         H            1.241691467533     1.537284181104     0.056694001800     1.007825032230
         H            0.642281467533     0.657857181104    -1.370482998200     1.007825032230
         H           -1.297484532467     1.483690181104    -0.042168998200     1.007825032230
         H           -0.666840532467     0.652135181104     1.392964001800     1.007825032230
         H            1.594778467533    -0.511536818896     1.008907001800     1.007825032230
         H           -0.735849532467    -1.257783818896    -0.088675998200     1.007825032230

  Basis Set: AUG-CC-PVTZ
    Blend: AUG-CC-PVTZ
  Basis Set: (AUG-CC-PVTZ AUX)
    Blend: AUG-CC-PVTZ-JKFIT
	 Reference Energy          =    -229.0283990158323491 [Eh]
	 Singles Energy            =      -0.0000000000000000 [Eh]
	 Same-Spin Energy          =      -0.2167553199795293 [Eh]
	 Opposite-Spin Energy      =      -0.7049905531768502 [Eh]
	 Correlation Energy        =      -0.9217458731563796 [Eh]
	 Total Energy              =    -229.9501448889887172 [Eh]

	 ================> DF-SCS-MP2 Energies <==================
	-----------------------------------------------------------
	 SCS Same-Spin Scale       =       0.3333333333333333 [-]
	 SCS Opposite-Spin Scale   =       1.2000000000000000 [-]
	 SCS Same-Spin Energy      =      -0.0722517733265098 [Eh]
	 SCS Opposite-Spin Energy  =      -0.8459886638122203 [Eh]
	 SCS Correlation Energy    =      -0.9182404371387300 [Eh]
	 SCS Total Energy          =    -229.9466394529710840 [Eh]
	-----------------------------------------------------------

  Dipole Moment: [D]
     X:     1.4329      Y:     1.5052      Z:     1.4209     Total:     2.5175

*** Psi4 exiting successfully. Buy a developer a beer!
