                               Psi4 1.4a3.dev225

  ==> Input File <==

--------------------------------------------------------------------------
#psi4
#
memory 32 gb

molecule  {
0 1
  O        1.3629200    -0.6007480     0.0540100
  O       -1.4102950    -0.5835890    -0.1635680
  C        0.6753190     0.6118990    -0.2881280
  C       -0.7297860     0.5791870     0.2830810
  H        1.2295620     1.4983740     0.0482790
  H        0.6218776     0.6202382    -1.5787226
  H       -1.3096140     1.4447800    -0.0505840
  H       -0.6789700     0.6132250     1.3845490
  H        1.5826490    -0.5504470     1.0004920
  H       -0.7479790    -1.2966940    -0.0970910
units angstrom
no_reorient  #important for SAPT in psi4, default
symmetry c1  #important for SAPT in psi4, default
}

set PROPERTIES_ORIGIN ["COM"]
properties('MP2/aug-cc-pvtz', properties = ['dipole'])
--------------------------------------------------------------------------

    Molecular point group: c1
  Charge       = 0
  Multiplicity = 1
  Basis Set: AUG-CC-PVTZ
    Blend: AUG-CC-PVTZ
  Basis Set: (AUG-CC-PVTZ AUX)
    Blend: AUG-CC-PVTZ-JKFIT

    Orbital Energies [Eh]
    ---------------------

    Doubly Occupied:

       1A    -20.580270     2A    -20.555567     3A    -11.309190
       4A    -11.282962     5A     -1.382605     6A     -1.348567
       7A     -0.996445     8A     -0.840118     9A     -0.705201
      10A     -0.690768    11A     -0.642688    12A     -0.616661
      13A     -0.564059    14A     -0.524492    15A     -0.490650
      16A     -0.474825    17A     -0.438368

  @DF-RHF Final Energy:  -229.00765095786045

   => Energetics <=

    Nuclear Repulsion Energy =            132.7605690295670229
    One-Electron Energy =                -576.6495688992401938
    Two-Electron Energy =                 214.8813489118127222
    Total Energy =                       -229.0076509578604487
  Basis Set: (AUG-CC-PVTZ AUX)
    Blend: AUG-CC-PVTZ-RI
    Molecular point group: c1

    Geometry (in Angstrom), charge = 0, multiplicity = 1:

       Center              X                  Y                   Z               Mass
    ------------   -----------------  -----------------  -----------------  -----------------
         O            1.374338699138    -0.563630780336     0.071749166594    15.994914619570
         O           -1.398876300862    -0.546471780336    -0.145828833406    15.994914619570
         C            0.686737699138     0.649016219664    -0.270388833406    12.000000000000
         C           -0.718367300862     0.616304219664     0.300820166594    12.000000000000
         H            1.240980699138     1.535491219664     0.066018166594     1.007825032230
         H            0.633296299138     0.657355419664    -1.560983433406     1.007825032230
         H           -1.298195300862     1.481897219664    -0.032844833406     1.007825032230
         H           -0.667551300862     0.650342219664     1.402288166594     1.007825032230
         H            1.594067699138    -0.513329780336     1.018231166594     1.007825032230
         H           -0.736560300862    -1.259576780336    -0.079351833406     1.007825032230

  Basis Set: AUG-CC-PVTZ
    Blend: AUG-CC-PVTZ
  Basis Set: (AUG-CC-PVTZ AUX)
    Blend: AUG-CC-PVTZ-JKFIT
	 Reference Energy          =    -229.0076509578604487 [Eh]
	 Singles Energy            =      -0.0000000000000000 [Eh]
	 Same-Spin Energy          =      -0.2170010495023109 [Eh]
	 Opposite-Spin Energy      =      -0.7068436537932006 [Eh]
	 Correlation Energy        =      -0.9238447032955115 [Eh]
	 Total Energy              =    -229.9314956611559637 [Eh]

	 ================> DF-SCS-MP2 Energies <==================
	-----------------------------------------------------------
	 SCS Same-Spin Scale       =       0.3333333333333333 [-]
	 SCS Opposite-Spin Scale   =       1.2000000000000000 [-]
	 SCS Same-Spin Energy      =      -0.0723336831674369 [Eh]
	 SCS Opposite-Spin Energy  =      -0.8482123845518407 [Eh]
	 SCS Correlation Energy    =      -0.9205460677192776 [Eh]
	 SCS Total Energy          =    -229.9281970255797205 [Eh]
	-----------------------------------------------------------

  Dipole Moment: [D]
     X:     1.4094      Y:     1.4491      Z:     1.5946     Total:     2.5747

*** Psi4 exiting successfully. Buy a developer a beer!
