                               Psi4 1.4a3.dev225

  ==> Input File <==

--------------------------------------------------------------------------
#psi4
#
memory 32 gb

molecule  {
0 1
  O        1.3217991    -0.6162384     0.0780799
  O       -1.4102950    -0.5835890    -0.1635680
  C        0.6753190     0.6118990    -0.2881280
  C       -0.7297860     0.5791870     0.2830810
  H        1.2295620     1.4983740     0.0482790
  H        0.6301520     0.6189470    -1.3788980
  H       -1.3096140     1.4447800    -0.0505840
  H       -0.6789700     0.6132250     1.3845490
  H        1.5826490    -0.5504470     1.0004920
  H       -0.7479790    -1.2966940    -0.0970910
units angstrom
no_reorient  #important for SAPT in psi4, default
symmetry c1  #important for SAPT in psi4, default
}

set PROPERTIES_ORIGIN ["COM"]
properties('MP2/aug-cc-pvtz', properties = ['dipole'])
--------------------------------------------------------------------------

    Molecular point group: c1
  Charge       = 0
  Multiplicity = 1
  Basis Set: AUG-CC-PVTZ
    Blend: AUG-CC-PVTZ
  Basis Set: (AUG-CC-PVTZ AUX)
    Blend: AUG-CC-PVTZ-JKFIT

    Orbital Energies [Eh]
    ---------------------

    Doubly Occupied:

       1A    -20.575355     2A    -20.553396     3A    -11.287096
       4A    -11.278791     5A     -1.383086     6A     -1.346322
       7A     -1.001938     8A     -0.851117     9A     -0.706517
      10A     -0.693759    11A     -0.643722    12A     -0.615288
      13A     -0.572551    14A     -0.524380    15A     -0.512074
      16A     -0.473040    17A     -0.437579

  @DF-RHF Final Energy:  -229.02831967914994

   => Energetics <=

    Nuclear Repulsion Energy =            133.9682650060870230
    One-Electron Energy =                -579.0811462362623843
    Two-Electron Energy =                 216.0845615510254447
    Total Energy =                       -229.0283196791499449
  Basis Set: (AUG-CC-PVTZ AUX)
    Blend: AUG-CC-PVTZ-RI
    Molecular point group: c1

    Geometry (in Angstrom), charge = 0, multiplicity = 1:

       Center              X                  Y                   Z               Mass
    ------------   -----------------  -----------------  -----------------  -----------------
         O            1.343685559442    -0.575106321225     0.086366863648    15.994914619570
         O           -1.388408540558    -0.542456921225    -0.155281036352    15.994914619570
         C            0.697205459442     0.653031078775    -0.279841036352    12.000000000000
         C           -0.707899540558     0.620319078775     0.291367963648    12.000000000000
         H            1.251448459442     1.539506078775     0.056565963648     1.007825032230
         H            0.652038459442     0.660079078775    -1.370611036352     1.007825032230
         H           -1.287727540558     1.485912078775    -0.042297036352     1.007825032230
         H           -0.657083540558     0.654357078775     1.392835963648     1.007825032230
         H            1.604535459442    -0.509314921225     1.008778963648     1.007825032230
         H           -0.726092540558    -1.255561921225    -0.088804036352     1.007825032230

  Basis Set: AUG-CC-PVTZ
    Blend: AUG-CC-PVTZ
  Basis Set: (AUG-CC-PVTZ AUX)
    Blend: AUG-CC-PVTZ-JKFIT
	 Reference Energy          =    -229.0283196791499449 [Eh]
	 Singles Energy            =      -0.0000000000000000 [Eh]
	 Same-Spin Energy          =      -0.2167722277795549 [Eh]
	 Opposite-Spin Energy      =      -0.7048052118896425 [Eh]
	 Correlation Energy        =      -0.9215774396691974 [Eh]
	 Total Energy              =    -229.9498971188191376 [Eh]

	 ================> DF-SCS-MP2 Energies <==================
	-----------------------------------------------------------
	 SCS Same-Spin Scale       =       0.3333333333333333 [-]
	 SCS Opposite-Spin Scale   =       1.2000000000000000 [-]
	 SCS Same-Spin Energy      =      -0.0722574092598516 [Eh]
	 SCS Opposite-Spin Energy  =      -0.8457662542675710 [Eh]
	 SCS Correlation Energy    =      -0.9180236635274226 [Eh]
	 SCS Total Energy          =    -229.9463433426773804 [Eh]
	-----------------------------------------------------------

  Dipole Moment: [D]
     X:     1.5439      Y:     1.5282      Z:     1.4332     Total:     2.6025

*** Psi4 exiting successfully. Buy a developer a beer!
