                               Psi4 1.4a3.dev225

  ==> Input File <==

--------------------------------------------------------------------------
#psi4
#
memory 32 gb

molecule  {
0 1
  O        1.4810609    -0.5454967    -0.0205811
  O       -1.4102950    -0.5835890    -0.1635680
  C        0.6753190     0.6118990    -0.2881280
  C       -0.7297860     0.5791870     0.2830810
  H        1.2295620     1.4983740     0.0482790
  H        0.6301520     0.6189470    -1.3788980
  H       -1.3096140     1.4447800    -0.0505840
  H       -0.6789700     0.6132250     1.3845490
  H        1.5826490    -0.5504470     1.0004920
  H       -0.7479790    -1.2966940    -0.0970910
units angstrom
no_reorient  #important for SAPT in psi4, default
symmetry c1  #important for SAPT in psi4, default
}

set PROPERTIES_ORIGIN ["COM"]
properties('MP2/aug-cc-pvtz', properties = ['dipole'])
--------------------------------------------------------------------------

    Molecular point group: c1
  Charge       = 0
  Multiplicity = 1
  Basis Set: AUG-CC-PVTZ
    Blend: AUG-CC-PVTZ
  Basis Set: (AUG-CC-PVTZ AUX)
    Blend: AUG-CC-PVTZ-JKFIT

    Orbital Energies [Eh]
    ---------------------

    Doubly Occupied:

       1A    -20.582554     2A    -20.559734     3A    -11.285228
       4A    -11.284539     5A     -1.374327     6A     -1.347961
       7A     -1.000750     8A     -0.849258     9A     -0.706865
      10A     -0.677969    11A     -0.646675    12A     -0.619024
      13A     -0.568531    14A     -0.532807    15A     -0.508594
      16A     -0.472675    17A     -0.440811

  @DF-RHF Final Energy:  -229.02015192872778

   => Energetics <=

    Nuclear Repulsion Energy =            132.4075301338980637
    One-Electron Energy =                -575.9387556871143943
    Two-Electron Energy =                 214.5110736244885743
    Total Energy =                       -229.0201519287277847
  Basis Set: (AUG-CC-PVTZ AUX)
    Blend: AUG-CC-PVTZ-RI
    Molecular point group: c1

    Geometry (in Angstrom), charge = 0, multiplicity = 1:

       Center              X                  Y                   Z               Mass
    ------------   -----------------  -----------------  -----------------  -----------------
         O            1.461884961998    -0.522603921555     0.013143584395    15.994914619570
         O           -1.429470938002    -0.560696221555    -0.129843315605    15.994914619570
         C            0.656143061998     0.634791778445    -0.254403315605    12.000000000000
         C           -0.748961938002     0.602079778445     0.316805684395    12.000000000000
         H            1.210386061998     1.521266778445     0.082003684395     1.007825032230
         H            0.610976061998     0.641839778445    -1.345173315605     1.007825032230
         H           -1.328789938002     1.467672778445    -0.016859315605     1.007825032230
         H           -0.698145938002     0.636117778445     1.418273684395     1.007825032230
         H            1.563473061998    -0.527554221555     1.034216684395     1.007825032230
         H           -0.767154938002    -1.273801221555    -0.063366315605     1.007825032230

  Basis Set: AUG-CC-PVTZ
    Blend: AUG-CC-PVTZ
  Basis Set: (AUG-CC-PVTZ AUX)
    Blend: AUG-CC-PVTZ-JKFIT
	 Reference Energy          =    -229.0201519287277847 [Eh]
	 Singles Energy            =      -0.0000000000000000 [Eh]
	 Same-Spin Energy          =      -0.2173910468186948 [Eh]
	 Opposite-Spin Energy      =      -0.7071395208597273 [Eh]
	 Correlation Energy        =      -0.9245305676784221 [Eh]
	 Total Energy              =    -229.9446824964062159 [Eh]

	 ================> DF-SCS-MP2 Energies <==================
	-----------------------------------------------------------
	 SCS Same-Spin Scale       =       0.3333333333333333 [-]
	 SCS Opposite-Spin Scale   =       1.2000000000000000 [-]
	 SCS Same-Spin Energy      =      -0.0724636822728982 [Eh]
	 SCS Opposite-Spin Energy  =      -0.8485674250316727 [Eh]
	 SCS Correlation Energy    =      -0.9210311073045709 [Eh]
	 SCS Total Energy          =    -229.9411830360323563 [Eh]
	-----------------------------------------------------------

  Dipole Moment: [D]
     X:     1.0604      Y:     1.3405      Z:     1.5879     Total:     2.3330

*** Psi4 exiting successfully. Buy a developer a beer!
