                               Psi4 1.4a3.dev225

  ==> Input File <==

--------------------------------------------------------------------------
#psi4
#
memory 32 gb

molecule  {
0 1
  O        1.3629200    -0.6007480     0.0540100
  O       -1.4102950    -0.5835890    -0.1635680
  C        0.6753190     0.6118990    -0.2881280
  C       -0.7297860     0.5791870     0.2830810
  H        1.2295620     1.4983740     0.0482790
  H        0.6301520     0.6189470    -1.3788980
  H       -1.3096140     1.4447800    -0.0505840
  H       -0.6789700     0.6132250     1.3845490
  H        1.5713571    -0.5530320     0.9518524
  H       -0.7479790    -1.2966940    -0.0970910
units angstrom
no_reorient  #important for SAPT in psi4, default
symmetry c1  #important for SAPT in psi4, default
}

set PROPERTIES_ORIGIN ["COM"]
properties('MP2/aug-cc-pvtz', properties = ['dipole'])
--------------------------------------------------------------------------

    Molecular point group: c1
  Charge       = 0
  Multiplicity = 1
  Basis Set: AUG-CC-PVTZ
    Blend: AUG-CC-PVTZ
  Basis Set: (AUG-CC-PVTZ AUX)
    Blend: AUG-CC-PVTZ-JKFIT

    Orbital Energies [Eh]
    ---------------------

    Doubly Occupied:

       1A    -20.571936     2A    -20.555410     3A    -11.287116
       4A    -11.280703     5A     -1.389911     6A     -1.350635
       7A     -1.004412     8A     -0.854793     9A     -0.711690
      10A     -0.692934    11A     -0.647325    12A     -0.617735
      13A     -0.572818    14A     -0.527634    15A     -0.513272
      16A     -0.474521    17A     -0.439122

  @DF-RHF Final Energy:  -229.02869985700832

   => Energetics <=

    Nuclear Repulsion Energy =            133.8630873445238478
    One-Electron Energy =                -578.7996399189738668
    Two-Electron Energy =                 215.9078527174417275
    Total Energy =                       -229.0286998570083199
  Basis Set: (AUG-CC-PVTZ AUX)
    Blend: AUG-CC-PVTZ-RI
    Molecular point group: c1

    Geometry (in Angstrom), charge = 0, multiplicity = 1:

       Center              X                  Y                   Z               Mass
    ------------   -----------------  -----------------  -----------------  -----------------
         O            1.374387720251    -0.563567809121     0.069293074758    15.994914619570
         O           -1.398827279749    -0.546408809121    -0.148284925242    15.994914619570
         C            0.686786720251     0.649079190879    -0.272844925242    12.000000000000
         C           -0.718318279749     0.616367190879     0.298364074758    12.000000000000
         H            1.241029720251     1.535554190879     0.063562074758     1.007825032230
         H            0.641619720251     0.656127190879    -1.363614925242     1.007825032230
         H           -1.298146279749     1.481960190879    -0.035300925242     1.007825032230
         H           -0.667502279749     0.650405190879     1.399832074758     1.007825032230
         H            1.582824820251    -0.515851809121     0.967135474758     1.007825032230
         H           -0.736511279749    -1.259513809121    -0.081807925242     1.007825032230

  Basis Set: AUG-CC-PVTZ
    Blend: AUG-CC-PVTZ
  Basis Set: (AUG-CC-PVTZ AUX)
    Blend: AUG-CC-PVTZ-JKFIT
	 Reference Energy          =    -229.0286998570083199 [Eh]
	 Singles Energy            =      -0.0000000000000000 [Eh]
	 Same-Spin Energy          =      -0.2162682416333206 [Eh]
	 Opposite-Spin Energy      =      -0.7036826094786165 [Eh]
	 Correlation Energy        =      -0.9199508511119371 [Eh]
	 Total Energy              =    -229.9486507081202546 [Eh]

	 ================> DF-SCS-MP2 Energies <==================
	-----------------------------------------------------------
	 SCS Same-Spin Scale       =       0.3333333333333333 [-]
	 SCS Opposite-Spin Scale   =       1.2000000000000000 [-]
	 SCS Same-Spin Energy      =      -0.0720894138777735 [Eh]
	 SCS Opposite-Spin Energy  =      -0.8444191313743398 [Eh]
	 SCS Correlation Energy    =      -0.9165085452521133 [Eh]
	 SCS Total Energy          =    -229.9452084022604197 [Eh]
	-----------------------------------------------------------

  Dipole Moment: [D]
     X:     1.3953      Y:     1.4967      Z:     1.4367     Total:     2.5002

*** Psi4 exiting successfully. Buy a developer a beer!
