                               Psi4 1.4a3.dev225

  ==> Input File <==

--------------------------------------------------------------------------
#psi4
#
memory 32 gb

molecule  {
0 1
  O        1.3629200    -0.6007480     0.0540100
  O       -1.4102950    -0.5835890    -0.1635680
  C        0.6856690     0.5665545    -0.2628103
  C       -0.7297860     0.5791870     0.2830810
  H        1.2295620     1.4983740     0.0482790
  H        0.6301520     0.6189470    -1.3788980
  H       -1.3096140     1.4447800    -0.0505840
  H       -0.6789700     0.6132250     1.3845490
  H        1.5826490    -0.5504470     1.0004920
  H       -0.7479790    -1.2966940    -0.0970910
units angstrom
no_reorient  #important for SAPT in psi4, default
symmetry c1  #important for SAPT in psi4, default
}

set PROPERTIES_ORIGIN ["COM"]
properties('MP2/aug-cc-pvtz', properties = ['dipole'])
--------------------------------------------------------------------------

    Molecular point group: c1
  Charge       = 0
  Multiplicity = 1
  Basis Set: AUG-CC-PVTZ
    Blend: AUG-CC-PVTZ
  Basis Set: (AUG-CC-PVTZ AUX)
    Blend: AUG-CC-PVTZ-JKFIT

    Orbital Energies [Eh]
    ---------------------

    Doubly Occupied:

       1A    -20.582591     2A    -20.554317     3A    -11.287686
       4A    -11.278886     5A     -1.398075     6A     -1.351061
       7A     -0.997749     8A     -0.850474     9A     -0.712189
      10A     -0.693547    11A     -0.649868    12A     -0.621997
      13A     -0.574687    14A     -0.530663    15A     -0.502070
      16A     -0.471953    17A     -0.433837

  @DF-RHF Final Energy:  -229.02589284889052

   => Energetics <=

    Nuclear Repulsion Energy =            134.1765683750181495
    One-Electron Energy =                -579.4216223688773653
    Two-Electron Energy =                 216.2191611449686661
    Total Energy =                       -229.0258928488905212
  Basis Set: (AUG-CC-PVTZ AUX)
    Blend: AUG-CC-PVTZ-RI
    Molecular point group: c1

    Geometry (in Angstrom), charge = 0, multiplicity = 1:

       Center              X                  Y                   Z               Mass
    ------------   -----------------  -----------------  -----------------  -----------------
         O            1.372202238337    -0.554838652365     0.063605600172    15.994914619570
         O           -1.401012761663    -0.537679652365    -0.153972399828    15.994914619570
         C            0.694951238337     0.612463847635    -0.253214699828    12.000000000000
         C           -0.720503761663     0.625096347635     0.292676600172    12.000000000000
         H            1.238844238337     1.544283347635     0.057874600172     1.007825032230
         H            0.639434238337     0.664856347635    -1.369302399828     1.007825032230
         H           -1.300331761663     1.490689347635    -0.040988399828     1.007825032230
         H           -0.669687761663     0.659134347635     1.394144600172     1.007825032230
         H            1.591931238337    -0.504537652365     1.010087600172     1.007825032230
         H           -0.738696761663    -1.250784652365    -0.087495399828     1.007825032230

  Basis Set: AUG-CC-PVTZ
    Blend: AUG-CC-PVTZ
  Basis Set: (AUG-CC-PVTZ AUX)
    Blend: AUG-CC-PVTZ-JKFIT
	 Reference Energy          =    -229.0258928488905212 [Eh]
	 Singles Energy            =      -0.0000000000000000 [Eh]
	 Same-Spin Energy          =      -0.2169006527321273 [Eh]
	 Opposite-Spin Energy      =      -0.7046559218645693 [Eh]
	 Correlation Energy        =      -0.9215565745966966 [Eh]
	 Total Energy              =    -229.9474494234872282 [Eh]

	 ================> DF-SCS-MP2 Energies <==================
	-----------------------------------------------------------
	 SCS Same-Spin Scale       =       0.3333333333333333 [-]
	 SCS Opposite-Spin Scale   =       1.2000000000000000 [-]
	 SCS Same-Spin Energy      =      -0.0723002175773758 [Eh]
	 SCS Opposite-Spin Energy  =      -0.8455871062374831 [Eh]
	 SCS Correlation Energy    =      -0.9178873238148589 [Eh]
	 SCS Total Energy          =    -229.9437801727053738 [Eh]
	-----------------------------------------------------------

  Dipole Moment: [D]
     X:     1.4909      Y:     1.3364      Z:     1.5331     Total:     2.5217

*** Psi4 exiting successfully. Buy a developer a beer!
