                               Psi4 1.4a3.dev225

  ==> Input File <==

--------------------------------------------------------------------------
#psi4
#
memory 32 gb

molecule  {
0 1
  O        1.3723448    -0.6277136    -0.0934954
  O       -1.4102950    -0.5835890    -0.1635680
  C        0.6753190     0.6118990    -0.2881280
  C       -0.7297860     0.5791870     0.2830810
  H        1.2295620     1.4983740     0.0482790
  H        0.6301520     0.6189470    -1.3788980
  H       -1.3096140     1.4447800    -0.0505840
  H       -0.6789700     0.6132250     1.3845490
  H        1.5826490    -0.5504470     1.0004920
  H       -0.7479790    -1.2966940    -0.0970910
units angstrom
no_reorient  #important for SAPT in psi4, default
symmetry c1  #important for SAPT in psi4, default
}

set PROPERTIES_ORIGIN ["COM"]
properties('MP2/aug-cc-pvtz', properties = ['dipole'])
--------------------------------------------------------------------------

    Molecular point group: c1
  Charge       = 0
  Multiplicity = 1
  Basis Set: AUG-CC-PVTZ
    Blend: AUG-CC-PVTZ
  Basis Set: (AUG-CC-PVTZ AUX)
    Blend: AUG-CC-PVTZ-JKFIT

    Orbital Energies [Eh]
    ---------------------

    Doubly Occupied:

       1A    -20.593573     2A    -20.555782     3A    -11.284984
       4A    -11.282199     5A     -1.370551     6A     -1.338824
       7A     -0.997127     8A     -0.842435     9A     -0.703108
      10A     -0.680093    11A     -0.632787    12A     -0.618432
      13A     -0.565441    14A     -0.523647    15A     -0.507485
      16A     -0.474699    17A     -0.438921

  @DF-RHF Final Energy:  -229.00073277799737

   => Energetics <=

    Nuclear Repulsion Energy =            132.8296905522385032
    One-Electron Energy =                -576.8406706341912695
    Two-Electron Energy =                 215.0102473039553956
    Total Energy =                       -229.0007327779973707
  Basis Set: (AUG-CC-PVTZ AUX)
    Blend: AUG-CC-PVTZ-RI
    Molecular point group: c1

    Geometry (in Angstrom), charge = 0, multiplicity = 1:

       Center              X                  Y                   Z               Mass
    ------------   -----------------  -----------------  -----------------  -----------------
         O            1.381199084605    -0.583622875629    -0.040971254805    15.994914619570
         O           -1.401440715395    -0.539498275629    -0.111043854805    15.994914619570
         C            0.684173284605     0.655989724371    -0.235603854805    12.000000000000
         C           -0.720931715395     0.623277724371     0.335605145195    12.000000000000
         H            1.238416284605     1.542464724371     0.100803145195     1.007825032230
         H            0.639006284605     0.663037724371    -1.326373854805     1.007825032230
         H           -1.300759715395     1.488870724371     0.001940145195     1.007825032230
         H           -0.670115715395     0.657315724371     1.437073145195     1.007825032230
         H            1.591503284605    -0.506356275629     1.053016145195     1.007825032230
         H           -0.739124715395    -1.252603275629    -0.044566854805     1.007825032230

  Basis Set: AUG-CC-PVTZ
    Blend: AUG-CC-PVTZ
  Basis Set: (AUG-CC-PVTZ AUX)
    Blend: AUG-CC-PVTZ-JKFIT
	 Reference Energy          =    -229.0007327779973707 [Eh]
	 Singles Energy            =      -0.0000000000000000 [Eh]
	 Same-Spin Energy          =      -0.2189464324756473 [Eh]
	 Opposite-Spin Energy      =      -0.7111040131154254 [Eh]
	 Correlation Energy        =      -0.9300504455910727 [Eh]
	 Total Energy              =    -229.9307832235884348 [Eh]

	 ================> DF-SCS-MP2 Energies <==================
	-----------------------------------------------------------
	 SCS Same-Spin Scale       =       0.3333333333333333 [-]
	 SCS Opposite-Spin Scale   =       1.2000000000000000 [-]
	 SCS Same-Spin Energy      =      -0.0729821441585491 [Eh]
	 SCS Opposite-Spin Energy  =      -0.8533248157385104 [Eh]
	 SCS Correlation Energy    =      -0.9263069598970595 [Eh]
	 SCS Total Energy          =    -229.9270397378944324 [Eh]
	-----------------------------------------------------------

  Dipole Moment: [D]
     X:     1.3808      Y:     1.4820      Z:     1.6527     Total:     2.6143

*** Psi4 exiting successfully. Buy a developer a beer!
