                               Psi4 1.4a3.dev225

  ==> Input File <==

--------------------------------------------------------------------------
#psi4
#
memory 32 gb

molecule  {
0 1
  O        1.3629200    -0.6007480     0.0540100
  O       -1.4102950    -0.5835890    -0.1635680
  C        0.6753190     0.6118990    -0.2881280
  C       -0.8132630     0.6300322     0.2669111
  H        1.2295620     1.4983740     0.0482790
  H        0.6301520     0.6189470    -1.3788980
  H       -1.3096140     1.4447800    -0.0505840
  H       -0.6789700     0.6132250     1.3845490
  H        1.5826490    -0.5504470     1.0004920
  H       -0.7479790    -1.2966940    -0.0970910
units angstrom
no_reorient  #important for SAPT in psi4, default
symmetry c1  #important for SAPT in psi4, default
}

set PROPERTIES_ORIGIN ["COM"]
properties('MP2/aug-cc-pvtz', properties = ['dipole'])
--------------------------------------------------------------------------

    Molecular point group: c1
  Charge       = 0
  Multiplicity = 1
  Basis Set: AUG-CC-PVTZ
    Blend: AUG-CC-PVTZ
  Basis Set: (AUG-CC-PVTZ AUX)
    Blend: AUG-CC-PVTZ-JKFIT

    Orbital Energies [Eh]
    ---------------------

    Doubly Occupied:

       1A    -20.578525     2A    -20.552692     3A    -11.287915
       4A    -11.280427     5A     -1.377825     6A     -1.345552
       7A     -0.991634     8A     -0.859199     9A     -0.703812
      10A     -0.685577    11A     -0.643638    12A     -0.624802
      13A     -0.578817    14A     -0.524204    15A     -0.510611
      16A     -0.475865    17A     -0.423031

  @DF-RHF Final Energy:  -229.01714387635107

   => Energetics <=

    Nuclear Repulsion Energy =            132.6520491867455576
    One-Electron Energy =                -576.4501361376356954
    Two-Electron Energy =                 214.7809430745390671
    Total Energy =                       -229.0171438763510707
  Basis Set: (AUG-CC-PVTZ AUX)
    Blend: AUG-CC-PVTZ-RI
    Molecular point group: c1

    Geometry (in Angstrom), charge = 0, multiplicity = 1:

       Center              X                  Y                   Z               Mass
    ------------   -----------------  -----------------  -----------------  -----------------
         O            1.390351536387    -0.573444976074     0.071630697615    15.994914619570
         O           -1.382863463613    -0.556285976074    -0.145947302385    15.994914619570
         C            0.702750536387     0.639202023926    -0.270507302385    12.000000000000
         C           -0.785831463613     0.657335223926     0.284531797615    12.000000000000
         H            1.256993536387     1.525677023926     0.065899697615     1.007825032230
         H            0.657583536387     0.646250023926    -1.361277302385     1.007825032230
         H           -1.282182463613     1.472083023926    -0.032963302385     1.007825032230
         H           -0.651538463613     0.640528023926     1.402169697615     1.007825032230
         H            1.610080536387    -0.523143976074     1.018112697615     1.007825032230
         H           -0.720547463613    -1.269390976074    -0.079470302385     1.007825032230

  Basis Set: AUG-CC-PVTZ
    Blend: AUG-CC-PVTZ
  Basis Set: (AUG-CC-PVTZ AUX)
    Blend: AUG-CC-PVTZ-JKFIT
	 Reference Energy          =    -229.0171438763510707 [Eh]
	 Singles Energy            =      -0.0000000000000000 [Eh]
	 Same-Spin Energy          =      -0.2165541640492916 [Eh]
	 Opposite-Spin Energy      =      -0.7051811250630771 [Eh]
	 Correlation Energy        =      -0.9217352891123687 [Eh]
	 Total Energy              =    -229.9388791654634474 [Eh]

	 ================> DF-SCS-MP2 Energies <==================
	-----------------------------------------------------------
	 SCS Same-Spin Scale       =       0.3333333333333333 [-]
	 SCS Opposite-Spin Scale   =       1.2000000000000000 [-]
	 SCS Same-Spin Energy      =      -0.0721847213497639 [Eh]
	 SCS Opposite-Spin Energy  =      -0.8462173500756924 [Eh]
	 SCS Correlation Energy    =      -0.9184020714254563 [Eh]
	 SCS Total Energy          =    -229.9355459477765180 [Eh]
	-----------------------------------------------------------

  Dipole Moment: [D]
     X:     1.3546      Y:     1.5236      Z:     1.4516     Total:     2.5026

*** Psi4 exiting successfully. Buy a developer a beer!
