                               Psi4 1.4a3.dev225

  ==> Input File <==

--------------------------------------------------------------------------
#psi4
#
memory 32 gb

molecule  {
0 1
  O        1.3629200    -0.6007480     0.0540100
  O       -1.4102950    -0.5835890    -0.1635680
  C        0.6753190     0.6118990    -0.2881280
  C       -0.7297860     0.5791870     0.2830810
  H        1.2295620     1.4983740     0.0482790
  H        0.6301520     0.6189470    -1.3788980
  H       -1.3096140     1.4447800    -0.0505840
  H       -0.6835764     0.6101395     1.2847028
  H        1.5826490    -0.5504470     1.0004920
  H       -0.7479790    -1.2966940    -0.0970910
units angstrom
no_reorient  #important for SAPT in psi4, default
symmetry c1  #important for SAPT in psi4, default
}

set PROPERTIES_ORIGIN ["COM"]
properties('MP2/aug-cc-pvtz', properties = ['dipole'])
--------------------------------------------------------------------------

    Molecular point group: c1
  Charge       = 0
  Multiplicity = 1
  Basis Set: AUG-CC-PVTZ
    Blend: AUG-CC-PVTZ
  Basis Set: (AUG-CC-PVTZ AUX)
    Blend: AUG-CC-PVTZ-JKFIT

    Orbital Energies [Eh]
    ---------------------

    Doubly Occupied:

       1A    -20.576672     2A    -20.552723     3A    -11.285339
       4A    -11.267196     5A     -1.380378     6A     -1.346205
       7A     -1.006193     8A     -0.859524     9A     -0.706621
      10A     -0.692819    11A     -0.651918    12A     -0.617451
      13A     -0.571839    14A     -0.526044    15A     -0.510396
      16A     -0.476598    17A     -0.440353

  @DF-RHF Final Energy:  -229.02285060613988

   => Energetics <=

    Nuclear Repulsion Energy =            134.0406071104561647
    One-Electron Energy =                -579.1903798873549931
    Two-Electron Energy =                 216.1269221707589452
    Total Energy =                       -229.0228506061398832
  Basis Set: (AUG-CC-PVTZ AUX)
    Blend: AUG-CC-PVTZ-RI
    Molecular point group: c1

    Geometry (in Angstrom), charge = 0, multiplicity = 1:

       Center              X                  Y                   Z               Mass
    ------------   -----------------  -----------------  -----------------  -----------------
         O            1.374279110257    -0.563559678195     0.070124956970    15.994914619570
         O           -1.398935889743    -0.546400678195    -0.147453043030    15.994914619570
         C            0.686678110257     0.649087321805    -0.272013043030    12.000000000000
         C           -0.718426889743     0.616375321805     0.299195956970    12.000000000000
         H            1.240921110257     1.535562321805     0.064393956970     1.007825032230
         H            0.641511110257     0.656135321805    -1.362783043030     1.007825032230
         H           -1.298254889743     1.481968321805    -0.034469043030     1.007825032230
         H           -0.672217289743     0.647327821805     1.300817756970     1.007825032230
         H            1.594008110257    -0.513258678195     1.016606956970     1.007825032230
         H           -0.736619889743    -1.259505678195    -0.080976043030     1.007825032230

  Basis Set: AUG-CC-PVTZ
    Blend: AUG-CC-PVTZ
  Basis Set: (AUG-CC-PVTZ AUX)
    Blend: AUG-CC-PVTZ-JKFIT
	 Reference Energy          =    -229.0228506061398832 [Eh]
	 Singles Energy            =      -0.0000000000000000 [Eh]
	 Same-Spin Energy          =      -0.2167933425676166 [Eh]
	 Opposite-Spin Energy      =      -0.7046532434377694 [Eh]
	 Correlation Energy        =      -0.9214465860053860 [Eh]
	 Total Energy              =    -229.9442971921452568 [Eh]

	 ================> DF-SCS-MP2 Energies <==================
	-----------------------------------------------------------
	 SCS Same-Spin Scale       =       0.3333333333333333 [-]
	 SCS Opposite-Spin Scale   =       1.2000000000000000 [-]
	 SCS Same-Spin Energy      =      -0.0722644475225389 [Eh]
	 SCS Opposite-Spin Energy  =      -0.8455838921253233 [Eh]
	 SCS Correlation Energy    =      -0.9178483396478622 [Eh]
	 SCS Total Energy          =    -229.9406989457877444 [Eh]
	-----------------------------------------------------------

  Dipole Moment: [D]
     X:     1.4315      Y:     1.5196      Z:     1.5599     Total:     2.6061

*** Psi4 exiting successfully. Buy a developer a beer!
