                               Psi4 1.4a3.dev225

  ==> Input File <==

--------------------------------------------------------------------------
#psi4
#
memory 32 gb

molecule  {
0 1
  O        1.3629200    -0.6007480     0.0540100
  O       -1.4102950    -0.5835890    -0.1635680
  C        0.6753190     0.6118990    -0.2881280
  C       -0.7297860     0.5791870     0.2830810
  H        1.2295620     1.4983740     0.0482790
  H        0.6301520     0.6189470    -1.3788980
  H       -1.3096140     1.4447800    -0.0505840
  H       -0.6881828     0.6070540     1.1848566
  H        1.5826490    -0.5504470     1.0004920
  H       -0.7479790    -1.2966940    -0.0970910
units angstrom
no_reorient  #important for SAPT in psi4, default
symmetry c1  #important for SAPT in psi4, default
}

set PROPERTIES_ORIGIN ["COM"]
properties('MP2/aug-cc-pvtz', properties = ['dipole'])
--------------------------------------------------------------------------

    Molecular point group: c1
  Charge       = 0
  Multiplicity = 1
  Basis Set: AUG-CC-PVTZ
    Blend: AUG-CC-PVTZ
  Basis Set: (AUG-CC-PVTZ AUX)
    Blend: AUG-CC-PVTZ-JKFIT

    Orbital Energies [Eh]
    ---------------------

    Doubly Occupied:

       1A    -20.576730     2A    -20.550994     3A    -11.284490
       4A    -11.254125     5A     -1.380369     6A     -1.345543
       7A     -1.013807     8A     -0.870742     9A     -0.708911
      10A     -0.695940    11A     -0.658089    12A     -0.618178
      13A     -0.571934    14A     -0.525735    15A     -0.510297
      16A     -0.479487    17A     -0.441486

  @DF-RHF Final Energy:  -228.99698224863789

   => Energetics <=

    Nuclear Repulsion Energy =            134.5819800586577060
    One-Electron Energy =                -580.1842073892669305
    Two-Electron Energy =                 216.6052450819713613
    Total Energy =                       -228.9969822486378916
  Basis Set: (AUG-CC-PVTZ AUX)
    Blend: AUG-CC-PVTZ-RI
    Molecular point group: c1

    Geometry (in Angstrom), charge = 0, multiplicity = 1:

       Center              X                  Y                   Z               Mass
    ------------   -----------------  -----------------  -----------------  -----------------
         O            1.374353944014    -0.563509552380     0.071747018925    15.994914619570
         O           -1.398861055986    -0.546350552380    -0.145830981075    15.994914619570
         C            0.686752944014     0.649137447620    -0.270390981075    12.000000000000
         C           -0.718352055986     0.616425447620     0.300818018925    12.000000000000
         H            1.240995944014     1.535612447620     0.066016018925     1.007825032230
         H            0.641585944014     0.656185447620    -1.361160981075     1.007825032230
         H           -1.298180055986     1.482018447620    -0.032846981075     1.007825032230
         H           -0.676748855986     0.644292447620     1.202593618925     1.007825032230
         H            1.594082944014    -0.513208552380     1.018229018925     1.007825032230
         H           -0.736545055986    -1.259455552380    -0.079353981075     1.007825032230

  Basis Set: AUG-CC-PVTZ
    Blend: AUG-CC-PVTZ
  Basis Set: (AUG-CC-PVTZ AUX)
    Blend: AUG-CC-PVTZ-JKFIT
	 Reference Energy          =    -228.9969822486378916 [Eh]
	 Singles Energy            =      -0.0000000000000000 [Eh]
	 Same-Spin Energy          =      -0.2168278119501537 [Eh]
	 Opposite-Spin Energy      =      -0.7045066804314997 [Eh]
	 Correlation Energy        =      -0.9213344923816534 [Eh]
	 Total Energy              =    -229.9183167410195381 [Eh]

	 ================> DF-SCS-MP2 Energies <==================
	-----------------------------------------------------------
	 SCS Same-Spin Scale       =       0.3333333333333333 [-]
	 SCS Opposite-Spin Scale   =       1.2000000000000000 [-]
	 SCS Same-Spin Energy      =      -0.0722759373167179 [Eh]
	 SCS Opposite-Spin Energy  =      -0.8454080165177996 [Eh]
	 SCS Correlation Energy    =      -0.9176839538345175 [Eh]
	 SCS Total Energy          =    -229.9146662024724037 [Eh]
	-----------------------------------------------------------

  Dipole Moment: [D]
     X:     1.4475      Y:     1.5451      Z:     1.6182     Total:     2.6648

*** Psi4 exiting successfully. Buy a developer a beer!
