                               Psi4 1.4a3.dev225

  ==> Input File <==

--------------------------------------------------------------------------
#psi4
#
memory 32 gb

molecule  {
0 1
  O        1.3629200    -0.6007480     0.0540100
  O       -1.4102950    -0.5835890    -0.1635680
  C        0.6807088     0.5892283    -0.2755542
  C       -0.7297860     0.5791870     0.2830810
  H        1.2295620     1.4983740     0.0482790
  H        0.6301520     0.6189470    -1.3788980
  H       -1.3096140     1.4447800    -0.0505840
  H       -0.6789700     0.6132250     1.3845490
  H        1.5826490    -0.5504470     1.0004920
  H       -0.7479790    -1.2966940    -0.0970910
units angstrom
no_reorient  #important for SAPT in psi4, default
symmetry c1  #important for SAPT in psi4, default
}

set PROPERTIES_ORIGIN ["COM"]
properties('MP2/aug-cc-pvtz', properties = ['dipole'])
--------------------------------------------------------------------------

    Molecular point group: c1
  Charge       = 0
  Multiplicity = 1
  Basis Set: AUG-CC-PVTZ
    Blend: AUG-CC-PVTZ
  Basis Set: (AUG-CC-PVTZ AUX)
    Blend: AUG-CC-PVTZ-JKFIT

    Orbital Energies [Eh]
    ---------------------

    Doubly Occupied:

       1A    -20.579665     2A    -20.554682     3A    -11.286988
       4A    -11.279557     5A     -1.388739     6A     -1.349561
       7A     -0.999687     8A     -0.850599     9A     -0.708753
      10A     -0.692062    11A     -0.647210    12A     -0.619071
      13A     -0.573212    14A     -0.528263    15A     -0.506960
      16A     -0.473180    17A     -0.436249

  @DF-RHF Final Energy:  -229.02770839161929

   => Energetics <=

    Nuclear Repulsion Energy =            133.8685815138237842
    One-Electron Energy =                -578.8437025286312974
    Two-Electron Energy =                 215.9474126231882565
    Total Energy =                       -229.0277083916192851
  Basis Set: (AUG-CC-PVTZ AUX)
    Blend: AUG-CC-PVTZ-RI
    Molecular point group: c1

    Geometry (in Angstrom), charge = 0, multiplicity = 1:

       Center              X                  Y                   Z               Mass
    ------------   -----------------  -----------------  -----------------  -----------------
         O            1.373161707873    -0.559224528010     0.066070699125    15.994914619570
         O           -1.400053292127    -0.542065528010    -0.151507300875    15.994914619570
         C            0.690950507873     0.630751771990    -0.263493500875    12.000000000000
         C           -0.719544292127     0.620710471990     0.295141699125    12.000000000000
         H            1.239803707873     1.539897471990     0.060339699125     1.007825032230
         H            0.640393707873     0.660470471990    -1.366837300875     1.007825032230
         H           -1.299372292127     1.486303471990    -0.038523300875     1.007825032230
         H           -0.668728292127     0.654748471990     1.396609699125     1.007825032230
         H            1.592890707873    -0.508923528010     1.012552699125     1.007825032230
         H           -0.737737292127    -1.255170528010    -0.085030300875     1.007825032230

  Basis Set: AUG-CC-PVTZ
    Blend: AUG-CC-PVTZ
  Basis Set: (AUG-CC-PVTZ AUX)
    Blend: AUG-CC-PVTZ-JKFIT
	 Reference Energy          =    -229.0277083916192851 [Eh]
	 Singles Energy            =      -0.0000000000000000 [Eh]
	 Same-Spin Energy          =      -0.2168501485703575 [Eh]
	 Opposite-Spin Energy      =      -0.7048731976493363 [Eh]
	 Correlation Energy        =      -0.9217233462196938 [Eh]
	 Total Energy              =    -229.9494317378389781 [Eh]

	 ================> DF-SCS-MP2 Energies <==================
	-----------------------------------------------------------
	 SCS Same-Spin Scale       =       0.3333333333333333 [-]
	 SCS Opposite-Spin Scale   =       1.2000000000000000 [-]
	 SCS Same-Spin Energy      =      -0.0722833828567858 [Eh]
	 SCS Opposite-Spin Energy  =      -0.8458478371792035 [Eh]
	 SCS Correlation Energy    =      -0.9181312200359893 [Eh]
	 SCS Total Energy          =    -229.9458396116552876 [Eh]
	-----------------------------------------------------------

  Dipole Moment: [D]
     X:     1.4536      Y:     1.4141      Z:     1.5030     Total:     2.5242

*** Psi4 exiting successfully. Buy a developer a beer!
