                               Psi4 1.4a3.dev225

  ==> Input File <==

--------------------------------------------------------------------------
#psi4
#
memory 32 gb

molecule  {
0 1
  O        1.3629200    -0.6007480     0.0540100
  O       -1.4102950    -0.5835890    -0.1635680
  C        0.5795127     0.7808622    -0.3357995
  C       -0.7297860     0.5791870     0.2830810
  H        1.2295620     1.4983740     0.0482790
  H        0.6301520     0.6189470    -1.3788980
  H       -1.3096140     1.4447800    -0.0505840
  H       -0.6789700     0.6132250     1.3845490
  H        1.5826490    -0.5504470     1.0004920
  H       -0.7479790    -1.2966940    -0.0970910
units angstrom
no_reorient  #important for SAPT in psi4, default
symmetry c1  #important for SAPT in psi4, default
}

set PROPERTIES_ORIGIN ["COM"]
properties('MP2/aug-cc-pvtz', properties = ['dipole'])
--------------------------------------------------------------------------

    Molecular point group: c1
  Charge       = 0
  Multiplicity = 1
  Basis Set: AUG-CC-PVTZ
    Blend: AUG-CC-PVTZ
  Basis Set: (AUG-CC-PVTZ AUX)
    Blend: AUG-CC-PVTZ-JKFIT

    Orbital Energies [Eh]
    ---------------------

    Doubly Occupied:

       1A    -20.560303     2A    -20.552373     3A    -11.294781
       4A    -11.287419     5A     -1.364786     6A     -1.303424
       7A     -1.030031     8A     -0.855933     9A     -0.702363
      10A     -0.685845    11A     -0.638754    12A     -0.605780
      13A     -0.565867    14A     -0.529876    15A     -0.486052
      16A     -0.465912    17A     -0.457657

  @DF-RHF Final Energy:  -228.99752933727854

   => Energetics <=

    Nuclear Repulsion Energy =            132.0094755658877546
    One-Electron Energy =                -575.2396950636867814
    Two-Electron Energy =                 214.2326901605204625
    Total Energy =                       -228.9975293372785359
  Basis Set: (AUG-CC-PVTZ AUX)
    Blend: AUG-CC-PVTZ-RI
    Molecular point group: c1

    Geometry (in Angstrom), charge = 0, multiplicity = 1:

       Center              X                  Y                   Z               Mass
    ------------   -----------------  -----------------  -----------------  -----------------
         O            1.392736437753    -0.596292970650     0.077724166739    15.994914619570
         O           -1.380478562247    -0.579133970650    -0.139853833261    15.994914619570
         C            0.609329137753     0.785317229350    -0.312085333261    12.000000000000
         C           -0.699969562247     0.583642029350     0.306795166739    12.000000000000
         H            1.259378437753     1.502829029350     0.071993166739     1.007825032230
         H            0.659968437753     0.623402029350    -1.355183833261     1.007825032230
         H           -1.279797562247     1.449235029350    -0.026869833261     1.007825032230
         H           -0.649153562247     0.617680029350     1.408263166739     1.007825032230
         H            1.612465437753    -0.545991970650     1.024206166739     1.007825032230
         H           -0.718162562247    -1.292238970650    -0.073376833261     1.007825032230

  Basis Set: AUG-CC-PVTZ
    Blend: AUG-CC-PVTZ
  Basis Set: (AUG-CC-PVTZ AUX)
    Blend: AUG-CC-PVTZ-JKFIT
	 Reference Energy          =    -228.9975293372785359 [Eh]
	 Singles Energy            =      -0.0000000000000000 [Eh]
	 Same-Spin Energy          =      -0.2183140073784874 [Eh]
	 Opposite-Spin Energy      =      -0.7099439824287532 [Eh]
	 Correlation Energy        =      -0.9282579898072406 [Eh]
	 Total Energy              =    -229.9257873270857715 [Eh]

	 ================> DF-SCS-MP2 Energies <==================
	-----------------------------------------------------------
	 SCS Same-Spin Scale       =       0.3333333333333333 [-]
	 SCS Opposite-Spin Scale   =       1.2000000000000000 [-]
	 SCS Same-Spin Energy      =      -0.0727713357928291 [Eh]
	 SCS Opposite-Spin Energy  =      -0.8519327789145038 [Eh]
	 SCS Correlation Energy    =      -0.9247041147073329 [Eh]
	 SCS Total Energy          =    -229.9222334519858748 [Eh]
	-----------------------------------------------------------

  Dipole Moment: [D]
     X:     1.0446      Y:     1.9816      Z:     1.3170     Total:     2.5986

*** Psi4 exiting successfully. Buy a developer a beer!
