                               Psi4 1.4a3.dev225

  ==> Input File <==

--------------------------------------------------------------------------
#psi4
#
memory 32 gb

molecule  {
0 1
  O        1.3629200    -0.6007480     0.0540100
  O       -1.4102950    -0.5835890    -0.1635680
  C        0.6753190     0.6118990    -0.2881280
  C       -0.7297860     0.5791870     0.2830810
  H        1.2295620     1.4983740     0.0482790
  H        0.6301520     0.6189470    -1.3788980
  H       -1.3096140     1.4447800    -0.0505840
  H       -0.6780487     0.6138421     1.4045182
  H        1.5826490    -0.5504470     1.0004920
  H       -0.7479790    -1.2966940    -0.0970910
units angstrom
no_reorient  #important for SAPT in psi4, default
symmetry c1  #important for SAPT in psi4, default
}

set PROPERTIES_ORIGIN ["COM"]
properties('MP2/aug-cc-pvtz', properties = ['dipole'])
--------------------------------------------------------------------------

    Molecular point group: c1
  Charge       = 0
  Multiplicity = 1
  Basis Set: AUG-CC-PVTZ
    Blend: AUG-CC-PVTZ
  Basis Set: (AUG-CC-PVTZ AUX)
    Blend: AUG-CC-PVTZ-JKFIT

    Orbital Energies [Eh]
    ---------------------

    Doubly Occupied:

       1A    -20.576762     2A    -20.555638     3A    -11.286889
       4A    -11.282894     5A     -1.380825     6A     -1.347657
       7A     -1.001111     8A     -0.849725     9A     -0.705834
      10A     -0.690313    11A     -0.643651    12A     -0.615984
      13A     -0.571909    14A     -0.526726    15A     -0.510859
      16A     -0.473093    17A     -0.438046

  @DF-RHF Final Energy:  -229.02751057880567

   => Energetics <=

    Nuclear Repulsion Energy =            133.4806954332746329
    One-Electron Energy =                -578.1005798417381811
    Two-Electron Energy =                 215.5923738296579018
    Total Energy =                       -229.0275105788056749
  Basis Set: (AUG-CC-PVTZ AUX)
    Blend: AUG-CC-PVTZ-RI
    Molecular point group: c1

    Geometry (in Angstrom), charge = 0, multiplicity = 1:

       Center              X                  Y                   Z               Mass
    ------------   -----------------  -----------------  -----------------  -----------------
         O            1.374189309425    -0.563619829173     0.068178483274    15.994914619570
         O           -1.399025690575    -0.546460829173    -0.149399516726    15.994914619570
         C            0.686588309425     0.649027170827    -0.273959516726    12.000000000000
         C           -0.718516690575     0.616315170827     0.297249483274    12.000000000000
         H            1.240831309425     1.535502170827     0.062447483274     1.007825032230
         H            0.641421309425     0.656075170827    -1.364729516726     1.007825032230
         H           -1.298344690575     1.481908170827    -0.036415516726     1.007825032230
         H           -0.666779390575     0.650970270827     1.418686683274     1.007825032230
         H            1.593918309425    -0.513318829173     1.014660483274     1.007825032230
         H           -0.736709690575    -1.259565829173    -0.082922516726     1.007825032230

  Basis Set: AUG-CC-PVTZ
    Blend: AUG-CC-PVTZ
  Basis Set: (AUG-CC-PVTZ AUX)
    Blend: AUG-CC-PVTZ-JKFIT
	 Reference Energy          =    -229.0275105788056749 [Eh]
	 Singles Energy            =      -0.0000000000000000 [Eh]
	 Same-Spin Energy          =      -0.2168493476107856 [Eh]
	 Opposite-Spin Energy      =      -0.7053004496246537 [Eh]
	 Correlation Energy        =      -0.9221497972354393 [Eh]
	 Total Energy              =    -229.9496603760411233 [Eh]

	 ================> DF-SCS-MP2 Energies <==================
	-----------------------------------------------------------
	 SCS Same-Spin Scale       =       0.3333333333333333 [-]
	 SCS Opposite-Spin Scale   =       1.2000000000000000 [-]
	 SCS Same-Spin Energy      =      -0.0722831158702619 [Eh]
	 SCS Opposite-Spin Energy  =      -0.8463605395495843 [Eh]
	 SCS Correlation Energy    =      -0.9186436554198463 [Eh]
	 SCS Total Energy          =    -229.9461542342255314 [Eh]
	-----------------------------------------------------------

  Dipole Moment: [D]
     X:     1.4118      Y:     1.4813      Z:     1.4536     Total:     2.5100

*** Psi4 exiting successfully. Buy a developer a beer!
