                               Psi4 1.4a3.dev225

  ==> Input File <==

--------------------------------------------------------------------------
#psi4
#
memory 32 gb

molecule  {
0 1
  O        1.3629200    -0.6007480     0.0540100
  O       -1.3749582    -0.6112686    -0.1425997
  C        0.6753190     0.6118990    -0.2881280
  C       -0.7297860     0.5791870     0.2830810
  H        1.2295620     1.4983740     0.0482790
  H        0.6301520     0.6189470    -1.3788980
  H       -1.3096140     1.4447800    -0.0505840
  H       -0.6789700     0.6132250     1.3845490
  H        1.5826490    -0.5504470     1.0004920
  H       -0.7479790    -1.2966940    -0.0970910
units angstrom
no_reorient  #important for SAPT in psi4, default
symmetry c1  #important for SAPT in psi4, default
}

set PROPERTIES_ORIGIN ["COM"]
properties('MP2/aug-cc-pvtz', properties = ['dipole'])
--------------------------------------------------------------------------

    Molecular point group: c1
  Charge       = 0
  Multiplicity = 1
  Basis Set: AUG-CC-PVTZ
    Blend: AUG-CC-PVTZ
  Basis Set: (AUG-CC-PVTZ AUX)
    Blend: AUG-CC-PVTZ-JKFIT

    Orbital Energies [Eh]
    ---------------------

    Doubly Occupied:

       1A    -20.575805     2A    -20.549462     3A    -11.286211
       4A    -11.281372     5A     -1.383480     6A     -1.352361
       7A     -1.003933     8A     -0.854537     9A     -0.709747
      10A     -0.690479    11A     -0.645652    12A     -0.623041
      13A     -0.572300    14A     -0.525903    15A     -0.511423
      16A     -0.472412    17A     -0.438835

  @DF-RHF Final Energy:  -229.02893417530288

   => Energetics <=

    Nuclear Repulsion Energy =            134.0209591171809507
    One-Electron Energy =                -579.1458828782208457
    Two-Electron Energy =                 216.0959895857370157
    Total Energy =                       -229.0289341753028793
  Basis Set: (AUG-CC-PVTZ AUX)
    Blend: AUG-CC-PVTZ-RI
    Molecular point group: c1

    Geometry (in Angstrom), charge = 0, multiplicity = 1:

       Center              X                  Y                   Z               Mass
    ------------   -----------------  -----------------  -----------------  -----------------
         O            1.365093405432    -0.556473185334     0.063096647765    15.994914619570
         O           -1.372784794568    -0.566993785334    -0.133513052235    15.994914619570
         C            0.677492405432     0.656173814666    -0.279041352235    12.000000000000
         C           -0.727612594568     0.623461814666     0.292167647765    12.000000000000
         H            1.231735405432     1.542648814666     0.057365647765     1.007825032230
         H            0.632325405432     0.663221814666    -1.369811352235     1.007825032230
         H           -1.307440594568     1.489054814666    -0.041497352235     1.007825032230
         H           -0.676796594568     0.657499814666     1.393635647765     1.007825032230
         H            1.584822405432    -0.506172185334     1.009578647765     1.007825032230
         H           -0.745805594568    -1.252419185334    -0.088004352235     1.007825032230

  Basis Set: AUG-CC-PVTZ
    Blend: AUG-CC-PVTZ
  Basis Set: (AUG-CC-PVTZ AUX)
    Blend: AUG-CC-PVTZ-JKFIT
	 Reference Energy          =    -229.0289341753028793 [Eh]
	 Singles Energy            =      -0.0000000000000000 [Eh]
	 Same-Spin Energy          =      -0.2161943092077239 [Eh]
	 Opposite-Spin Energy      =      -0.7035921524889595 [Eh]
	 Correlation Energy        =      -0.9197864616966833 [Eh]
	 Total Energy              =    -229.9487206369995533 [Eh]

	 ================> DF-SCS-MP2 Energies <==================
	-----------------------------------------------------------
	 SCS Same-Spin Scale       =       0.3333333333333333 [-]
	 SCS Opposite-Spin Scale   =       1.2000000000000000 [-]
	 SCS Same-Spin Energy      =      -0.0720647697359080 [Eh]
	 SCS Opposite-Spin Energy  =      -0.8443105829867513 [Eh]
	 SCS Correlation Energy    =      -0.9163753527226592 [Eh]
	 SCS Total Energy          =    -229.9453095280255468 [Eh]
	-----------------------------------------------------------

  Dipole Moment: [D]
     X:     1.3579      Y:     1.5468      Z:     1.4393     Total:     2.5116

*** Psi4 exiting successfully. Buy a developer a beer!
