                               Psi4 1.4a3.dev225

  ==> Input File <==

--------------------------------------------------------------------------
#psi4
#
memory 32 gb

molecule  {
0 1
  O        1.3629200    -0.6007480     0.0540100
  O       -1.4102950    -0.5835890    -0.1635680
  C        0.6753190     0.6118990    -0.2881280
  C       -0.7297860     0.5791870     0.2830810
  H        1.2295620     1.4983740     0.0482790
  H        0.6260148     0.6195926    -1.4788103
  H       -1.3096140     1.4447800    -0.0505840
  H       -0.6789700     0.6132250     1.3845490
  H        1.5826490    -0.5504470     1.0004920
  H       -0.7479790    -1.2966940    -0.0970910
units angstrom
no_reorient  #important for SAPT in psi4, default
symmetry c1  #important for SAPT in psi4, default
}

set PROPERTIES_ORIGIN ["COM"]
properties('MP2/aug-cc-pvtz', properties = ['dipole'])
--------------------------------------------------------------------------

    Molecular point group: c1
  Charge       = 0
  Multiplicity = 1
  Basis Set: AUG-CC-PVTZ
    Blend: AUG-CC-PVTZ
  Basis Set: (AUG-CC-PVTZ AUX)
    Blend: AUG-CC-PVTZ-JKFIT

    Orbital Energies [Eh]
    ---------------------

    Doubly Occupied:

       1A    -20.578328     2A    -20.555253     3A    -11.298270
       4A    -11.281504     5A     -1.381456     6A     -1.347872
       7A     -0.998187     8A     -0.844523     9A     -0.705112
      10A     -0.690496    11A     -0.643449    12A     -0.616309
      13A     -0.566962    14A     -0.524605    15A     -0.502393
      16A     -0.474310    17A     -0.438624

  @DF-RHF Final Energy:  -229.02142702574901

   => Energetics <=

    Nuclear Repulsion Energy =            133.1426400191209893
    One-Electron Energy =                -577.4328295937675648
    Two-Electron Energy =                 215.2687625488975414
    Total Energy =                       -229.0214270257490057
  Basis Set: (AUG-CC-PVTZ AUX)
    Blend: AUG-CC-PVTZ-RI
    Molecular point group: c1

    Geometry (in Angstrom), charge = 0, multiplicity = 1:

       Center              X                  Y                   Z               Mass
    ------------   -----------------  -----------------  -----------------  -----------------
         O            1.374271487819    -0.563620292173     0.070126030805    15.994914619570
         O           -1.398943512181    -0.546461292173    -0.147451969195    15.994914619570
         C            0.686670487819     0.649026707827    -0.272011969195    12.000000000000
         C           -0.718434512181     0.616314707827     0.299197030805    12.000000000000
         H            1.240913487819     1.535501707827     0.064395030805     1.007825032230
         H            0.637366287819     0.656720307827    -1.462694269195     1.007825032230
         H           -1.298262512181     1.481907707827    -0.034467969195     1.007825032230
         H           -0.667618512181     0.650352707827     1.400665030805     1.007825032230
         H            1.594000487819    -0.513319292173     1.016608030805     1.007825032230
         H           -0.736627512181    -1.259566292173    -0.080974969195     1.007825032230

  Basis Set: AUG-CC-PVTZ
    Blend: AUG-CC-PVTZ
  Basis Set: (AUG-CC-PVTZ AUX)
    Blend: AUG-CC-PVTZ-JKFIT
	 Reference Energy          =    -229.0214270257490057 [Eh]
	 Singles Energy            =      -0.0000000000000000 [Eh]
	 Same-Spin Energy          =      -0.2169111553281106 [Eh]
	 Opposite-Spin Energy      =      -0.7059092250654717 [Eh]
	 Correlation Energy        =      -0.9228203803935823 [Eh]
	 Total Energy              =    -229.9442474061425798 [Eh]

	 ================> DF-SCS-MP2 Energies <==================
	-----------------------------------------------------------
	 SCS Same-Spin Scale       =       0.3333333333333333 [-]
	 SCS Opposite-Spin Scale   =       1.2000000000000000 [-]
	 SCS Same-Spin Energy      =      -0.0723037184427035 [Eh]
	 SCS Opposite-Spin Energy  =      -0.8470910700785660 [Eh]
	 SCS Correlation Energy    =      -0.9193947885212695 [Eh]
	 SCS Total Energy          =    -229.9408218142702651 [Eh]
	-----------------------------------------------------------

  Dipole Moment: [D]
     X:     1.4131      Y:     1.4700      Z:     1.5262     Total:     2.5470

*** Psi4 exiting successfully. Buy a developer a beer!
