                               Psi4 1.4a3.dev225

  ==> Input File <==

--------------------------------------------------------------------------
#psi4
#
memory 32 gb

molecule  {
0 1
  O        1.3629200    -0.6007480     0.0540100
  O       -1.4102950    -0.5835890    -0.1635680
  C        0.6942946     0.5212254    -0.2368275
  C       -0.7297860     0.5791870     0.2830810
  H        1.2295620     1.4983740     0.0482790
  H        0.6301520     0.6189470    -1.3788980
  H       -1.3096140     1.4447800    -0.0505840
  H       -0.6789700     0.6132250     1.3845490
  H        1.5826490    -0.5504470     1.0004920
  H       -0.7479790    -1.2966940    -0.0970910
units angstrom
no_reorient  #important for SAPT in psi4, default
symmetry c1  #important for SAPT in psi4, default
}

set PROPERTIES_ORIGIN ["COM"]
properties('MP2/aug-cc-pvtz', properties = ['dipole'])
--------------------------------------------------------------------------

    Molecular point group: c1
  Charge       = 0
  Multiplicity = 1
  Basis Set: AUG-CC-PVTZ
    Blend: AUG-CC-PVTZ
  Basis Set: (AUG-CC-PVTZ AUX)
    Blend: AUG-CC-PVTZ-JKFIT

    Orbital Energies [Eh]
    ---------------------

    Doubly Occupied:

       1A    -20.588521     2A    -20.553725     3A    -11.289964
       4A    -11.277868     5A     -1.419808     6A     -1.352983
       7A     -0.994175     8A     -0.851523     9A     -0.720181
      10A     -0.696789    11A     -0.656892    12A     -0.627856
      13A     -0.577785    14A     -0.535869    15A     -0.492616
      16A     -0.466092    17A     -0.428628

  @DF-RHF Final Energy:  -229.01751232180027

   => Energetics <=

    Nuclear Repulsion Energy =            134.8168262342205992
    One-Electron Energy =                -580.6061260216754363
    Two-Electron Energy =                 216.7717874656545973
    Total Energy =                       -229.0175123218002682
  Basis Set: (AUG-CC-PVTZ AUX)
    Blend: AUG-CC-PVTZ-RI
    Molecular point group: c1

    Geometry (in Angstrom), charge = 0, multiplicity = 1:

       Center              X                  Y                   Z               Mass
    ------------   -----------------  -----------------  -----------------  -----------------
         O            1.370533757140    -0.546070479597     0.058579652616    15.994914619570
         O           -1.402681242860    -0.528911479597    -0.158998347384    15.994914619570
         C            0.701908357140     0.575902920403    -0.232257847384    12.000000000000
         C           -0.722172242860     0.633864520403     0.287650652616    12.000000000000
         H            1.237175757140     1.553051520403     0.052848652616     1.007825032230
         H            0.637765757140     0.673624520403    -1.374328347384     1.007825032230
         H           -1.302000242860     1.499457520403    -0.046014347384     1.007825032230
         H           -0.671356242860     0.667902520403     1.389118652616     1.007825032230
         H            1.590262757140    -0.495769479597     1.005061652616     1.007825032230
         H           -0.740365242860    -1.242016479597    -0.092521347384     1.007825032230

  Basis Set: AUG-CC-PVTZ
    Blend: AUG-CC-PVTZ
  Basis Set: (AUG-CC-PVTZ AUX)
    Blend: AUG-CC-PVTZ-JKFIT
	 Reference Energy          =    -229.0175123218002682 [Eh]
	 Singles Energy            =      -0.0000000000000000 [Eh]
	 Same-Spin Energy          =      -0.2171082066295374 [Eh]
	 Opposite-Spin Energy      =      -0.7044485200001919 [Eh]
	 Correlation Energy        =      -0.9215567266297292 [Eh]
	 Total Energy              =    -229.9390690484299853 [Eh]

	 ================> DF-SCS-MP2 Energies <==================
	-----------------------------------------------------------
	 SCS Same-Spin Scale       =       0.3333333333333333 [-]
	 SCS Opposite-Spin Scale   =       1.2000000000000000 [-]
	 SCS Same-Spin Energy      =      -0.0723694022098458 [Eh]
	 SCS Opposite-Spin Energy  =      -0.8453382240002302 [Eh]
	 SCS Correlation Energy    =      -0.9177076262100760 [Eh]
	 SCS Total Energy          =    -229.9352199480103423 [Eh]
	-----------------------------------------------------------

  Dipole Moment: [D]
     X:     1.5615      Y:     1.1687      Z:     1.5979     Total:     2.5214

*** Psi4 exiting successfully. Buy a developer a beer!
