                               Psi4 1.4a3.dev225

  ==> Input File <==

--------------------------------------------------------------------------
#psi4
#
memory 32 gb

molecule  {
0 1
  O        1.3629200    -0.6007480     0.0540100
  O       -1.4102950    -0.5835890    -0.1635680
  C        0.6753190     0.6118990    -0.2881280
  C       -0.7297860     0.5791870     0.2830810
  H        1.2295620     1.4983740     0.0482790
  H        0.6301520     0.6189470    -1.3788980
  H       -1.3096140     1.4447800    -0.0505840
  H       -0.6743636     0.6163105     1.4843952
  H        1.5826490    -0.5504470     1.0004920
  H       -0.7479790    -1.2966940    -0.0970910
units angstrom
no_reorient  #important for SAPT in psi4, default
symmetry c1  #important for SAPT in psi4, default
}

set PROPERTIES_ORIGIN ["COM"]
properties('MP2/aug-cc-pvtz', properties = ['dipole'])
--------------------------------------------------------------------------

    Molecular point group: c1
  Charge       = 0
  Multiplicity = 1
  Basis Set: AUG-CC-PVTZ
    Blend: AUG-CC-PVTZ
  Basis Set: (AUG-CC-PVTZ AUX)
    Blend: AUG-CC-PVTZ-JKFIT

    Orbital Energies [Eh]
    ---------------------

    Doubly Occupied:

       1A    -20.576944     2A    -20.558094     3A    -11.292980
       4A    -11.288162     5A     -1.381416     6A     -1.348998
       7A     -0.999472     8A     -0.845411     9A     -0.705949
      10A     -0.689778    11A     -0.639148    12A     -0.614371
      13A     -0.572015    14A     -0.527384    15A     -0.511408
      16A     -0.471027    17A     -0.435426

  @DF-RHF Final Energy:  -229.02159362236532

   => Energetics <=

    Nuclear Repulsion Energy =            133.1496753850578330
    One-Electron Energy =                -577.4265724167732969
    Two-Electron Energy =                 215.2553034093501481
    Total Energy =                       -229.0215936223653159
  Basis Set: (AUG-CC-PVTZ AUX)
    Blend: AUG-CC-PVTZ-RI
    Molecular point group: c1

    Geometry (in Angstrom), charge = 0, multiplicity = 1:

       Center              X                  Y                   Z               Mass
    ------------   -----------------  -----------------  -----------------  -----------------
         O            1.374129442745    -0.563659929825     0.066880833060    15.994914619570
         O           -1.399085557255    -0.546500929825    -0.150697166940    15.994914619570
         C            0.686528442745     0.648987070175    -0.275257166940    12.000000000000
         C           -0.718576557255     0.616275070175     0.295951833060    12.000000000000
         H            1.240771442745     1.535462070175     0.061149833060     1.007825032230
         H            0.641361442745     0.656035070175    -1.366027166940     1.007825032230
         H           -1.298404557255     1.481868070175    -0.037713166940     1.007825032230
         H           -0.663154157255     0.653398570175     1.497266033060     1.007825032230
         H            1.593858442745    -0.513358929825     1.013362833060     1.007825032230
         H           -0.736769557255    -1.259605929825    -0.084220166940     1.007825032230

  Basis Set: AUG-CC-PVTZ
    Blend: AUG-CC-PVTZ
  Basis Set: (AUG-CC-PVTZ AUX)
    Blend: AUG-CC-PVTZ-JKFIT
	 Reference Energy          =    -229.0215936223653159 [Eh]
	 Singles Energy            =      -0.0000000000000000 [Eh]
	 Same-Spin Energy          =      -0.2169204493715321 [Eh]
	 Opposite-Spin Energy      =      -0.7059341375455284 [Eh]
	 Correlation Energy        =      -0.9228545869170605 [Eh]
	 Total Energy              =    -229.9444482092823705 [Eh]

	 ================> DF-SCS-MP2 Energies <==================
	-----------------------------------------------------------
	 SCS Same-Spin Scale       =       0.3333333333333333 [-]
	 SCS Opposite-Spin Scale   =       1.2000000000000000 [-]
	 SCS Same-Spin Energy      =      -0.0723068164571774 [Eh]
	 SCS Opposite-Spin Energy  =      -0.8471209650546340 [Eh]
	 SCS Correlation Energy    =      -0.9194277815118114 [Eh]
	 SCS Total Energy          =    -229.9410214038771301 [Eh]
	-----------------------------------------------------------

  Dipole Moment: [D]
     X:     1.3987      Y:     1.4510      Z:     1.3605     Total:     2.4316

*** Psi4 exiting successfully. Buy a developer a beer!
