                               Psi4 1.4a3.dev225

  ==> Input File <==

--------------------------------------------------------------------------
#psi4
#
memory 32 gb

molecule  {
0 1
  O        1.3629200    -0.6007480     0.0540100
  O       -1.4102950    -0.5835890    -0.1635680
  C        0.6753190     0.6118990    -0.2881280
  C       -0.7297860     0.5791870     0.2830810
  H        1.2295620     1.4983740     0.0482790
  H        0.6293246     0.6190761    -1.3988805
  H       -1.3096140     1.4447800    -0.0505840
  H       -0.6789700     0.6132250     1.3845490
  H        1.5826490    -0.5504470     1.0004920
  H       -0.7479790    -1.2966940    -0.0970910
units angstrom
no_reorient  #important for SAPT in psi4, default
symmetry c1  #important for SAPT in psi4, default
}

set PROPERTIES_ORIGIN ["COM"]
properties('MP2/aug-cc-pvtz', properties = ['dipole'])
--------------------------------------------------------------------------

    Molecular point group: c1
  Charge       = 0
  Multiplicity = 1
  Basis Set: AUG-CC-PVTZ
    Blend: AUG-CC-PVTZ
  Basis Set: (AUG-CC-PVTZ AUX)
    Blend: AUG-CC-PVTZ-JKFIT

    Orbital Energies [Eh]
    ---------------------

    Doubly Occupied:

       1A    -20.577023     2A    -20.555110     3A    -11.288977
       4A    -11.280543     5A     -1.380829     6A     -1.347453
       7A     -1.000835     8A     -0.849576     9A     -0.705645
      10A     -0.690542    11A     -0.644601    12A     -0.616273
      13A     -0.570738    14A     -0.525998    15A     -0.509479
      16A     -0.473781    17A     -0.438567

  @DF-RHF Final Energy:  -229.02754554272093

   => Energetics <=

    Nuclear Repulsion Energy =            133.4792201144042565
    One-Electron Energy =                -578.1015920913170021
    Two-Electron Energy =                 215.5948264341918161
    Total Energy =                       -229.0275455427209295
  Basis Set: (AUG-CC-PVTZ AUX)
    Blend: AUG-CC-PVTZ-RI
    Molecular point group: c1

    Geometry (in Angstrom), charge = 0, multiplicity = 1:

       Center              X                  Y                   Z               Mass
    ------------   -----------------  -----------------  -----------------  -----------------
         O            1.374217718115    -0.563611901318     0.068827522823    15.994914619570
         O           -1.398997281885    -0.546452901318    -0.148750477177    15.994914619570
         C            0.686616718115     0.649035098682    -0.273310477177    12.000000000000
         C           -0.718488281885     0.616323098682     0.297898522823    12.000000000000
         H            1.240859718115     1.535510098682     0.063096522823     1.007825032230
         H            0.640622318115     0.656212198682    -1.384062977177     1.007825032230
         H           -1.298316281885     1.481916098682    -0.035766477177     1.007825032230
         H           -0.667672281885     0.650361098682     1.399366522823     1.007825032230
         H            1.593946718115    -0.513310901318     1.015309522823     1.007825032230
         H           -0.736681281885    -1.259557901318    -0.082273477177     1.007825032230

  Basis Set: AUG-CC-PVTZ
    Blend: AUG-CC-PVTZ
  Basis Set: (AUG-CC-PVTZ AUX)
    Blend: AUG-CC-PVTZ-JKFIT
	 Reference Energy          =    -229.0275455427209295 [Eh]
	 Singles Energy            =      -0.0000000000000000 [Eh]
	 Same-Spin Energy          =      -0.2168477255786415 [Eh]
	 Opposite-Spin Energy      =      -0.7052945985477411 [Eh]
	 Correlation Energy        =      -0.9221423241263826 [Eh]
	 Total Energy              =    -229.9496878668473130 [Eh]

	 ================> DF-SCS-MP2 Energies <==================
	-----------------------------------------------------------
	 SCS Same-Spin Scale       =       0.3333333333333333 [-]
	 SCS Opposite-Spin Scale   =       1.2000000000000000 [-]
	 SCS Same-Spin Energy      =      -0.0722825751928805 [Eh]
	 SCS Opposite-Spin Energy  =      -0.8463535182572893 [Eh]
	 SCS Correlation Energy    =      -0.9186360934501698 [Eh]
	 SCS Total Energy          =    -229.9461816361711044 [Eh]
	-----------------------------------------------------------

  Dipole Moment: [D]
     X:     1.4148      Y:     1.4849      Z:     1.4831     Total:     2.5311

*** Psi4 exiting successfully. Buy a developer a beer!
