                               Psi4 1.4a3.dev225

  ==> Input File <==

--------------------------------------------------------------------------
#psi4
#
memory 32 gb

molecule  {
0 1
  O        1.3629200    -0.6007480     0.0540100
  O       -1.4102950    -0.5835890    -0.1635680
  C        0.6753190     0.6118990    -0.2881280
  C       -0.7503601     0.5924395     0.2792396
  H        1.2295620     1.4983740     0.0482790
  H        0.6301520     0.6189470    -1.3788980
  H       -1.3096140     1.4447800    -0.0505840
  H       -0.6789700     0.6132250     1.3845490
  H        1.5826490    -0.5504470     1.0004920
  H       -0.7479790    -1.2966940    -0.0970910
units angstrom
no_reorient  #important for SAPT in psi4, default
symmetry c1  #important for SAPT in psi4, default
}

set PROPERTIES_ORIGIN ["COM"]
properties('MP2/aug-cc-pvtz', properties = ['dipole'])
--------------------------------------------------------------------------

    Molecular point group: c1
  Charge       = 0
  Multiplicity = 1
  Basis Set: AUG-CC-PVTZ
    Blend: AUG-CC-PVTZ
  Basis Set: (AUG-CC-PVTZ AUX)
    Blend: AUG-CC-PVTZ-JKFIT

    Orbital Energies [Eh]
    ---------------------

    Doubly Occupied:

       1A    -20.577157     2A    -20.554361     3A    -11.286893
       4A    -11.280084     5A     -1.379863     6A     -1.346831
       7A     -0.998858     8A     -0.852904     9A     -0.705384
      10A     -0.689274    11A     -0.643238    12A     -0.618674
      13A     -0.573654    14A     -0.526174    15A     -0.511031
      16A     -0.474757    17A     -0.435012

  @DF-RHF Final Energy:  -229.02764606718125

   => Energetics <=

    Nuclear Repulsion Energy =            133.3347272436674871
    One-Electron Energy =                -577.8164482182415895
    Two-Electron Energy =                 215.4540749073928509
    Total Energy =                       -229.0276460671812515
  Basis Set: (AUG-CC-PVTZ AUX)
    Blend: AUG-CC-PVTZ-RI
    Molecular point group: c1

    Geometry (in Angstrom), charge = 0, multiplicity = 1:

       Center              X                  Y                   Z               Mass
    ------------   -----------------  -----------------  -----------------  -----------------
         O            1.378183999534    -0.566173283312     0.069245950996    15.994914619570
         O           -1.395031000466    -0.549014283312    -0.148332049004    15.994914619570
         C            0.690582999534     0.646473716688    -0.272892049004    12.000000000000
         C           -0.735096100466     0.627014216688     0.294475550996    12.000000000000
         H            1.244825999534     1.532948716688     0.063514950996     1.007825032230
         H            0.645415999534     0.653521716688    -1.363662049004     1.007825032230
         H           -1.294350000466     1.479354716688    -0.035348049004     1.007825032230
         H           -0.663706000466     0.647799716688     1.399784950996     1.007825032230
         H            1.597912999534    -0.515872283312     1.015727950996     1.007825032230
         H           -0.732715000466    -1.262119283312    -0.081855049004     1.007825032230

  Basis Set: AUG-CC-PVTZ
    Blend: AUG-CC-PVTZ
  Basis Set: (AUG-CC-PVTZ AUX)
    Blend: AUG-CC-PVTZ-JKFIT
	 Reference Energy          =    -229.0276460671812515 [Eh]
	 Singles Energy            =      -0.0000000000000000 [Eh]
	 Same-Spin Energy          =      -0.2167068070858517 [Eh]
	 Opposite-Spin Energy      =      -0.7050341611155944 [Eh]
	 Correlation Energy        =      -0.9217409682014460 [Eh]
	 Total Energy              =    -229.9493870353826992 [Eh]

	 ================> DF-SCS-MP2 Energies <==================
	-----------------------------------------------------------
	 SCS Same-Spin Scale       =       0.3333333333333333 [-]
	 SCS Opposite-Spin Scale   =       1.2000000000000000 [-]
	 SCS Same-Spin Energy      =      -0.0722356023619505 [Eh]
	 SCS Opposite-Spin Energy  =      -0.8460409933387132 [Eh]
	 SCS Correlation Energy    =      -0.9182765957006638 [Eh]
	 SCS Total Energy          =    -229.9459226628819124 [Eh]
	-----------------------------------------------------------

  Dipole Moment: [D]
     X:     1.3987      Y:     1.5013      Z:     1.4697     Total:     2.5240

*** Psi4 exiting successfully. Buy a developer a beer!
