                               Psi4 1.4a3.dev225

  ==> Input File <==

--------------------------------------------------------------------------
#psi4
#
memory 32 gb

molecule  {
0 1
  O        1.3629200    -0.6007480     0.0540100
  O       -1.4102950    -0.5835890    -0.1635680
  C        0.6753190     0.6118990    -0.2881280
  C       -0.7297860     0.5791870     0.2830810
  H        1.2295620     1.4983740     0.0482790
  H        0.6342892     0.6183014    -1.2789857
  H       -1.3096140     1.4447800    -0.0505840
  H       -0.6789700     0.6132250     1.3845490
  H        1.5826490    -0.5504470     1.0004920
  H       -0.7479790    -1.2966940    -0.0970910
units angstrom
no_reorient  #important for SAPT in psi4, default
symmetry c1  #important for SAPT in psi4, default
}

set PROPERTIES_ORIGIN ["COM"]
properties('MP2/aug-cc-pvtz', properties = ['dipole'])
--------------------------------------------------------------------------

    Molecular point group: c1
  Charge       = 0
  Multiplicity = 1
  Basis Set: AUG-CC-PVTZ
    Blend: AUG-CC-PVTZ
  Basis Set: (AUG-CC-PVTZ AUX)
    Blend: AUG-CC-PVTZ-JKFIT

    Orbital Energies [Eh]
    ---------------------

    Doubly Occupied:

       1A    -20.575500     2A    -20.555049     3A    -11.279505
       4A    -11.274289     5A     -1.380409     6A     -1.347049
       7A     -1.007758     8A     -0.859970     9A     -0.707596
      10A     -0.690994    11A     -0.647274    12A     -0.616641
      13A     -0.578573    14A     -0.530489    15A     -0.514442
      16A     -0.473151    17A     -0.438428

  @DF-RHF Final Energy:  -229.02199696720132

   => Energetics <=

    Nuclear Repulsion Energy =            134.0486367068861568
    One-Electron Energy =                -579.1870341339835022
    Two-Electron Energy =                 216.1164004598960275
    Total Energy =                       -229.0219969672013178
  Basis Set: (AUG-CC-PVTZ AUX)
    Blend: AUG-CC-PVTZ-RI
    Molecular point group: c1

    Geometry (in Angstrom), charge = 0, multiplicity = 1:

       Center              X                  Y                   Z               Mass
    ------------   -----------------  -----------------  -----------------  -----------------
         O            1.374137065183    -0.563599315848     0.066879759226    15.994914619570
         O           -1.399077934817    -0.546440315848    -0.150698240774    15.994914619570
         C            0.686536065183     0.649047684152    -0.275258240774    12.000000000000
         C           -0.718568934817     0.616335684152     0.295950759226    12.000000000000
         H            1.240779065183     1.535522684152     0.061148759226     1.007825032230
         H            0.645506265183     0.655450084152    -1.266115940774     1.007825032230
         H           -1.298396934817     1.481928684152    -0.037714240774     1.007825032230
         H           -0.667752934817     0.650373684152     1.397418759226     1.007825032230
         H            1.593866065183    -0.513298315848     1.013361759226     1.007825032230
         H           -0.736761934817    -1.259545315848    -0.084221240774     1.007825032230

  Basis Set: AUG-CC-PVTZ
    Blend: AUG-CC-PVTZ
  Basis Set: (AUG-CC-PVTZ AUX)
    Blend: AUG-CC-PVTZ-JKFIT
	 Reference Energy          =    -229.0219969672013178 [Eh]
	 Singles Energy            =      -0.0000000000000000 [Eh]
	 Same-Spin Energy          =      -0.2168000965498904 [Eh]
	 Opposite-Spin Energy      =      -0.7046898265248398 [Eh]
	 Correlation Energy        =      -0.9214899230747302 [Eh]
	 Total Energy              =    -229.9434868902760343 [Eh]

	 ================> DF-SCS-MP2 Energies <==================
	-----------------------------------------------------------
	 SCS Same-Spin Scale       =       0.3333333333333333 [-]
	 SCS Opposite-Spin Scale   =       1.2000000000000000 [-]
	 SCS Same-Spin Energy      =      -0.0722666988499635 [Eh]
	 SCS Opposite-Spin Energy  =      -0.8456277918298077 [Eh]
	 SCS Correlation Energy    =      -0.9178944906797711 [Eh]
	 SCS Total Energy          =    -229.9398914578810889 [Eh]
	-----------------------------------------------------------

  Dipole Moment: [D]
     X:     1.4157      Y:     1.5036      Z:     1.4392     Total:     2.5172

*** Psi4 exiting successfully. Buy a developer a beer!
