                               Psi4 1.4a3.dev225

  ==> Input File <==

--------------------------------------------------------------------------
#psi4
#
memory 32 gb

molecule  {
0 1
  O        1.3629200    -0.6007480     0.0540100
  O       -1.4102950    -0.5835890    -0.1635680
  C        0.6753190     0.6118990    -0.2881280
  C       -0.7297860     0.5791870     0.2830810
  H        1.2295620     1.4983740     0.0482790
  H        0.6301520     0.6189470    -1.3788980
  H       -1.3096140     1.4447800    -0.0505840
  H       -0.6789700     0.6132250     1.3845490
  H        1.5826490    -0.5504470     1.0004920
  H       -0.8158740    -1.2235925    -0.1039057
units angstrom
no_reorient  #important for SAPT in psi4, default
symmetry c1  #important for SAPT in psi4, default
}

set PROPERTIES_ORIGIN ["COM"]
properties('MP2/aug-cc-pvtz', properties = ['dipole'])
--------------------------------------------------------------------------

    Molecular point group: c1
  Charge       = 0
  Multiplicity = 1
  Basis Set: AUG-CC-PVTZ
    Blend: AUG-CC-PVTZ
  Basis Set: (AUG-CC-PVTZ AUX)
    Blend: AUG-CC-PVTZ-JKFIT

    Orbital Energies [Eh]
    ---------------------

    Doubly Occupied:

       1A    -20.575787     2A    -20.546988     3A    -11.287101
       4A    -11.281730     5A     -1.392682     6A     -1.361398
       7A     -1.006805     8A     -0.858129     9A     -0.717194
      10A     -0.693628    11A     -0.646496    12A     -0.622359
      13A     -0.574118    14A     -0.533217    15A     -0.512050
      16A     -0.475026    17A     -0.441134

  @DF-RHF Final Energy:  -229.02331506706932

   => Energetics <=

    Nuclear Repulsion Energy =            134.1075886133372990
    One-Electron Energy =                -579.2101207492107733
    Two-Electron Energy =                 216.0792170688041836
    Total Energy =                       -229.0233150670693192
  Basis Set: (AUG-CC-PVTZ AUX)
    Blend: AUG-CC-PVTZ-RI
    Molecular point group: c1

    Geometry (in Angstrom), charge = 0, multiplicity = 1:

       Center              X                  Y                   Z               Mass
    ------------   -----------------  -----------------  -----------------  -----------------
         O            1.375307271872    -0.564797382126     0.068613603941    15.994914619570
         O           -1.397907728128    -0.547638382126    -0.148964396059    15.994914619570
         C            0.687706271872     0.647849617874    -0.273524396059    12.000000000000
         C           -0.717398728128     0.615137617874     0.297684603941    12.000000000000
         H            1.241949271872     1.534324617874     0.062882603941     1.007825032230
         H            0.642539271872     0.654897617874    -1.364294396059     1.007825032230
         H           -1.297226728128     1.480730617874    -0.035980396059     1.007825032230
         H           -0.666582728128     0.649175617874     1.399152603941     1.007825032230
         H            1.595036271872    -0.514496382126     1.015095603941     1.007825032230
         H           -0.803486728128    -1.187641882126    -0.089302096059     1.007825032230

  Basis Set: AUG-CC-PVTZ
    Blend: AUG-CC-PVTZ
  Basis Set: (AUG-CC-PVTZ AUX)
    Blend: AUG-CC-PVTZ-JKFIT
	 Reference Energy          =    -229.0233150670693192 [Eh]
	 Singles Energy            =      -0.0000000000000000 [Eh]
	 Same-Spin Energy          =      -0.2155574178787552 [Eh]
	 Opposite-Spin Energy      =      -0.7022433798942467 [Eh]
	 Correlation Energy        =      -0.9178007977730018 [Eh]
	 Total Energy              =    -229.9411158648423168 [Eh]

	 ================> DF-SCS-MP2 Energies <==================
	-----------------------------------------------------------
	 SCS Same-Spin Scale       =       0.3333333333333333 [-]
	 SCS Opposite-Spin Scale   =       1.2000000000000000 [-]
	 SCS Same-Spin Energy      =      -0.0718524726262517 [Eh]
	 SCS Opposite-Spin Energy  =      -0.8426920558730960 [Eh]
	 SCS Correlation Energy    =      -0.9145445284993478 [Eh]
	 SCS Total Energy          =    -229.9378595955686535 [Eh]
	-----------------------------------------------------------

  Dipole Moment: [D]
     X:     1.3455      Y:     1.5686      Z:     1.4769     Total:     2.5401

*** Psi4 exiting successfully. Buy a developer a beer!
