                               Psi4 1.4a3.dev225

  ==> Input File <==

--------------------------------------------------------------------------
#psi4
#
memory 32 gb

molecule  {
0 1
  O        1.3629200    -0.6007480     0.0540100
  O       -1.4102950    -0.5835890    -0.1635680
  C        0.7011851     0.4759670    -0.2102113
  C       -0.7297860     0.5791870     0.2830810
  H        1.2295620     1.4983740     0.0482790
  H        0.6301520     0.6189470    -1.3788980
  H       -1.3096140     1.4447800    -0.0505840
  H       -0.6789700     0.6132250     1.3845490
  H        1.5826490    -0.5504470     1.0004920
  H       -0.7479790    -1.2966940    -0.0970910
units angstrom
no_reorient  #important for SAPT in psi4, default
symmetry c1  #important for SAPT in psi4, default
}

set PROPERTIES_ORIGIN ["COM"]
properties('MP2/aug-cc-pvtz', properties = ['dipole'])
--------------------------------------------------------------------------

    Molecular point group: c1
  Charge       = 0
  Multiplicity = 1
  Basis Set: AUG-CC-PVTZ
    Blend: AUG-CC-PVTZ
  Basis Set: (AUG-CC-PVTZ AUX)
    Blend: AUG-CC-PVTZ-JKFIT

    Orbital Energies [Eh]
    ---------------------

    Doubly Occupied:

       1A    -20.594749     2A    -20.553344     3A    -11.293414
       4A    -11.277332     5A     -1.444918     6A     -1.354346
       7A     -0.991070     8A     -0.854740     9A     -0.728844
      10A     -0.700878    11A     -0.666521    12A     -0.633164
      13A     -0.580993    14A     -0.540778    15A     -0.486438
      16A     -0.454523    17A     -0.422845

  @DF-RHF Final Energy:  -229.00213542350630

   => Energetics <=

    Nuclear Repulsion Energy =            135.4906426620804609
    One-Electron Energy =                -581.8277618193937997
    Two-Electron Energy =                 217.3349837338070358
    Total Energy =                       -229.0021354235063029
  Basis Set: (AUG-CC-PVTZ AUX)
    Blend: AUG-CC-PVTZ-RI
    Molecular point group: c1

    Geometry (in Angstrom), charge = 0, multiplicity = 1:

       Center              X                  Y                   Z               Mass
    ------------   -----------------  -----------------  -----------------  -----------------
         O            1.369200902650    -0.537315982588     0.053431184192    15.994914619570
         O           -1.404014097350    -0.520156982588    -0.164146815808    15.994914619570
         C            0.707466002650     0.539399017412    -0.210790115808    12.000000000000
         C           -0.723505097350     0.642619017412     0.282502184192    12.000000000000
         H            1.235842902650     1.561806017412     0.047700184192     1.007825032230
         H            0.636432902650     0.682379017412    -1.379476815808     1.007825032230
         H           -1.303333097350     1.508212017412    -0.051162815808     1.007825032230
         H           -0.672689097350     0.676657017412     1.383970184192     1.007825032230
         H            1.588929902650    -0.487014982588     0.999913184192     1.007825032230
         H           -0.741698097350    -1.233261982588    -0.097669815808     1.007825032230

  Basis Set: AUG-CC-PVTZ
    Blend: AUG-CC-PVTZ
  Basis Set: (AUG-CC-PVTZ AUX)
    Blend: AUG-CC-PVTZ-JKFIT
	 Reference Energy          =    -229.0021354235063029 [Eh]
	 Singles Energy            =      -0.0000000000000000 [Eh]
	 Same-Spin Energy          =      -0.2174569226270042 [Eh]
	 Opposite-Spin Energy      =      -0.7045515781278765 [Eh]
	 Correlation Energy        =      -0.9220085007548807 [Eh]
	 Total Energy              =    -229.9241439242611875 [Eh]

	 ================> DF-SCS-MP2 Energies <==================
	-----------------------------------------------------------
	 SCS Same-Spin Scale       =       0.3333333333333333 [-]
	 SCS Opposite-Spin Scale   =       1.2000000000000000 [-]
	 SCS Same-Spin Energy      =      -0.0724856408756681 [Eh]
	 SCS Opposite-Spin Energy  =      -0.8454618937534518 [Eh]
	 SCS Correlation Energy    =      -0.9179475346291199 [Eh]
	 SCS Total Energy          =    -229.9200829581354242 [Eh]
	-----------------------------------------------------------

  Dipole Moment: [D]
     X:     1.6260      Y:     0.9813      Z:     1.6701     Total:     2.5290

*** Psi4 exiting successfully. Buy a developer a beer!
