                               Psi4 1.4a3.dev225

  ==> Input File <==

--------------------------------------------------------------------------
#psi4
#
memory 32 gb

molecule  {
0 1
  O        1.3629200    -0.6007480     0.0540100
  O       -1.4102950    -0.5835890    -0.1635680
  C        0.6753190     0.6118990    -0.2881280
  C       -0.7297860     0.5791870     0.2830810
  H        1.2295620     1.4983740     0.0482790
  H        0.6301520     0.6189470    -1.3788980
  H       -1.3096140     1.4447800    -0.0505840
  H       -0.6789700     0.6132250     1.3845490
  H        1.6278164    -0.5401071     1.1950505
  H       -0.7479790    -1.2966940    -0.0970910
units angstrom
no_reorient  #important for SAPT in psi4, default
symmetry c1  #important for SAPT in psi4, default
}

set PROPERTIES_ORIGIN ["COM"]
properties('MP2/aug-cc-pvtz', properties = ['dipole'])
--------------------------------------------------------------------------

    Molecular point group: c1
  Charge       = 0
  Multiplicity = 1
  Basis Set: AUG-CC-PVTZ
    Blend: AUG-CC-PVTZ
  Basis Set: (AUG-CC-PVTZ AUX)
    Blend: AUG-CC-PVTZ-JKFIT

    Orbital Energies [Eh]
    ---------------------

    Doubly Occupied:

       1A    -20.591981     2A    -20.554028     3A    -11.285145
       4A    -11.279099     5A     -1.365450     6A     -1.329430
       7A     -0.994242     8A     -0.840581     9A     -0.696382
      10A     -0.674502    11A     -0.633785    12A     -0.608393
      13A     -0.568511    14A     -0.523431    15A     -0.498422
      16A     -0.471231    17A     -0.436756

  @DF-RHF Final Energy:  -228.99266862464717

   => Energetics <=

    Nuclear Repulsion Energy =            132.5937939518137796
    One-Electron Energy =                -576.4701871169522747
    Two-Electron Energy =                 214.8837245404913290
    Total Energy =                       -228.9926686246471661
  Basis Set: (AUG-CC-PVTZ AUX)
    Blend: AUG-CC-PVTZ-RI
    Molecular point group: c1

    Geometry (in Angstrom), charge = 0, multiplicity = 1:

       Center              X                  Y                   Z               Mass
    ------------   -----------------  -----------------  -----------------  -----------------
         O            1.373470504749    -0.563777781944     0.065342174418    15.994914619570
         O           -1.399744495251    -0.546618781944    -0.152235825582    15.994914619570
         C            0.685869504749     0.648869218056    -0.276795825582    12.000000000000
         C           -0.719235495251     0.616157218056     0.294413174418    12.000000000000
         H            1.240112504749     1.535344218056     0.059611174418     1.007825032230
         H            0.640702504749     0.655917218056    -1.367565825582     1.007825032230
         H           -1.299063495251     1.481750218056    -0.039251825582     1.007825032230
         H           -0.668419495251     0.650195218056     1.395881174418     1.007825032230
         H            1.638366904749    -0.503136881944     1.206382674418     1.007825032230
         H           -0.737428495251    -1.259723781944    -0.085758825582     1.007825032230

  Basis Set: AUG-CC-PVTZ
    Blend: AUG-CC-PVTZ
  Basis Set: (AUG-CC-PVTZ AUX)
    Blend: AUG-CC-PVTZ-JKFIT
	 Reference Energy          =    -228.9926686246471661 [Eh]
	 Singles Energy            =      -0.0000000000000000 [Eh]
	 Same-Spin Energy          =      -0.2188918269997552 [Eh]
	 Opposite-Spin Energy      =      -0.7117365064176475 [Eh]
	 Correlation Energy        =      -0.9306283334174028 [Eh]
	 Total Energy              =    -229.9232969580645829 [Eh]

	 ================> DF-SCS-MP2 Energies <==================
	-----------------------------------------------------------
	 SCS Same-Spin Scale       =       0.3333333333333333 [-]
	 SCS Opposite-Spin Scale   =       1.2000000000000000 [-]
	 SCS Same-Spin Energy      =      -0.0729639423332517 [Eh]
	 SCS Opposite-Spin Energy  =      -0.8540838077011770 [Eh]
	 SCS Correlation Energy    =      -0.9270477500344287 [Eh]
	 SCS Total Energy          =    -229.9197163746815988 [Eh]
	-----------------------------------------------------------

  Dipole Moment: [D]
     X:     1.4774      Y:     1.4717      Z:     1.6004     Total:     2.6287

*** Psi4 exiting successfully. Buy a developer a beer!
