                               Psi4 1.4a3.dev225

  ==> Input File <==

--------------------------------------------------------------------------
#psi4
#
memory 32 gb

molecule  {
0 1
  O        1.3629200    -0.6007480     0.0540100
  O       -1.4102950    -0.5835890    -0.1635680
  C        0.6753190     0.6118990    -0.2881280
  C       -0.7297860     0.5791870     0.2830810
  H        1.2295620     1.4983740     0.0482790
  H        0.6301520     0.6189470    -1.3788980
  H       -1.3096140     1.4447800    -0.0505840
  H       -0.6789700     0.6132250     1.3845490
  H        1.5826490    -0.5504470     1.0004920
  H       -0.6121890    -1.4428970    -0.0834617
units angstrom
no_reorient  #important for SAPT in psi4, default
symmetry c1  #important for SAPT in psi4, default
}

set PROPERTIES_ORIGIN ["COM"]
properties('MP2/aug-cc-pvtz', properties = ['dipole'])
--------------------------------------------------------------------------

    Molecular point group: c1
  Charge       = 0
  Multiplicity = 1
  Basis Set: AUG-CC-PVTZ
    Blend: AUG-CC-PVTZ
  Basis Set: (AUG-CC-PVTZ AUX)
    Blend: AUG-CC-PVTZ-JKFIT

    Orbital Energies [Eh]
    ---------------------

    Doubly Occupied:

       1A    -20.579158     2A    -20.564783     3A    -11.285953
       4A    -11.277827     5A     -1.377843     6A     -1.317764
       7A     -0.995025     8A     -0.841678     9A     -0.699928
      10A     -0.674910    11A     -0.642407    12A     -0.602198
      13A     -0.568111    14A     -0.516240    15A     -0.501073
      16A     -0.470279    17A     -0.433709

  @DF-RHF Final Energy:  -228.99284375888107

   => Energetics <=

    Nuclear Repulsion Energy =            132.7363485201117896
    One-Electron Energy =                -576.7606124143708257
    Two-Electron Energy =                 215.0314201353779708
    Total Energy =                       -228.9928437588810652
  Basis Set: (AUG-CC-PVTZ AUX)
    Blend: AUG-CC-PVTZ-RI
    Molecular point group: c1

    Geometry (in Angstrom), charge = 0, multiplicity = 1:

       Center              X                  Y                   Z               Mass
    ------------   -----------------  -----------------  -----------------  -----------------
         O            1.371998285759    -0.561234647780     0.068281478787    15.994914619570
         O           -1.401216714241    -0.544075647780    -0.149296521213    15.994914619570
         C            0.684397285759     0.651412352220    -0.273856521213    12.000000000000
         C           -0.720707714241     0.618700352220     0.297352478787    12.000000000000
         H            1.238640285759     1.537887352220     0.062550478787     1.007825032230
         H            0.639230285759     0.658460352220    -1.364626521213     1.007825032230
         H           -1.300535714241     1.484293352220    -0.036312521213     1.007825032230
         H           -0.669891714241     0.652738352220     1.398820478787     1.007825032230
         H            1.591727285759    -0.510933647780     1.014763478787     1.007825032230
         H           -0.603110714241    -1.403383647780    -0.069190221213     1.007825032230

  Basis Set: AUG-CC-PVTZ
    Blend: AUG-CC-PVTZ
  Basis Set: (AUG-CC-PVTZ AUX)
    Blend: AUG-CC-PVTZ-JKFIT
	 Reference Energy          =    -228.9928437588810652 [Eh]
	 Singles Energy            =      -0.0000000000000000 [Eh]
	 Same-Spin Energy          =      -0.2193702437536095 [Eh]
	 Opposite-Spin Energy      =      -0.7118853112185828 [Eh]
	 Correlation Energy        =      -0.9312555549721923 [Eh]
	 Total Energy              =    -229.9240993138532474 [Eh]

	 ================> DF-SCS-MP2 Energies <==================
	-----------------------------------------------------------
	 SCS Same-Spin Scale       =       0.3333333333333333 [-]
	 SCS Opposite-Spin Scale   =       1.2000000000000000 [-]
	 SCS Same-Spin Energy      =      -0.0731234145845365 [Eh]
	 SCS Opposite-Spin Energy  =      -0.8542623734622993 [Eh]
	 SCS Correlation Energy    =      -0.9273857880468358 [Eh]
	 SCS Total Energy          =    -229.9202295469279136 [Eh]
	-----------------------------------------------------------

  Dipole Moment: [D]
     X:     1.5898      Y:     1.3569      Z:     1.4725     Total:     2.5567

*** Psi4 exiting successfully. Buy a developer a beer!
