                               Psi4 1.4a3.dev225

  ==> Input File <==

--------------------------------------------------------------------------
#psi4
#
memory 32 gb

molecule  {
0 1
  O        1.3629200    -0.6007480     0.0540100
  O       -1.4102950    -0.5835890    -0.1635680
  C        0.6753190     0.6118990    -0.2881280
  C       -0.7297860     0.5791870     0.2830810
  H        1.2295620     1.4983740     0.0482790
  H        0.6322206     0.6186242    -1.3289419
  H       -1.3096140     1.4447800    -0.0505840
  H       -0.6789700     0.6132250     1.3845490
  H        1.5826490    -0.5504470     1.0004920
  H       -0.7479790    -1.2966940    -0.0970910
units angstrom
no_reorient  #important for SAPT in psi4, default
symmetry c1  #important for SAPT in psi4, default
}

set PROPERTIES_ORIGIN ["COM"]
properties('MP2/aug-cc-pvtz', properties = ['dipole'])
--------------------------------------------------------------------------

    Molecular point group: c1
  Charge       = 0
  Multiplicity = 1
  Basis Set: AUG-CC-PVTZ
    Blend: AUG-CC-PVTZ
  Basis Set: (AUG-CC-PVTZ AUX)
    Blend: AUG-CC-PVTZ-JKFIT

    Orbital Energies [Eh]
    ---------------------

    Doubly Occupied:

       1A    -20.576070     2A    -20.555054     3A    -11.280627
       4A    -11.279735     5A     -1.380506     6A     -1.347185
       7A     -1.004366     8A     -0.855227     9A     -0.706608
      10A     -0.690756    11A     -0.646026    12A     -0.616425
      13A     -0.575070    14A     -0.528415    15A     -0.513079
      16A     -0.473382    17A     -0.438478

  @DF-RHF Final Energy:  -229.02710611946017

   => Energetics <=

    Nuclear Repulsion Energy =            133.8007930103039484
    One-Electron Energy =                -578.7217793440945570
    Two-Electron Energy =                 215.8938802143304372
    Total Energy =                       -229.0271061194601714
  Basis Set: (AUG-CC-PVTZ AUX)
    Blend: AUG-CC-PVTZ-RI
    Molecular point group: c1

    Geometry (in Angstrom), charge = 0, multiplicity = 1:

       Center              X                  Y                   Z               Mass
    ------------   -----------------  -----------------  -----------------  -----------------
         O            1.374170670842    -0.563604559929     0.067691327933    15.994914619570
         O           -1.399044329158    -0.546445559929    -0.149886672067    15.994914619570
         C            0.686569670842     0.649042440071    -0.274446672067    12.000000000000
         C           -0.718535329158     0.616330440071     0.296762327933    12.000000000000
         H            1.240812670842     1.535517440071     0.061960327933     1.007825032230
         H            0.643471270842     0.655767640071    -1.315260572067     1.007825032230
         H           -1.298363329158     1.481923440071    -0.036902672067     1.007825032230
         H           -0.667719329158     0.650368440071     1.398230327933     1.007825032230
         H            1.593899670842    -0.513303559929     1.014173327933     1.007825032230
         H           -0.736728329158    -1.259550559929    -0.083409672067     1.007825032230

  Basis Set: AUG-CC-PVTZ
    Blend: AUG-CC-PVTZ
  Basis Set: (AUG-CC-PVTZ AUX)
    Blend: AUG-CC-PVTZ-JKFIT
	 Reference Energy          =    -229.0271061194601714 [Eh]
	 Singles Energy            =      -0.0000000000000000 [Eh]
	 Same-Spin Energy          =      -0.2168099850793112 [Eh]
	 Opposite-Spin Energy      =      -0.7048861913628779 [Eh]
	 Correlation Energy        =      -0.9216961764421890 [Eh]
	 Total Energy              =    -229.9488022959023681 [Eh]

	 ================> DF-SCS-MP2 Energies <==================
	-----------------------------------------------------------
	 SCS Same-Spin Scale       =       0.3333333333333333 [-]
	 SCS Opposite-Spin Scale   =       1.2000000000000000 [-]
	 SCS Same-Spin Energy      =      -0.0722699950264371 [Eh]
	 SCS Opposite-Spin Energy  =      -0.8458634296354535 [Eh]
	 SCS Correlation Energy    =      -0.9181334246618905 [Eh]
	 SCS Total Energy          =    -229.9452395441220744 [Eh]
	-----------------------------------------------------------

  Dipole Moment: [D]
     X:     1.4155      Y:     1.4963      Z:     1.4544     Total:     2.5215

*** Psi4 exiting successfully. Buy a developer a beer!
