                               Psi4 1.4a3.dev225

  ==> Input File <==

--------------------------------------------------------------------------
#psi4
#
memory 32 gb

molecule  {
0 1
  O        1.3669055    -0.6112304     0.0051789
  O       -1.4102950    -0.5835890    -0.1635680
  C        0.6753190     0.6118990    -0.2881280
  C       -0.7297860     0.5791870     0.2830810
  H        1.2295620     1.4983740     0.0482790
  H        0.6301520     0.6189470    -1.3788980
  H       -1.3096140     1.4447800    -0.0505840
  H       -0.6789700     0.6132250     1.3845490
  H        1.5826490    -0.5504470     1.0004920
  H       -0.7479790    -1.2966940    -0.0970910
units angstrom
no_reorient  #important for SAPT in psi4, default
symmetry c1  #important for SAPT in psi4, default
}

set PROPERTIES_ORIGIN ["COM"]
properties('MP2/aug-cc-pvtz', properties = ['dipole'])
--------------------------------------------------------------------------

    Molecular point group: c1
  Charge       = 0
  Multiplicity = 1
  Basis Set: AUG-CC-PVTZ
    Blend: AUG-CC-PVTZ
  Basis Set: (AUG-CC-PVTZ AUX)
    Blend: AUG-CC-PVTZ-JKFIT

    Orbital Energies [Eh]
    ---------------------

    Doubly Occupied:

       1A    -20.582710     2A    -20.555265     3A    -11.285785
       4A    -11.280901     5A     -1.375959     6A     -1.344691
       7A     -0.999689     8A     -0.847672     9A     -0.704204
      10A     -0.686847    11A     -0.640771    12A     -0.617267
      13A     -0.569359    14A     -0.525286    15A     -0.511227
      16A     -0.474044    17A     -0.438629

  @DF-RHF Final Energy:  -229.02242038390568

   => Energetics <=

    Nuclear Repulsion Energy =            133.3023584440182390
    One-Electron Energy =                -577.7689462456166893
    Two-Electron Energy =                 215.4441674176927677
    Total Energy =                       -229.0224203839056827
  Basis Set: (AUG-CC-PVTZ AUX)
    Blend: AUG-CC-PVTZ-RI
    Molecular point group: c1

    Geometry (in Angstrom), charge = 0, multiplicity = 1:

       Center              X                  Y                   Z               Mass
    ------------   -----------------  -----------------  -----------------  -----------------
         O            1.377162196849    -0.571389531587     0.032261895314    15.994914619570
         O           -1.400038303151    -0.543748131587    -0.136485004686    15.994914619570
         C            0.685575696849     0.651739868413    -0.261045004686    12.000000000000
         C           -0.719529303151     0.619027868413     0.310163995314    12.000000000000
         H            1.239818696849     1.538214868413     0.075361995314     1.007825032230
         H            0.640408696849     0.658787868413    -1.351815004686     1.007825032230
         H           -1.299357303151     1.484620868413    -0.023501004686     1.007825032230
         H           -0.668713303151     0.653065868413     1.411631995314     1.007825032230
         H            1.592905696849    -0.510606131587     1.027574995314     1.007825032230
         H           -0.737722303151    -1.256853131587    -0.070008004686     1.007825032230

  Basis Set: AUG-CC-PVTZ
    Blend: AUG-CC-PVTZ
  Basis Set: (AUG-CC-PVTZ AUX)
    Blend: AUG-CC-PVTZ-JKFIT
	 Reference Energy          =    -229.0224203839056827 [Eh]
	 Singles Energy            =      -0.0000000000000000 [Eh]
	 Same-Spin Energy          =      -0.2175139919423636 [Eh]
	 Opposite-Spin Energy      =      -0.7069872578302567 [Eh]
	 Correlation Energy        =      -0.9245012497726204 [Eh]
	 Total Energy              =    -229.9469216336783006 [Eh]

	 ================> DF-SCS-MP2 Energies <==================
	-----------------------------------------------------------
	 SCS Same-Spin Scale       =       0.3333333333333333 [-]
	 SCS Opposite-Spin Scale   =       1.2000000000000000 [-]
	 SCS Same-Spin Energy      =      -0.0725046639807879 [Eh]
	 SCS Opposite-Spin Energy  =      -0.8483847093963081 [Eh]
	 SCS Correlation Energy    =      -0.9208893733770960 [Eh]
	 SCS Total Energy          =    -229.9433097572827762 [Eh]
	-----------------------------------------------------------

  Dipole Moment: [D]
     X:     1.4046      Y:     1.4856      Z:     1.5396     Total:     2.5593

*** Psi4 exiting successfully. Buy a developer a beer!
