                               Psi4 1.4a3.dev225

  ==> Input File <==

--------------------------------------------------------------------------
#psi4
#
memory 32 gb

molecule  {
0 1
  O        1.3629200    -0.6007480     0.0540100
  O       -1.4102950    -0.5835890    -0.1635680
  C        0.6753190     0.6118990    -0.2881280
  C       -0.7297860     0.5791870     0.2830810
  H        1.2295620     1.4983740     0.0482790
  H        0.6301520     0.6189470    -1.3788980
  H       -1.3096140     1.4447800    -0.0505840
  H       -0.6789700     0.6132250     1.3845490
  H        1.5871657    -0.5494130     1.0199478
  H       -0.7479790    -1.2966940    -0.0970910
units angstrom
no_reorient  #important for SAPT in psi4, default
symmetry c1  #important for SAPT in psi4, default
}

set PROPERTIES_ORIGIN ["COM"]
properties('MP2/aug-cc-pvtz', properties = ['dipole'])
--------------------------------------------------------------------------

    Molecular point group: c1
  Charge       = 0
  Multiplicity = 1
  Basis Set: AUG-CC-PVTZ
    Blend: AUG-CC-PVTZ
  Basis Set: (AUG-CC-PVTZ AUX)
    Blend: AUG-CC-PVTZ-JKFIT

    Orbital Energies [Eh]
    ---------------------

    Doubly Occupied:

       1A    -20.578527     2A    -20.554964     3A    -11.286392
       4A    -11.280186     5A     -1.377835     6A     -1.345807
       7A     -1.000739     8A     -0.849713     9A     -0.703968
      10A     -0.689343    11A     -0.643956    12A     -0.615689
      13A     -0.571524    14A     -0.526195    15A     -0.509699
      16A     -0.473342    17A     -0.438323

  @DF-RHF Final Energy:  -229.02649704580745

   => Energetics <=

    Nuclear Repulsion Energy =            133.4571370859879949
    One-Electron Energy =                -578.0748655040258654
    Two-Electron Energy =                 215.5912313722304248
    Total Energy =                       -229.0264970458074458
  Basis Set: (AUG-CC-PVTZ AUX)
    Blend: AUG-CC-PVTZ-RI
    Molecular point group: c1

    Geometry (in Angstrom), charge = 0, multiplicity = 1:

       Center              X                  Y                   Z               Mass
    ------------   -----------------  -----------------  -----------------  -----------------
         O            1.374130899976    -0.563626601966     0.068186823768    15.994914619570
         O           -1.399084100024    -0.546467601966    -0.149391176232    15.994914619570
         C            0.686529899976     0.649020398034    -0.273951176232    12.000000000000
         C           -0.718575100024     0.616308398034     0.297257823768    12.000000000000
         H            1.240772899976     1.535495398034     0.062455823768     1.007825032230
         H            0.641362899976     0.656068398034    -1.364721176232     1.007825032230
         H           -1.298403100024     1.481901398034    -0.036407176232     1.007825032230
         H           -0.667759100024     0.650346398034     1.398725823768     1.007825032230
         H            1.598376599976    -0.512291601966     1.034124623768     1.007825032230
         H           -0.736768100024    -1.259572601966    -0.082914176232     1.007825032230

  Basis Set: AUG-CC-PVTZ
    Blend: AUG-CC-PVTZ
  Basis Set: (AUG-CC-PVTZ AUX)
    Blend: AUG-CC-PVTZ-JKFIT
	 Reference Energy          =    -229.0264970458074458 [Eh]
	 Singles Energy            =      -0.0000000000000000 [Eh]
	 Same-Spin Energy          =      -0.2170572534834414 [Eh]
	 Opposite-Spin Energy      =      -0.7057761879124130 [Eh]
	 Correlation Energy        =      -0.9228334413958544 [Eh]
	 Total Energy              =    -229.9493304872032979 [Eh]

	 ================> DF-SCS-MP2 Energies <==================
	-----------------------------------------------------------
	 SCS Same-Spin Scale       =       0.3333333333333333 [-]
	 SCS Opposite-Spin Scale   =       1.2000000000000000 [-]
	 SCS Same-Spin Energy      =      -0.0723524178278138 [Eh]
	 SCS Opposite-Spin Energy  =      -0.8469314254948956 [Eh]
	 SCS Correlation Energy    =      -0.9192838433227094 [Eh]
	 SCS Total Energy          =    -229.9457808891301624 [Eh]
	-----------------------------------------------------------

  Dipole Moment: [D]
     X:     1.4226      Y:     1.4855      Z:     1.4885     Total:     2.5389

*** Psi4 exiting successfully. Buy a developer a beer!
