                               Psi4 1.4a3.dev225

  ==> Input File <==

--------------------------------------------------------------------------
#psi4
#
memory 32 gb

molecule  {
0 1
  O        1.3629200    -0.6007480     0.0540100
  O       -1.4102950    -0.5835890    -0.1635680
  C        0.6753190     0.6118990    -0.2881280
  C       -0.7297860     0.5791870     0.2830810
  H        1.2295620     1.4983740     0.0482790
  H        0.6301520     0.6189470    -1.3788980
  H       -1.3096140     1.4447800    -0.0505840
  H       -0.6789700     0.6132250     1.3845490
  H        1.5374816    -0.5607869     0.8059335
  H       -0.7479790    -1.2966940    -0.0970910
units angstrom
no_reorient  #important for SAPT in psi4, default
symmetry c1  #important for SAPT in psi4, default
}

set PROPERTIES_ORIGIN ["COM"]
properties('MP2/aug-cc-pvtz', properties = ['dipole'])
--------------------------------------------------------------------------

    Molecular point group: c1
  Charge       = 0
  Multiplicity = 1
  Basis Set: AUG-CC-PVTZ
    Blend: AUG-CC-PVTZ
  Basis Set: (AUG-CC-PVTZ AUX)
    Blend: AUG-CC-PVTZ-JKFIT

    Orbital Energies [Eh]
    ---------------------

    Doubly Occupied:

       1A    -20.556450     2A    -20.554851     3A    -11.289036
       4A    -11.281931     5A     -1.435748     6A     -1.356192
       7A     -1.014880     8A     -0.868504     9A     -0.732389
      10A     -0.696729    11A     -0.653144    12A     -0.621678
      13A     -0.575741    14A     -0.531275    15A     -0.520181
      16A     -0.477638    17A     -0.441064

  @DF-RHF Final Energy:  -228.98176799180976

   => Energetics <=

    Nuclear Repulsion Energy =            134.9314160296553951
    One-Electron Energy =                -580.6115071657927729
    Two-Electron Energy =                 216.6983231443276168
    Total Energy =                       -228.9817679918097610
  Basis Set: (AUG-CC-PVTZ AUX)
    Blend: AUG-CC-PVTZ-RI
    Molecular point group: c1

    Geometry (in Angstrom), charge = 0, multiplicity = 1:

       Center              X                  Y                   Z               Mass
    ------------   -----------------  -----------------  -----------------  -----------------
         O            1.374938048254    -0.563441826076     0.071663615612    15.994914619570
         O           -1.398276951746    -0.546282826076    -0.145914384388    15.994914619570
         C            0.687337048254     0.649205173924    -0.270474384388    12.000000000000
         C           -0.717767951746     0.616493173924     0.300734615612    12.000000000000
         H            1.241580048254     1.535680173924     0.065932615612     1.007825032230
         H            0.642170048254     0.656253173924    -1.361244384388     1.007825032230
         H           -1.297595951746     1.482086173924    -0.032930384388     1.007825032230
         H           -0.666951951746     0.650531173924     1.402202615612     1.007825032230
         H            1.549499648254    -0.523480726076     0.823587115612     1.007825032230
         H           -0.735960951746    -1.259387826076    -0.079437384388     1.007825032230

  Basis Set: AUG-CC-PVTZ
    Blend: AUG-CC-PVTZ
  Basis Set: (AUG-CC-PVTZ AUX)
    Blend: AUG-CC-PVTZ-JKFIT
	 Reference Energy          =    -228.9817679918097610 [Eh]
	 Singles Energy            =      -0.0000000000000000 [Eh]
	 Same-Spin Energy          =      -0.2146022555789962 [Eh]
	 Opposite-Spin Energy      =      -0.6997554547809344 [Eh]
	 Correlation Energy        =      -0.9143577103599306 [Eh]
	 Total Energy              =    -229.8961257021696838 [Eh]

	 ================> DF-SCS-MP2 Energies <==================
	-----------------------------------------------------------
	 SCS Same-Spin Scale       =       0.3333333333333333 [-]
	 SCS Opposite-Spin Scale   =       1.2000000000000000 [-]
	 SCS Same-Spin Energy      =      -0.0715340851929987 [Eh]
	 SCS Opposite-Spin Energy  =      -0.8397065457371212 [Eh]
	 SCS Correlation Energy    =      -0.9112406309301200 [Eh]
	 SCS Total Energy          =    -229.8930086227398704 [Eh]
	-----------------------------------------------------------

  Dipole Moment: [D]
     X:     1.3275      Y:     1.5324      Z:     1.3166     Total:     2.4174

*** Psi4 exiting successfully. Buy a developer a beer!
