                               Psi4 1.4a3.dev225

  ==> Input File <==

--------------------------------------------------------------------------
#psi4
#
memory 32 gb

molecule  {
0 1
  O        1.3629200    -0.6007480     0.0540100
  O       -1.4102950    -0.5835890    -0.1635680
  C        0.6753190     0.6118990    -0.2881280
  C       -0.7297860     0.5791870     0.2830810
  H        1.2295620     1.4983740     0.0482790
  H        0.6301520     0.6189470    -1.3788980
  H       -1.2036102     1.2865329     0.0104164
  H       -0.6789700     0.6132250     1.3845490
  H        1.5826490    -0.5504470     1.0004920
  H       -0.7479790    -1.2966940    -0.0970910
units angstrom
no_reorient  #important for SAPT in psi4, default
symmetry c1  #important for SAPT in psi4, default
}

set PROPERTIES_ORIGIN ["COM"]
properties('MP2/aug-cc-pvtz', properties = ['dipole'])
--------------------------------------------------------------------------

    Molecular point group: c1
  Charge       = 0
  Multiplicity = 1
  Basis Set: AUG-CC-PVTZ
    Blend: AUG-CC-PVTZ
  Basis Set: (AUG-CC-PVTZ AUX)
    Blend: AUG-CC-PVTZ-JKFIT

    Orbital Energies [Eh]
    ---------------------

    Doubly Occupied:

       1A    -20.575375     2A    -20.552709     3A    -11.285385
       4A    -11.255354     5A     -1.379521     6A     -1.346231
       7A     -1.016169     8A     -0.870732     9A     -0.708564
      10A     -0.692631    11A     -0.646922    12A     -0.629375
      13A     -0.578884    14A     -0.528154    15A     -0.513059
      16A     -0.478209    17A     -0.437122

  @DF-RHF Final Energy:  -228.99436357257457

   => Energetics <=

    Nuclear Repulsion Energy =            134.6211573233429988
    One-Electron Energy =                -580.2422476165057788
    Two-Electron Energy =                 216.6267267205881808
    Total Energy =                       -228.9943635725745708
  Basis Set: (AUG-CC-PVTZ AUX)
    Blend: AUG-CC-PVTZ-RI
    Molecular point group: c1

    Geometry (in Angstrom), charge = 0, multiplicity = 1:

       Center              X                  Y                   Z               Mass
    ------------   -----------------  -----------------  -----------------  -----------------
         O            1.372482180607    -0.561038984085     0.067511906594    15.994914619570
         O           -1.400732819393    -0.543879984085    -0.150066093406    15.994914619570
         C            0.684881180607     0.651608015915    -0.274626093406    12.000000000000
         C           -0.720223819393     0.618896015915     0.296582906594    12.000000000000
         H            1.239124180607     1.538083015915     0.061780906594     1.007825032230
         H            0.639714180607     0.658656015915    -1.365396093406     1.007825032230
         H           -1.194048019393     1.326241915915     0.023918306594     1.007825032230
         H           -0.669407819393     0.652934015915     1.398050906594     1.007825032230
         H            1.592211180607    -0.510737984085     1.013993906594     1.007825032230
         H           -0.738416819393    -1.256984984085    -0.083589093406     1.007825032230

  Basis Set: AUG-CC-PVTZ
    Blend: AUG-CC-PVTZ
  Basis Set: (AUG-CC-PVTZ AUX)
    Blend: AUG-CC-PVTZ-JKFIT
	 Reference Energy          =    -228.9943635725745708 [Eh]
	 Singles Energy            =      -0.0000000000000000 [Eh]
	 Same-Spin Energy          =      -0.2168568466258828 [Eh]
	 Opposite-Spin Energy      =      -0.7045571533565969 [Eh]
	 Correlation Energy        =      -0.9214139999824796 [Eh]
	 Total Energy              =    -229.9157775725570616 [Eh]

	 ================> DF-SCS-MP2 Energies <==================
	-----------------------------------------------------------
	 SCS Same-Spin Scale       =       0.3333333333333333 [-]
	 SCS Opposite-Spin Scale   =       1.2000000000000000 [-]
	 SCS Same-Spin Energy      =      -0.0722856155419609 [Eh]
	 SCS Opposite-Spin Energy  =      -0.8454685840279162 [Eh]
	 SCS Correlation Energy    =      -0.9177541995698771 [Eh]
	 SCS Total Energy          =    -229.9121177721444553 [Eh]
	-----------------------------------------------------------

  Dipole Moment: [D]
     X:     1.3895      Y:     1.5719      Z:     1.4735     Total:     2.5637

*** Psi4 exiting successfully. Buy a developer a beer!
