                               Psi4 1.4a3.dev225

  ==> Input File <==

--------------------------------------------------------------------------
#psi4
#
memory 32 gb

molecule  {
0 1
  O        1.3629200    -0.6007480     0.0540100
  O       -1.4268215    -0.6194426    -0.0203403
  C        0.6753190     0.6118990    -0.2881280
  C       -0.7297860     0.5791870     0.2830810
  H        1.2295620     1.4983740     0.0482790
  H        0.6301520     0.6189470    -1.3788980
  H       -1.3096140     1.4447800    -0.0505840
  H       -0.6789700     0.6132250     1.3845490
  H        1.5826490    -0.5504470     1.0004920
  H       -0.7479790    -1.2966940    -0.0970910
units angstrom
no_reorient  #important for SAPT in psi4, default
symmetry c1  #important for SAPT in psi4, default
}

set PROPERTIES_ORIGIN ["COM"]
properties('MP2/aug-cc-pvtz', properties = ['dipole'])
--------------------------------------------------------------------------

    Molecular point group: c1
  Charge       = 0
  Multiplicity = 1
  Basis Set: AUG-CC-PVTZ
    Blend: AUG-CC-PVTZ
  Basis Set: (AUG-CC-PVTZ AUX)
    Blend: AUG-CC-PVTZ-JKFIT

    Orbital Energies [Eh]
    ---------------------

    Doubly Occupied:

       1A    -20.577450     2A    -20.552712     3A    -11.289551
       4A    -11.279953     5A     -1.381481     6A     -1.349186
       7A     -1.003589     8A     -0.853104     9A     -0.706242
      10A     -0.689021    11A     -0.649813    12A     -0.613963
      13A     -0.575285    14A     -0.532447    15A     -0.511459
      16A     -0.468137    17A     -0.438454

  @DF-RHF Final Energy:  -229.02734783181185

   => Energetics <=

    Nuclear Repulsion Energy =            133.3913653500775069
    One-Electron Energy =                -577.8937324535274911
    Two-Electron Energy =                 215.4750192716381036
    Total Energy =                       -229.0273478318118521
  Basis Set: (AUG-CC-PVTZ AUX)
    Blend: AUG-CC-PVTZ-RI
    Molecular point group: c1

    Geometry (in Angstrom), charge = 0, multiplicity = 1:

       Center              X                  Y                   Z               Mass
    ------------   -----------------  -----------------  -----------------  -----------------
         O            1.378465296478    -0.554365686633     0.031574562281    15.994914619570
         O           -1.411276203522    -0.573060286633    -0.042775737719    15.994914619570
         C            0.690864296478     0.658281313367    -0.310563437719    12.000000000000
         C           -0.714240703522     0.625569313367     0.260645562281    12.000000000000
         H            1.245107296478     1.544756313367     0.025843562281     1.007825032230
         H            0.645697296478     0.665329313367    -1.401333437719     1.007825032230
         H           -1.294068703522     1.491162313367    -0.073019437719     1.007825032230
         H           -0.663424703522     0.659607313367     1.362113562281     1.007825032230
         H            1.598194296478    -0.504064686633     0.978056562281     1.007825032230
         H           -0.732433703522    -1.250311686633    -0.119526437719     1.007825032230

  Basis Set: AUG-CC-PVTZ
    Blend: AUG-CC-PVTZ
  Basis Set: (AUG-CC-PVTZ AUX)
    Blend: AUG-CC-PVTZ-JKFIT
	 Reference Energy          =    -229.0273478318118521 [Eh]
	 Singles Energy            =      -0.0000000000000000 [Eh]
	 Same-Spin Energy          =      -0.2165846895878591 [Eh]
	 Opposite-Spin Energy      =      -0.7046485318283667 [Eh]
	 Correlation Energy        =      -0.9212332214162259 [Eh]
	 Total Energy              =    -229.9485810532280823 [Eh]

	 ================> DF-SCS-MP2 Energies <==================
	-----------------------------------------------------------
	 SCS Same-Spin Scale       =       0.3333333333333333 [-]
	 SCS Opposite-Spin Scale   =       1.2000000000000000 [-]
	 SCS Same-Spin Energy      =      -0.0721948965292864 [Eh]
	 SCS Opposite-Spin Energy  =      -0.8455782381940401 [Eh]
	 SCS Correlation Energy    =      -0.9177731347233264 [Eh]
	 SCS Total Energy          =    -229.9451209665351712 [Eh]
	-----------------------------------------------------------

  Dipole Moment: [D]
     X:     1.5049      Y:     1.5728      Z:     1.1462     Total:     2.4601

*** Psi4 exiting successfully. Buy a developer a beer!
