                               Psi4 1.4a3.dev225

  ==> Input File <==

--------------------------------------------------------------------------
#psi4
#
memory 32 gb

molecule  {
0 1
  O        1.3629200    -0.6007480     0.0540100
  O       -1.4102950    -0.5835890    -0.1635680
  C        0.6753190     0.6118990    -0.2881280
  C       -0.7381871     0.5336702     0.2573540
  H        1.2295620     1.4983740     0.0482790
  H        0.6301520     0.6189470    -1.3788980
  H       -1.3096140     1.4447800    -0.0505840
  H       -0.6789700     0.6132250     1.3845490
  H        1.5826490    -0.5504470     1.0004920
  H       -0.7479790    -1.2966940    -0.0970910
units angstrom
no_reorient  #important for SAPT in psi4, default
symmetry c1  #important for SAPT in psi4, default
}

set PROPERTIES_ORIGIN ["COM"]
properties('MP2/aug-cc-pvtz', properties = ['dipole'])
--------------------------------------------------------------------------

    Molecular point group: c1
  Charge       = 0
  Multiplicity = 1
  Basis Set: AUG-CC-PVTZ
    Blend: AUG-CC-PVTZ
  Basis Set: (AUG-CC-PVTZ AUX)
    Blend: AUG-CC-PVTZ-JKFIT

    Orbital Energies [Eh]
    ---------------------

    Doubly Occupied:

       1A    -20.575763     2A    -20.560705     3A    -11.285351
       4A    -11.282177     5A     -1.390492     6A     -1.359662
       7A     -0.998213     8A     -0.848772     9A     -0.710802
      10A     -0.695593    11A     -0.646093    12A     -0.620548
      13A     -0.579335    14A     -0.531013    15A     -0.507999
      16A     -0.467828    17A     -0.433572

  @DF-RHF Final Energy:  -229.02562723315896

   => Energetics <=

    Nuclear Repulsion Energy =            134.1889390839976954
    One-Electron Energy =                -579.4412919206150718
    Two-Electron Energy =                 216.2267256034584193
    Total Energy =                       -229.0256272331589571
  Basis Set: (AUG-CC-PVTZ AUX)
    Blend: AUG-CC-PVTZ-RI
    Molecular point group: c1

    Geometry (in Angstrom), charge = 0, multiplicity = 1:

       Center              X                  Y                   Z               Mass
    ------------   -----------------  -----------------  -----------------  -----------------
         O            1.375829331846    -0.554805323749     0.073479362247    15.994914619570
         O           -1.397385668154    -0.537646323749    -0.144098637753    15.994914619570
         C            0.688228331846     0.657841676251    -0.268658637753    12.000000000000
         C           -0.725277768154     0.579612876251     0.276823362247    12.000000000000
         H            1.242471331846     1.544316676251     0.067748362247     1.007825032230
         H            0.643061331846     0.664889676251    -1.359428637753     1.007825032230
         H           -1.296704668154     1.490722676251    -0.031114637753     1.007825032230
         H           -0.666060668154     0.659167676251     1.404018362247     1.007825032230
         H            1.595558331846    -0.504504323749     1.019961362247     1.007825032230
         H           -0.735069668154    -1.250751323749    -0.077621637753     1.007825032230

  Basis Set: AUG-CC-PVTZ
    Blend: AUG-CC-PVTZ
  Basis Set: (AUG-CC-PVTZ AUX)
    Blend: AUG-CC-PVTZ-JKFIT
	 Reference Energy          =    -229.0256272331589571 [Eh]
	 Singles Energy            =      -0.0000000000000000 [Eh]
	 Same-Spin Energy          =      -0.2169430021571078 [Eh]
	 Opposite-Spin Energy      =      -0.7046578081471659 [Eh]
	 Correlation Energy        =      -0.9216008103042738 [Eh]
	 Total Energy              =    -229.9472280434632410 [Eh]

	 ================> DF-SCS-MP2 Energies <==================
	-----------------------------------------------------------
	 SCS Same-Spin Scale       =       0.3333333333333333 [-]
	 SCS Opposite-Spin Scale   =       1.2000000000000000 [-]
	 SCS Same-Spin Energy      =      -0.0723143340523693 [Eh]
	 SCS Opposite-Spin Energy  =      -0.8455893697765992 [Eh]
	 SCS Correlation Energy    =      -0.9179037038289685 [Eh]
	 SCS Total Energy          =    -229.9435309369879121 [Eh]
	-----------------------------------------------------------

  Dipole Moment: [D]
     X:     1.3470      Y:     1.3329      Z:     1.3833     Total:     2.3462

*** Psi4 exiting successfully. Buy a developer a beer!
