                               Psi4 1.4a3.dev225

  ==> Input File <==

--------------------------------------------------------------------------
#psi4
#
memory 32 gb

molecule  {
0 1
  O        1.3629200    -0.6007480     0.0540100
  O       -1.4166429    -0.5969780    -0.1162926
  C        0.6753190     0.6118990    -0.2881280
  C       -0.7297860     0.5791870     0.2830810
  H        1.2295620     1.4983740     0.0482790
  H        0.6301520     0.6189470    -1.3788980
  H       -1.3096140     1.4447800    -0.0505840
  H       -0.6789700     0.6132250     1.3845490
  H        1.5826490    -0.5504470     1.0004920
  H       -0.7479790    -1.2966940    -0.0970910
units angstrom
no_reorient  #important for SAPT in psi4, default
symmetry c1  #important for SAPT in psi4, default
}

set PROPERTIES_ORIGIN ["COM"]
properties('MP2/aug-cc-pvtz', properties = ['dipole'])
--------------------------------------------------------------------------

    Molecular point group: c1
  Charge       = 0
  Multiplicity = 1
  Basis Set: AUG-CC-PVTZ
    Blend: AUG-CC-PVTZ
  Basis Set: (AUG-CC-PVTZ AUX)
    Blend: AUG-CC-PVTZ-JKFIT

    Orbital Energies [Eh]
    ---------------------

    Doubly Occupied:

       1A    -20.576998     2A    -20.553961     3A    -11.287618
       4A    -11.280296     5A     -1.381106     6A     -1.348323
       7A     -1.002524     8A     -0.851971     9A     -0.706225
      10A     -0.690178    11A     -0.646341    12A     -0.616260
      13A     -0.573080    14A     -0.528635    15A     -0.511154
      16A     -0.471531    17A     -0.438873

  @DF-RHF Final Energy:  -229.02852466855063

   => Energetics <=

    Nuclear Repulsion Energy =            133.5167134624855407
    One-Electron Energy =                -578.1603259048852124
    Two-Electron Energy =                 215.6150877738490408
    Total Energy =                       -229.0285246685506308
  Basis Set: (AUG-CC-PVTZ AUX)
    Blend: AUG-CC-PVTZ-RI
    Molecular point group: c1

    Geometry (in Angstrom), charge = 0, multiplicity = 1:

       Center              X                  Y                   Z               Mass
    ------------   -----------------  -----------------  -----------------  -----------------
         O            1.375840952670    -0.560157724231     0.056313900139    15.994914619570
         O           -1.403721947330    -0.556387724231    -0.113988699861    15.994914619570
         C            0.688239952670     0.652489275769    -0.285824099861    12.000000000000
         C           -0.716865047330     0.619777275769     0.285384900139    12.000000000000
         H            1.242482952670     1.538964275769     0.050582900139     1.007825032230
         H            0.643072952670     0.659537275769    -1.376594099861     1.007825032230
         H           -1.296693047330     1.485370275769    -0.048280099861     1.007825032230
         H           -0.666049047330     0.653815275769     1.386852900139     1.007825032230
         H            1.595569952670    -0.509856724231     1.002795900139     1.007825032230
         H           -0.735058047330    -1.256103724231    -0.094787099861     1.007825032230

  Basis Set: AUG-CC-PVTZ
    Blend: AUG-CC-PVTZ
  Basis Set: (AUG-CC-PVTZ AUX)
    Blend: AUG-CC-PVTZ-JKFIT
	 Reference Energy          =    -229.0285246685506308 [Eh]
	 Singles Energy            =      -0.0000000000000000 [Eh]
	 Same-Spin Energy          =      -0.2166908733855488 [Eh]
	 Opposite-Spin Energy      =      -0.7048525554701066 [Eh]
	 Correlation Energy        =      -0.9215434288556554 [Eh]
	 Total Energy              =    -229.9500680974062732 [Eh]

	 ================> DF-SCS-MP2 Energies <==================
	-----------------------------------------------------------
	 SCS Same-Spin Scale       =       0.3333333333333333 [-]
	 SCS Opposite-Spin Scale   =       1.2000000000000000 [-]
	 SCS Same-Spin Energy      =      -0.0722302911285163 [Eh]
	 SCS Opposite-Spin Energy  =      -0.8458230665641279 [Eh]
	 SCS Correlation Energy    =      -0.9180533576926441 [Eh]
	 SCS Total Energy          =    -229.9465780262432872 [Eh]
	-----------------------------------------------------------

  Dipole Moment: [D]
     X:     1.4497      Y:     1.5210      Z:     1.3671     Total:     2.5068

*** Psi4 exiting successfully. Buy a developer a beer!
