                               Psi4 1.4a3.dev225

  ==> Input File <==

--------------------------------------------------------------------------
#psi4
#
memory 32 gb

molecule  {
0 1
  O        1.3629200    -0.6007480     0.0540100
  O       -1.4102950    -0.5835890    -0.1635680
  C        0.6753190     0.6118990    -0.2881280
  C       -0.8224023     0.5770308     0.3207317
  H        1.2295620     1.4983740     0.0482790
  H        0.6301520     0.6189470    -1.3788980
  H       -1.3096140     1.4447800    -0.0505840
  H       -0.6789700     0.6132250     1.3845490
  H        1.5826490    -0.5504470     1.0004920
  H       -0.7479790    -1.2966940    -0.0970910
units angstrom
no_reorient  #important for SAPT in psi4, default
symmetry c1  #important for SAPT in psi4, default
}

set PROPERTIES_ORIGIN ["COM"]
properties('MP2/aug-cc-pvtz', properties = ['dipole'])
--------------------------------------------------------------------------

    Molecular point group: c1
  Charge       = 0
  Multiplicity = 1
  Basis Set: AUG-CC-PVTZ
    Blend: AUG-CC-PVTZ
  Basis Set: (AUG-CC-PVTZ AUX)
    Blend: AUG-CC-PVTZ-JKFIT

    Orbital Energies [Eh]
    ---------------------

    Doubly Occupied:

       1A    -20.575813     2A    -20.556245     3A    -11.286083
       4A    -11.279422     5A     -1.381083     6A     -1.353910
       7A     -0.982749     8A     -0.857853     9A     -0.706744
      10A     -0.689504    11A     -0.641052    12A     -0.624195
      13A     -0.580538    14A     -0.527971    15A     -0.506839
      16A     -0.477921    17A     -0.418362

  @DF-RHF Final Energy:  -229.02070656330929

   => Energetics <=

    Nuclear Repulsion Energy =            132.8542554227319386
    One-Electron Energy =                -576.8573548664851387
    Two-Electron Energy =                 214.9823928804438822
    Total Energy =                       -229.0207065633092895
  Basis Set: (AUG-CC-PVTZ AUX)
    Blend: AUG-CC-PVTZ-RI
    Molecular point group: c1

    Geometry (in Angstrom), charge = 0, multiplicity = 1:

       Center              X                  Y                   Z               Mass
    ------------   -----------------  -----------------  -----------------  -----------------
         O            1.392119384445    -0.563192722398     0.061219983102    15.994914619570
         O           -1.381095615555    -0.546033722398    -0.156358016898    15.994914619570
         C            0.704518384445     0.649454277602    -0.280918016898    12.000000000000
         C           -0.793202915555     0.614586077602     0.327941683102    12.000000000000
         H            1.258761384445     1.535929277602     0.055488983102     1.007825032230
         H            0.659351384445     0.656502277602    -1.371688016898     1.007825032230
         H           -1.280414615555     1.482335277602    -0.043374016898     1.007825032230
         H           -0.649770615555     0.650780277602     1.391758983102     1.007825032230
         H            1.611848384445    -0.512891722398     1.007701983102     1.007825032230
         H           -0.718779615555    -1.259138722398    -0.089881016898     1.007825032230

  Basis Set: AUG-CC-PVTZ
    Blend: AUG-CC-PVTZ
  Basis Set: (AUG-CC-PVTZ AUX)
    Blend: AUG-CC-PVTZ-JKFIT
	 Reference Energy          =    -229.0207065633092895 [Eh]
	 Singles Energy            =      -0.0000000000000000 [Eh]
	 Same-Spin Energy          =      -0.2165514736708928 [Eh]
	 Opposite-Spin Energy      =      -0.7047886597461037 [Eh]
	 Correlation Energy        =      -0.9213401334169966 [Eh]
	 Total Energy              =    -229.9420466967262939 [Eh]

	 ================> DF-SCS-MP2 Energies <==================
	-----------------------------------------------------------
	 SCS Same-Spin Scale       =       0.3333333333333333 [-]
	 SCS Opposite-Spin Scale   =       1.2000000000000000 [-]
	 SCS Same-Spin Energy      =      -0.0721838245569643 [Eh]
	 SCS Opposite-Spin Energy  =      -0.8457463916953244 [Eh]
	 SCS Correlation Energy    =      -0.9179302162522887 [Eh]
	 SCS Total Energy          =    -229.9386367795615911 [Eh]
	-----------------------------------------------------------

  Dipole Moment: [D]
     X:     1.3062      Y:     1.4056      Z:     1.5089     Total:     2.4410

*** Psi4 exiting successfully. Buy a developer a beer!
