                               Psi4 1.4a3.dev225

  ==> Input File <==

--------------------------------------------------------------------------
#psi4
#
memory 32 gb

molecule  {
0 1
  O        1.3629200    -0.6007480     0.0540100
  O       -1.4102950    -0.5835890    -0.1635680
  C        0.6753190     0.6118990    -0.2881280
  C       -0.5445535     0.5834994     0.2077795
  H        1.2295620     1.4983740     0.0482790
  H        0.6301520     0.6189470    -1.3788980
  H       -1.3096140     1.4447800    -0.0505840
  H       -0.6789700     0.6132250     1.3845490
  H        1.5826490    -0.5504470     1.0004920
  H       -0.7479790    -1.2966940    -0.0970910
units angstrom
no_reorient  #important for SAPT in psi4, default
symmetry c1  #important for SAPT in psi4, default
}

set PROPERTIES_ORIGIN ["COM"]
properties('MP2/aug-cc-pvtz', properties = ['dipole'])
--------------------------------------------------------------------------

    Molecular point group: c1
  Charge       = 0
  Multiplicity = 1
  Basis Set: AUG-CC-PVTZ
    Blend: AUG-CC-PVTZ
  Basis Set: (AUG-CC-PVTZ AUX)
    Blend: AUG-CC-PVTZ-JKFIT

    Orbital Energies [Eh]
    ---------------------

    Doubly Occupied:

       1A    -20.579109     2A    -20.553510     3A    -11.289073
       4A    -11.282095     5A     -1.386727     6A     -1.327998
       7A     -1.059597     8A     -0.832297     9A     -0.713311
      10A     -0.702218    11A     -0.658561    12A     -0.603265
      13A     -0.555262    14A     -0.519500    15A     -0.505824
      16A     -0.483232    17A     -0.436125

  @DF-RHF Final Energy:  -228.97485374745267

   => Energetics <=

    Nuclear Repulsion Energy =            135.1838619559461563
    One-Electron Energy =                -581.3420256909520276
    Two-Electron Energy =                 217.1833099875532014
    Total Energy =                       -228.9748537474526699
  Basis Set: (AUG-CC-PVTZ AUX)
    Blend: AUG-CC-PVTZ-RI
    Molecular point group: c1

    Geometry (in Angstrom), charge = 0, multiplicity = 1:

       Center              X                  Y                   Z               Mass
    ------------   -----------------  -----------------  -----------------  -----------------
         O            1.338374079957    -0.564443967235     0.083068738185    15.994914619570
         O           -1.434840920043    -0.547284967235    -0.134509261815    15.994914619570
         C            0.650773079957     0.648203032765    -0.259069261815    12.000000000000
         C           -0.569099420043     0.619803432765     0.236838238185    12.000000000000
         H            1.205016079957     1.534678032765     0.077337738185     1.007825032230
         H            0.605606079957     0.655251032765    -1.349839261815     1.007825032230
         H           -1.334159920043     1.481084032765    -0.021525261815     1.007825032230
         H           -0.703515920043     0.649529032765     1.413607738185     1.007825032230
         H            1.558103079957    -0.514142967235     1.029550738185     1.007825032230
         H           -0.772524920043    -1.260389967235    -0.068032261815     1.007825032230

  Basis Set: AUG-CC-PVTZ
    Blend: AUG-CC-PVTZ
  Basis Set: (AUG-CC-PVTZ AUX)
    Blend: AUG-CC-PVTZ-JKFIT
	 Reference Energy          =    -228.9748537474526699 [Eh]
	 Singles Energy            =      -0.0000000000000000 [Eh]
	 Same-Spin Energy          =      -0.2202418219562404 [Eh]
	 Opposite-Spin Energy      =      -0.7108732920198469 [Eh]
	 Correlation Energy        =      -0.9311151139760874 [Eh]
	 Total Energy              =    -229.9059688614287609 [Eh]

	 ================> DF-SCS-MP2 Energies <==================
	-----------------------------------------------------------
	 SCS Same-Spin Scale       =       0.3333333333333333 [-]
	 SCS Opposite-Spin Scale   =       1.2000000000000000 [-]
	 SCS Same-Spin Energy      =      -0.0734139406520801 [Eh]
	 SCS Opposite-Spin Energy  =      -0.8530479504238163 [Eh]
	 SCS Correlation Energy    =      -0.9264618910758964 [Eh]
	 SCS Total Energy          =    -229.9013156385285583 [Eh]
	-----------------------------------------------------------

  Dipole Moment: [D]
     X:     1.6296      Y:     1.6354      Z:     1.3952     Total:     2.6975

*** Psi4 exiting successfully. Buy a developer a beer!
