                               Psi4 1.4a3.dev225

  ==> Input File <==

--------------------------------------------------------------------------
#psi4
#
memory 32 gb

molecule  {
0 1
  O        1.3629200    -0.6007480     0.0540100
  O       -1.4102950    -0.5835890    -0.1635680
  C        0.6753190     0.6118990    -0.2881280
  C       -0.6892660     0.5516235     0.2903544
  H        1.2295620     1.4983740     0.0482790
  H        0.6301520     0.6189470    -1.3788980
  H       -1.3096140     1.4447800    -0.0505840
  H       -0.6789700     0.6132250     1.3845490
  H        1.5826490    -0.5504470     1.0004920
  H       -0.7479790    -1.2966940    -0.0970910
units angstrom
no_reorient  #important for SAPT in psi4, default
symmetry c1  #important for SAPT in psi4, default
}

set PROPERTIES_ORIGIN ["COM"]
properties('MP2/aug-cc-pvtz', properties = ['dipole'])
--------------------------------------------------------------------------

    Molecular point group: c1
  Charge       = 0
  Multiplicity = 1
  Basis Set: AUG-CC-PVTZ
    Blend: AUG-CC-PVTZ
  Basis Set: (AUG-CC-PVTZ AUX)
    Blend: AUG-CC-PVTZ-JKFIT

    Orbital Energies [Eh]
    ---------------------

    Doubly Occupied:

       1A    -20.575946     2A    -20.556796     3A    -11.286038
       4A    -11.281365     5A     -1.382706     6A     -1.348617
       7A     -1.007950     8A     -0.847792     9A     -0.706823
      10A     -0.693474    11A     -0.649071    12A     -0.612742
      13A     -0.569571    14A     -0.526978    15A     -0.509369
      16A     -0.470026    17A     -0.444683

  @DF-RHF Final Energy:  -229.02470873960280

   => Energetics <=

    Nuclear Repulsion Energy =            134.0427117733395903
    One-Electron Energy =                -579.1949432333927916
    Two-Electron Energy =                 216.1275227204504006
    Total Energy =                       -229.0247087396028007
  Basis Set: (AUG-CC-PVTZ AUX)
    Blend: AUG-CC-PVTZ-RI
    Molecular point group: c1

    Geometry (in Angstrom), charge = 0, multiplicity = 1:

       Center              X                  Y                   Z               Mass
    ------------   -----------------  -----------------  -----------------  -----------------
         O            1.366366345447    -0.558278095901     0.067095974785    15.994914619570
         O           -1.406848654553    -0.541119095901    -0.150482025215    15.994914619570
         C            0.678765345447     0.654368904099    -0.275042025215    12.000000000000
         C           -0.685819654553     0.594093404099     0.303440374785    12.000000000000
         H            1.233008345447     1.540843904099     0.061364974785     1.007825032230
         H            0.633598345447     0.661416904099    -1.365812025215     1.007825032230
         H           -1.306167654553     1.487249904099    -0.037498025215     1.007825032230
         H           -0.675523654553     0.655694904099     1.397634974785     1.007825032230
         H            1.586095345447    -0.507977095901     1.013577974785     1.007825032230
         H           -0.744532654553    -1.254224095901    -0.084005025215     1.007825032230

  Basis Set: AUG-CC-PVTZ
    Blend: AUG-CC-PVTZ
  Basis Set: (AUG-CC-PVTZ AUX)
    Blend: AUG-CC-PVTZ-JKFIT
	 Reference Energy          =    -229.0247087396028007 [Eh]
	 Singles Energy            =      -0.0000000000000000 [Eh]
	 Same-Spin Energy          =      -0.2172055108824632 [Eh]
	 Opposite-Spin Energy      =      -0.7056817470251058 [Eh]
	 Correlation Energy        =      -0.9228872579075690 [Eh]
	 Total Energy              =    -229.9475959975103763 [Eh]

	 ================> DF-SCS-MP2 Energies <==================
	-----------------------------------------------------------
	 SCS Same-Spin Scale       =       0.3333333333333333 [-]
	 SCS Opposite-Spin Scale   =       1.2000000000000000 [-]
	 SCS Same-Spin Energy      =      -0.0724018369608211 [Eh]
	 SCS Opposite-Spin Energy  =      -0.8468180964301270 [Eh]
	 SCS Correlation Energy    =      -0.9192199333909480 [Eh]
	 SCS Total Energy          =    -229.9439286729937351 [Eh]
	-----------------------------------------------------------

  Dipole Moment: [D]
     X:     1.4500      Y:     1.4540      Z:     1.4805     Total:     2.5315

*** Psi4 exiting successfully. Buy a developer a beer!
