                               Psi4 1.4a3.dev225

  ==> Input File <==

--------------------------------------------------------------------------
#psi4
#
memory 32 gb

molecule  {
0 1
  O        1.3580968    -0.5887882     0.1024242
  O       -1.4102950    -0.5835890    -0.1635680
  C        0.6753190     0.6118990    -0.2881280
  C       -0.7297860     0.5791870     0.2830810
  H        1.2295620     1.4983740     0.0482790
  H        0.6301520     0.6189470    -1.3788980
  H       -1.3096140     1.4447800    -0.0505840
  H       -0.6789700     0.6132250     1.3845490
  H        1.5826490    -0.5504470     1.0004920
  H       -0.7479790    -1.2966940    -0.0970910
units angstrom
no_reorient  #important for SAPT in psi4, default
symmetry c1  #important for SAPT in psi4, default
}

set PROPERTIES_ORIGIN ["COM"]
properties('MP2/aug-cc-pvtz', properties = ['dipole'])
--------------------------------------------------------------------------

    Molecular point group: c1
  Charge       = 0
  Multiplicity = 1
  Basis Set: AUG-CC-PVTZ
    Blend: AUG-CC-PVTZ
  Basis Set: (AUG-CC-PVTZ AUX)
    Blend: AUG-CC-PVTZ-JKFIT

    Orbital Energies [Eh]
    ---------------------

    Doubly Occupied:

       1A    -20.570370     2A    -20.554965     3A    -11.287681
       4A    -11.279811     5A     -1.387188     6A     -1.349590
       7A     -1.004355     8A     -0.854974     9A     -0.709111
      10A     -0.693626    11A     -0.648934    12A     -0.615160
      13A     -0.574509    14A     -0.527861    15A     -0.509335
      16A     -0.473239    17A     -0.438516

  @DF-RHF Final Energy:  -229.02894756705999

   => Energetics <=

    Nuclear Repulsion Energy =            133.8555178074186358
    One-Electron Energy =                -578.8104805351247251
    Two-Electron Energy =                 215.9260151606460738
    Total Energy =                       -229.0289475670599870
  Basis Set: (AUG-CC-PVTZ AUX)
    Blend: AUG-CC-PVTZ-RI
    Molecular point group: c1

    Geometry (in Angstrom), charge = 0, multiplicity = 1:

       Center              X                  Y                   Z               Mass
    ------------   -----------------  -----------------  -----------------  -----------------
         O            1.370624639963    -0.554733593804     0.104434483854    15.994914619570
         O           -1.397767160037    -0.549534393804    -0.161557716146    15.994914619570
         C            0.687846839963     0.645953606196    -0.286117716146    12.000000000000
         C           -0.717258160037     0.613241606196     0.285091283854    12.000000000000
         H            1.242089839963     1.532428606196     0.050289283854     1.007825032230
         H            0.642679839963     0.653001606196    -1.376887716146     1.007825032230
         H           -1.297086160037     1.478834606196    -0.048573716146     1.007825032230
         H           -0.666442160037     0.647279606196     1.386559283854     1.007825032230
         H            1.595176839963    -0.516392393804     1.002502283854     1.007825032230
         H           -0.735451160037    -1.262639393804    -0.095080716146     1.007825032230

  Basis Set: AUG-CC-PVTZ
    Blend: AUG-CC-PVTZ
  Basis Set: (AUG-CC-PVTZ AUX)
    Blend: AUG-CC-PVTZ-JKFIT
	 Reference Energy          =    -229.0289475670599870 [Eh]
	 Singles Energy            =      -0.0000000000000000 [Eh]
	 Same-Spin Energy          =      -0.2161935965873016 [Eh]
	 Opposite-Spin Energy      =      -0.7035119101790894 [Eh]
	 Correlation Energy        =      -0.9197055067663911 [Eh]
	 Total Energy              =    -229.9486530738263923 [Eh]

	 ================> DF-SCS-MP2 Energies <==================
	-----------------------------------------------------------
	 SCS Same-Spin Scale       =       0.3333333333333333 [-]
	 SCS Opposite-Spin Scale   =       1.2000000000000000 [-]
	 SCS Same-Spin Energy      =      -0.0720645321957672 [Eh]
	 SCS Opposite-Spin Energy  =      -0.8442142922149073 [Eh]
	 SCS Correlation Energy    =      -0.9162788244106744 [Eh]
	 SCS Total Energy          =    -229.9452263914706691 [Eh]
	-----------------------------------------------------------

  Dipole Moment: [D]
     X:     1.4250      Y:     1.4915      Z:     1.4022     Total:     2.4942

*** Psi4 exiting successfully. Buy a developer a beer!
