                               Psi4 1.4a3.dev225

  ==> Input File <==

--------------------------------------------------------------------------
#psi4
#
memory 32 gb

molecule  {
0 1
  O        1.3629200    -0.6007480     0.0540100
  O       -1.4102950    -0.5835890    -0.1635680
  C        0.6753190     0.6118990    -0.2881280
  C       -0.6496244     0.5226769     0.2970748
  H        1.2295620     1.4983740     0.0482790
  H        0.6301520     0.6189470    -1.3788980
  H       -1.3096140     1.4447800    -0.0505840
  H       -0.6789700     0.6132250     1.3845490
  H        1.5826490    -0.5504470     1.0004920
  H       -0.7479790    -1.2966940    -0.0970910
units angstrom
no_reorient  #important for SAPT in psi4, default
symmetry c1  #important for SAPT in psi4, default
}

set PROPERTIES_ORIGIN ["COM"]
properties('MP2/aug-cc-pvtz', properties = ['dipole'])
--------------------------------------------------------------------------

    Molecular point group: c1
  Charge       = 0
  Multiplicity = 1
  Basis Set: AUG-CC-PVTZ
    Blend: AUG-CC-PVTZ
  Basis Set: (AUG-CC-PVTZ AUX)
    Blend: AUG-CC-PVTZ-JKFIT

    Orbital Energies [Eh]
    ---------------------

    Doubly Occupied:

       1A    -20.575269     2A    -20.558841     3A    -11.285616
       4A    -11.283120     5A     -1.385117     6A     -1.350126
       7A     -1.014726     8A     -0.844974     9A     -0.707797
      10A     -0.696859    11A     -0.653238    12A     -0.610697
      13A     -0.569736    14A     -0.527140    15A     -0.507136
      16A     -0.464824    17A     -0.448619

  @DF-RHF Final Energy:  -229.01608317647958

   => Energetics <=

    Nuclear Repulsion Energy =            134.5243983835440531
    One-Electron Energy =                -580.1132888751736800
    Two-Electron Energy =                 216.5728073151500439
    Total Energy =                       -229.0160831764795830
  Basis Set: (AUG-CC-PVTZ AUX)
    Blend: AUG-CC-PVTZ-RI
    Molecular point group: c1

    Geometry (in Angstrom), charge = 0, multiplicity = 1:

       Center              X                  Y                   Z               Mass
    ------------   -----------------  -----------------  -----------------  -----------------
         O            1.358698326502    -0.552678849725     0.065796023357    15.994914619570
         O           -1.414516673498    -0.535519849725    -0.151781976643    15.994914619570
         C            0.671097326502     0.659968150275    -0.276341976643    12.000000000000
         C           -0.653846073498     0.570746050275     0.308860823357    12.000000000000
         H            1.225340326502     1.546443150275     0.060065023357     1.007825032230
         H            0.625930326502     0.667016150275    -1.367111976643     1.007825032230
         H           -1.313835673498     1.492849150275    -0.038797976643     1.007825032230
         H           -0.683191673498     0.661294150275     1.396335023357     1.007825032230
         H            1.578427326502    -0.502377849725     1.012278023357     1.007825032230
         H           -0.752200673498    -1.248624849725    -0.085304976643     1.007825032230

  Basis Set: AUG-CC-PVTZ
    Blend: AUG-CC-PVTZ
  Basis Set: (AUG-CC-PVTZ AUX)
    Blend: AUG-CC-PVTZ-JKFIT
	 Reference Energy          =    -229.0160831764795830 [Eh]
	 Singles Energy            =      -0.0000000000000000 [Eh]
	 Same-Spin Energy          =      -0.2177292733318680 [Eh]
	 Opposite-Spin Energy      =      -0.7065329137280589 [Eh]
	 Correlation Energy        =      -0.9242621870599269 [Eh]
	 Total Energy              =    -229.9403453635395067 [Eh]

	 ================> DF-SCS-MP2 Energies <==================
	-----------------------------------------------------------
	 SCS Same-Spin Scale       =       0.3333333333333333 [-]
	 SCS Opposite-Spin Scale   =       1.2000000000000000 [-]
	 SCS Same-Spin Energy      =      -0.0725764244439560 [Eh]
	 SCS Opposite-Spin Energy  =      -0.8478394964736707 [Eh]
	 SCS Correlation Energy    =      -0.9204159209176267 [Eh]
	 SCS Total Energy          =    -229.9364990973972169 [Eh]
	-----------------------------------------------------------

  Dipole Moment: [D]
     X:     1.4878      Y:     1.4085      Z:     1.4842     Total:     2.5299

*** Psi4 exiting successfully. Buy a developer a beer!
