                               Psi4 1.4a3.dev225

  ==> Input File <==

--------------------------------------------------------------------------
#psi4
#
memory 32 gb

molecule  {
0 1
  O        1.3629200    -0.6007480     0.0540100
  O       -1.4102950    -0.5835890    -0.1635680
  C        0.6753190     0.6118990    -0.2881280
  C       -0.6943627     0.7157544     0.3559652
  H        1.2295620     1.4983740     0.0482790
  H        0.6301520     0.6189470    -1.3788980
  H       -1.3096140     1.4447800    -0.0505840
  H       -0.6789700     0.6132250     1.3845490
  H        1.5826490    -0.5504470     1.0004920
  H       -0.7479790    -1.2966940    -0.0970910
units angstrom
no_reorient  #important for SAPT in psi4, default
symmetry c1  #important for SAPT in psi4, default
}

set PROPERTIES_ORIGIN ["COM"]
properties('MP2/aug-cc-pvtz', properties = ['dipole'])
--------------------------------------------------------------------------

    Molecular point group: c1
  Charge       = 0
  Multiplicity = 1
  Basis Set: AUG-CC-PVTZ
    Blend: AUG-CC-PVTZ
  Basis Set: (AUG-CC-PVTZ AUX)
    Blend: AUG-CC-PVTZ-JKFIT

    Orbital Energies [Eh]
    ---------------------

    Doubly Occupied:

       1A    -20.580277     2A    -20.538907     3A    -11.292577
       4A    -11.281850     5A     -1.376430     6A     -1.300264
       7A     -1.014136     8A     -0.861268     9A     -0.704123
      10A     -0.684895    11A     -0.643212    12A     -0.603893
      13A     -0.567492    14A     -0.522082    15A     -0.504231
      16A     -0.472455    17A     -0.440710

  @DF-RHF Final Energy:  -229.00521762115764

   => Energetics <=

    Nuclear Repulsion Energy =            131.8839780567420803
    One-Electron Energy =                -575.0007854158586724
    Two-Electron Energy =                 214.1115897379589512
    Total Energy =                       -229.0052176211576409
  Basis Set: (AUG-CC-PVTZ AUX)
    Blend: AUG-CC-PVTZ-RI
    Molecular point group: c1

    Geometry (in Angstrom), charge = 0, multiplicity = 1:

       Center              X                  Y                   Z               Mass
    ------------   -----------------  -----------------  -----------------  -----------------
         O            1.367352218675    -0.590026533167     0.054404638981    15.994914619570
         O           -1.405862781325    -0.572867533167    -0.163173361019    15.994914619570
         C            0.679751218675     0.622620466833    -0.287733361019    12.000000000000
         C           -0.689930481325     0.726475866833     0.356359838981    12.000000000000
         H            1.233994218675     1.509095466833     0.048673638981     1.007825032230
         H            0.634584218675     0.629668466833    -1.378503361019     1.007825032230
         H           -1.305181781325     1.455501466833    -0.050189361019     1.007825032230
         H           -0.674537781325     0.623946466833     1.384943638981     1.007825032230
         H            1.587081218675    -0.539725533167     1.000886638981     1.007825032230
         H           -0.743546781325    -1.285972533167    -0.096696361019     1.007825032230

  Basis Set: AUG-CC-PVTZ
    Blend: AUG-CC-PVTZ
  Basis Set: (AUG-CC-PVTZ AUX)
    Blend: AUG-CC-PVTZ-JKFIT
	 Reference Energy          =    -229.0052176211576409 [Eh]
	 Singles Energy            =      -0.0000000000000000 [Eh]
	 Same-Spin Energy          =      -0.2173960412602027 [Eh]
	 Opposite-Spin Energy      =      -0.7085158334694143 [Eh]
	 Correlation Energy        =      -0.9259118747296169 [Eh]
	 Total Energy              =    -229.9311294958872622 [Eh]

	 ================> DF-SCS-MP2 Energies <==================
	-----------------------------------------------------------
	 SCS Same-Spin Scale       =       0.3333333333333333 [-]
	 SCS Opposite-Spin Scale   =       1.2000000000000000 [-]
	 SCS Same-Spin Energy      =      -0.0724653470867342 [Eh]
	 SCS Opposite-Spin Energy  =      -0.8502190001632971 [Eh]
	 SCS Correlation Energy    =      -0.9226843472500313 [Eh]
	 SCS Total Energy          =    -229.9279019684076673 [Eh]
	-----------------------------------------------------------

  Dipole Moment: [D]
     X:     1.6121      Y:     1.8688      Z:     1.6660     Total:     2.9777

*** Psi4 exiting successfully. Buy a developer a beer!
