                               Psi4 1.4a3.dev225

  ==> Input File <==

--------------------------------------------------------------------------
#psi4
#
memory 32 gb

molecule  {
0 1
  O        1.3629200    -0.6007480     0.0540100
  O       -1.4102950    -0.5835890    -0.1635680
  C        0.6274158     0.6963806    -0.3119638
  C       -0.7297860     0.5791870     0.2830810
  H        1.2295620     1.4983740     0.0482790
  H        0.6301520     0.6189470    -1.3788980
  H       -1.3096140     1.4447800    -0.0505840
  H       -0.6789700     0.6132250     1.3845490
  H        1.5826490    -0.5504470     1.0004920
  H       -0.7479790    -1.2966940    -0.0970910
units angstrom
no_reorient  #important for SAPT in psi4, default
symmetry c1  #important for SAPT in psi4, default
}

set PROPERTIES_ORIGIN ["COM"]
properties('MP2/aug-cc-pvtz', properties = ['dipole'])
--------------------------------------------------------------------------

    Molecular point group: c1
  Charge       = 0
  Multiplicity = 1
  Basis Set: AUG-CC-PVTZ
    Blend: AUG-CC-PVTZ
  Basis Set: (AUG-CC-PVTZ AUX)
    Blend: AUG-CC-PVTZ-JKFIT

    Orbital Energies [Eh]
    ---------------------

    Doubly Occupied:

       1A    -20.565235     2A    -20.557545     3A    -11.288735
       4A    -11.283436     5A     -1.366217     6A     -1.328617
       7A     -1.016101     8A     -0.852440     9A     -0.701169
      10A     -0.686288    11A     -0.640739    12A     -0.609756
      13A     -0.565561    14A     -0.528161    15A     -0.504443
      16A     -0.473517    17A     -0.449821

  @DF-RHF Final Energy:  -229.01859457437405

   => Energetics <=

    Nuclear Repulsion Energy =            132.7699326174322323
    One-Electron Energy =                -576.7414941078137645
    Two-Electron Energy =                 214.9529669160074832
    Total Energy =                       -229.0185945743740490
  Basis Set: (AUG-CC-PVTZ AUX)
    Blend: AUG-CC-PVTZ-RI
    Molecular point group: c1

    Geometry (in Angstrom), charge = 0, multiplicity = 1:

       Center              X                  Y                   Z               Mass
    ------------   -----------------  -----------------  -----------------  -----------------
         O            1.383470366799    -0.579951387330     0.073113540549    15.994914619570
         O           -1.389744633201    -0.562792387330    -0.144464459451    15.994914619570
         C            0.647966166799     0.717177212670    -0.292860259451    12.000000000000
         C           -0.709235633201     0.599983612670     0.302184540549    12.000000000000
         H            1.250112366799     1.519170612670     0.067382540549     1.007825032230
         H            0.650702366799     0.639743612670    -1.359794459451     1.007825032230
         H           -1.289063633201     1.465576612670    -0.031480459451     1.007825032230
         H           -0.658419633201     0.634021612670     1.403652540549     1.007825032230
         H            1.603199366799    -0.529650387330     1.019595540549     1.007825032230
         H           -0.727428633201    -1.275897387330    -0.077987459451     1.007825032230

  Basis Set: AUG-CC-PVTZ
    Blend: AUG-CC-PVTZ
  Basis Set: (AUG-CC-PVTZ AUX)
    Blend: AUG-CC-PVTZ-JKFIT
	 Reference Energy          =    -229.0185945743740490 [Eh]
	 Singles Energy            =      -0.0000000000000000 [Eh]
	 Same-Spin Energy          =      -0.2173588119459162 [Eh]
	 Opposite-Spin Energy      =      -0.7071957845907888 [Eh]
	 Correlation Energy        =      -0.9245545965367050 [Eh]
	 Total Energy              =    -229.9431491709107434 [Eh]

	 ================> DF-SCS-MP2 Energies <==================
	-----------------------------------------------------------
	 SCS Same-Spin Scale       =       0.3333333333333333 [-]
	 SCS Opposite-Spin Scale   =       1.2000000000000000 [-]
	 SCS Same-Spin Energy      =      -0.0724529373153054 [Eh]
	 SCS Opposite-Spin Energy  =      -0.8486349415089466 [Eh]
	 SCS Correlation Energy    =      -0.9210878788242520 [Eh]
	 SCS Total Energy          =    -229.9396824531982872 [Eh]
	-----------------------------------------------------------

  Dipole Moment: [D]
     X:     1.2294      Y:     1.7535      Z:     1.3912     Total:     2.5537

*** Psi4 exiting successfully. Buy a developer a beer!
