                               Psi4 1.4a3.dev225

  ==> Input File <==

--------------------------------------------------------------------------
#psi4
#
memory 32 gb

molecule  {
0 1
  O        1.3629200    -0.6007480     0.0540100
  O       -1.4102950    -0.5835890    -0.1635680
  C        0.6753190     0.6118990    -0.2881280
  C       -0.7297860     0.5791870     0.2830810
  H        1.2295620     1.4983740     0.0482790
  H        0.6301520     0.6189470    -1.3788980
  H       -1.3202144     1.4606047    -0.0566840
  H       -0.6789700     0.6132250     1.3845490
  H        1.5826490    -0.5504470     1.0004920
  H       -0.7479790    -1.2966940    -0.0970910
units angstrom
no_reorient  #important for SAPT in psi4, default
symmetry c1  #important for SAPT in psi4, default
}

set PROPERTIES_ORIGIN ["COM"]
properties('MP2/aug-cc-pvtz', properties = ['dipole'])
--------------------------------------------------------------------------

    Molecular point group: c1
  Charge       = 0
  Multiplicity = 1
  Basis Set: AUG-CC-PVTZ
    Blend: AUG-CC-PVTZ
  Basis Set: (AUG-CC-PVTZ AUX)
    Blend: AUG-CC-PVTZ-JKFIT

    Orbital Energies [Eh]
    ---------------------

    Doubly Occupied:

       1A    -20.576933     2A    -20.555415     3A    -11.286778
       4A    -11.282775     5A     -1.380914     6A     -1.347582
       7A     -1.000896     8A     -0.849652     9A     -0.705823
      10A     -0.690461    11A     -0.645031    12A     -0.615168
      13A     -0.571038    14A     -0.526462    15A     -0.510423
      16A     -0.472929    17A     -0.438762

  @DF-RHF Final Energy:  -229.02753120663243

   => Energetics <=

    Nuclear Repulsion Energy =            133.4777083227236005
    One-Electron Energy =                -578.0963976337275199
    Two-Electron Energy =                 215.5911581043714591
    Total Energy =                       -229.0275312066324318
  Basis Set: (AUG-CC-PVTZ AUX)
    Blend: AUG-CC-PVTZ-RI
    Molecular point group: c1

    Geometry (in Angstrom), charge = 0, multiplicity = 1:

       Center              X                  Y                   Z               Mass
    ------------   -----------------  -----------------  -----------------  -----------------
         O            1.374376486415    -0.563866885840     0.068601993207    15.994914619570
         O           -1.398838513585    -0.546707885840    -0.148976006793    15.994914619570
         C            0.686775486415     0.648780114160    -0.273536006793    12.000000000000
         C           -0.718329513585     0.616068114160     0.297672993207    12.000000000000
         H            1.241018486415     1.535255114160     0.062870993207     1.007825032230
         H            0.641608486415     0.655828114160    -1.364306006793     1.007825032230
         H           -1.308757913585     1.497485814160    -0.042092006793     1.007825032230
         H           -0.667513513585     0.650106114160     1.399140993207     1.007825032230
         H            1.594105486415    -0.513565885840     1.015083993207     1.007825032230
         H           -0.736522513585    -1.259812885840    -0.082499006793     1.007825032230

  Basis Set: AUG-CC-PVTZ
    Blend: AUG-CC-PVTZ
  Basis Set: (AUG-CC-PVTZ AUX)
    Blend: AUG-CC-PVTZ-JKFIT
	 Reference Energy          =    -229.0275312066324318 [Eh]
	 Singles Energy            =      -0.0000000000000000 [Eh]
	 Same-Spin Energy          =      -0.2168456461977971 [Eh]
	 Opposite-Spin Energy      =      -0.7052960314630154 [Eh]
	 Correlation Energy        =      -0.9221416776608126 [Eh]
	 Total Energy              =    -229.9496728842932498 [Eh]

	 ================> DF-SCS-MP2 Energies <==================
	-----------------------------------------------------------
	 SCS Same-Spin Scale       =       0.3333333333333333 [-]
	 SCS Opposite-Spin Scale   =       1.2000000000000000 [-]
	 SCS Same-Spin Energy      =      -0.0722818820659324 [Eh]
	 SCS Opposite-Spin Energy  =      -0.8463552377556185 [Eh]
	 SCS Correlation Energy    =      -0.9186371198215508 [Eh]
	 SCS Total Energy          =    -229.9461683264539715 [Eh]
	-----------------------------------------------------------

  Dipole Moment: [D]
     X:     1.4201      Y:     1.4762      Z:     1.4749     Total:     2.5241

*** Psi4 exiting successfully. Buy a developer a beer!
