                               Psi4 1.4a3.dev225

  ==> Input File <==

--------------------------------------------------------------------------
#psi4
#
memory 32 gb

molecule  {
0 1
  O        1.3629200    -0.6007480     0.0540100
  O       -1.4102950    -0.5835890    -0.1635680
  C        0.6753190     0.6118990    -0.2881280
  C       -0.7297860     0.5791870     0.2830810
  H        1.2295620     1.4983740     0.0482790
  H        0.6301520     0.6189470    -1.3788980
  H       -1.3096140     1.4447800    -0.0505840
  H       -0.6789700     0.6132250     1.3845490
  H        1.5826490    -0.5504470     1.0004920
  H       -0.8837690    -1.1504910    -0.1107203
units angstrom
no_reorient  #important for SAPT in psi4, default
symmetry c1  #important for SAPT in psi4, default
}

set PROPERTIES_ORIGIN ["COM"]
properties('MP2/aug-cc-pvtz', properties = ['dipole'])
--------------------------------------------------------------------------

    Molecular point group: c1
  Charge       = 0
  Multiplicity = 1
  Basis Set: AUG-CC-PVTZ
    Blend: AUG-CC-PVTZ
  Basis Set: (AUG-CC-PVTZ AUX)
    Blend: AUG-CC-PVTZ-JKFIT

    Orbital Energies [Eh]
    ---------------------

    Doubly Occupied:

       1A    -20.575009     2A    -20.536648     3A    -11.287729
       4A    -11.283227     5A     -1.422805     6A     -1.366607
       7A     -1.013340     8A     -0.866833     9A     -0.731015
      10A     -0.694485    11A     -0.648167    12A     -0.627340
      13A     -0.576608    14A     -0.539056    15A     -0.512931
      16A     -0.476669    17A     -0.443768

  @DF-RHF Final Energy:  -228.98297545432953

   => Energetics <=

    Nuclear Repulsion Energy =            134.7724951255246708
    One-Electron Energy =                -580.3064667771691347
    Two-Electron Energy =                 216.5509961973149586
    Total Energy =                       -228.9829754543295337
  Basis Set: (AUG-CC-PVTZ AUX)
    Blend: AUG-CC-PVTZ-RI
    Molecular point group: c1

    Geometry (in Angstrom), charge = 0, multiplicity = 1:

       Center              X                  Y                   Z               Mass
    ------------   -----------------  -----------------  -----------------  -----------------
         O            1.376410267244    -0.565984960241     0.068724311243    15.994914619570
         O           -1.396804732756    -0.548825960241    -0.148853688757    15.994914619570
         C            0.688809267244     0.646662039759    -0.273413688757    12.000000000000
         C           -0.716295732756     0.613950039759     0.297795311243    12.000000000000
         H            1.243052267244     1.533137039759     0.062993311243     1.007825032230
         H            0.643642267244     0.653710039759    -1.364183688757     1.007825032230
         H           -1.296123732756     1.479543039759    -0.035869688757     1.007825032230
         H           -0.665479732756     0.647988039759     1.399263311243     1.007825032230
         H            1.596139267244    -0.515683960241     1.015206311243     1.007825032230
         H           -0.870278732756    -1.115727960241    -0.096005988757     1.007825032230

  Basis Set: AUG-CC-PVTZ
    Blend: AUG-CC-PVTZ
  Basis Set: (AUG-CC-PVTZ AUX)
    Blend: AUG-CC-PVTZ-JKFIT
	 Reference Energy          =    -228.9829754543295337 [Eh]
	 Singles Energy            =      -0.0000000000000000 [Eh]
	 Same-Spin Energy          =      -0.2143669683663316 [Eh]
	 Opposite-Spin Energy      =      -0.6996924327156284 [Eh]
	 Correlation Energy        =      -0.9140594010819600 [Eh]
	 Total Energy              =    -229.8970348554115049 [Eh]

	 ================> DF-SCS-MP2 Energies <==================
	-----------------------------------------------------------
	 SCS Same-Spin Scale       =       0.3333333333333333 [-]
	 SCS Opposite-Spin Scale   =       1.2000000000000000 [-]
	 SCS Same-Spin Energy      =      -0.0714556561221105 [Eh]
	 SCS Opposite-Spin Energy  =      -0.8396309192587541 [Eh]
	 SCS Correlation Energy    =      -0.9110865753808647 [Eh]
	 SCS Total Energy          =    -229.8940620297103976 [Eh]
	-----------------------------------------------------------

  Dipole Moment: [D]
     X:     1.2888      Y:     1.6559      Z:     1.4815     Total:     2.5687

*** Psi4 exiting successfully. Buy a developer a beer!
