                               Psi4 1.4a3.dev225

  ==> Input File <==

--------------------------------------------------------------------------
#psi4
#
memory 32 gb

molecule  {
0 1
  O        1.3629200    -0.6007480     0.0540100
  O       -1.4102950    -0.5835890    -0.1635680
  C        0.6753190     0.6118990    -0.2881280
  C       -0.7760941     0.5781089     0.3019064
  H        1.2295620     1.4983740     0.0482790
  H        0.6301520     0.6189470    -1.3788980
  H       -1.3096140     1.4447800    -0.0505840
  H       -0.6789700     0.6132250     1.3845490
  H        1.5826490    -0.5504470     1.0004920
  H       -0.7479790    -1.2966940    -0.0970910
units angstrom
no_reorient  #important for SAPT in psi4, default
symmetry c1  #important for SAPT in psi4, default
}

set PROPERTIES_ORIGIN ["COM"]
properties('MP2/aug-cc-pvtz', properties = ['dipole'])
--------------------------------------------------------------------------

    Molecular point group: c1
  Charge       = 0
  Multiplicity = 1
  Basis Set: AUG-CC-PVTZ
    Blend: AUG-CC-PVTZ
  Basis Set: (AUG-CC-PVTZ AUX)
    Blend: AUG-CC-PVTZ-JKFIT

    Orbital Energies [Eh]
    ---------------------

    Doubly Occupied:

       1A    -20.576252     2A    -20.555594     3A    -11.286551
       4A    -11.279505     5A     -1.380559     6A     -1.351008
       7A     -0.991475     8A     -0.854700     9A     -0.705724
      10A     -0.689918    11A     -0.642431    12A     -0.620491
      13A     -0.576785    14A     -0.527389    15A     -0.508869
      16A     -0.475325    17A     -0.429747

  @DF-RHF Final Energy:  -229.02650389933996

   => Energetics <=

    Nuclear Repulsion Energy =            133.2086755321543876
    One-Electron Energy =                -577.5657122418024301
    Two-Electron Energy =                 215.3305328103080569
    Total Energy =                       -229.0265038993399571
  Basis Set: (AUG-CC-PVTZ AUX)
    Blend: AUG-CC-PVTZ-RI
    Molecular point group: c1

    Geometry (in Angstrom), charge = 0, multiplicity = 1:

       Center              X                  Y                   Z               Mass
    ------------   -----------------  -----------------  -----------------  -----------------
         O            1.383161820801    -0.563401263204     0.064861429387    15.994914619570
         O           -1.390053179199    -0.546242263204    -0.152716570613    15.994914619570
         C            0.695560820801     0.649245736796    -0.277276570613    12.000000000000
         C           -0.755852279199     0.615455636796     0.312757829387    12.000000000000
         H            1.249803820801     1.535720736796     0.059130429387     1.007825032230
         H            0.650393820801     0.656293736796    -1.368046570613     1.007825032230
         H           -1.289372179199     1.482126736796    -0.039732570613     1.007825032230
         H           -0.658728179199     0.650571736796     1.395400429387     1.007825032230
         H            1.602890820801    -0.513100263204     1.011343429387     1.007825032230
         H           -0.727737179199    -1.259347263204    -0.086239570613     1.007825032230

  Basis Set: AUG-CC-PVTZ
    Blend: AUG-CC-PVTZ
  Basis Set: (AUG-CC-PVTZ AUX)
    Blend: AUG-CC-PVTZ-JKFIT
	 Reference Energy          =    -229.0265038993399571 [Eh]
	 Singles Energy            =      -0.0000000000000000 [Eh]
	 Same-Spin Energy          =      -0.2165900747079657 [Eh]
	 Opposite-Spin Energy      =      -0.7047859004176320 [Eh]
	 Correlation Energy        =      -0.9213759751255977 [Eh]
	 Total Energy              =    -229.9478798744655421 [Eh]

	 ================> DF-SCS-MP2 Energies <==================
	-----------------------------------------------------------
	 SCS Same-Spin Scale       =       0.3333333333333333 [-]
	 SCS Opposite-Spin Scale   =       1.2000000000000000 [-]
	 SCS Same-Spin Energy      =      -0.0721966915693219 [Eh]
	 SCS Opposite-Spin Energy  =      -0.8457430805011584 [Eh]
	 SCS Correlation Energy    =      -0.9179397720704803 [Eh]
	 SCS Total Energy          =    -229.9444436714104256 [Eh]
	-----------------------------------------------------------

  Dipole Moment: [D]
     X:     1.3607      Y:     1.4484      Z:     1.4918     Total:     2.4849

*** Psi4 exiting successfully. Buy a developer a beer!
