                               Psi4 1.4a3.dev225

  ==> Input File <==

--------------------------------------------------------------------------
#psi4
#
memory 32 gb

molecule  {
0 1
  O        1.3629200    -0.6007480     0.0540100
  O       -1.4102950    -0.5835890    -0.1635680
  C        0.6753190     0.6118990    -0.2881280
  C       -0.7078604     0.6702846     0.3324166
  H        1.2295620     1.4983740     0.0482790
  H        0.6301520     0.6189470    -1.3788980
  H       -1.3096140     1.4447800    -0.0505840
  H       -0.6789700     0.6132250     1.3845490
  H        1.5826490    -0.5504470     1.0004920
  H       -0.7479790    -1.2966940    -0.0970910
units angstrom
no_reorient  #important for SAPT in psi4, default
symmetry c1  #important for SAPT in psi4, default
}

set PROPERTIES_ORIGIN ["COM"]
properties('MP2/aug-cc-pvtz', properties = ['dipole'])
--------------------------------------------------------------------------

    Molecular point group: c1
  Charge       = 0
  Multiplicity = 1
  Basis Set: AUG-CC-PVTZ
    Blend: AUG-CC-PVTZ
  Basis Set: (AUG-CC-PVTZ AUX)
    Blend: AUG-CC-PVTZ-JKFIT

    Orbital Energies [Eh]
    ---------------------

    Doubly Occupied:

       1A    -20.579004     2A    -20.544337     3A    -11.290240
       4A    -11.280180     5A     -1.376495     6A     -1.315172
       7A     -1.009750     8A     -0.857625     9A     -0.703287
      10A     -0.684198    11A     -0.644141    12A     -0.608123
      13A     -0.566147    14A     -0.519266    15A     -0.511585
      16A     -0.476055    17A     -0.441809

  @DF-RHF Final Energy:  -229.01697597735773

   => Energetics <=

    Nuclear Repulsion Energy =            132.4194914146596886
    One-Electron Energy =                -576.0581065831561318
    Two-Electron Energy =                 214.6216391911387404
    Total Energy =                       -229.0169759773577312
  Basis Set: (AUG-CC-PVTZ AUX)
    Blend: AUG-CC-PVTZ-RI
    Molecular point group: c1

    Geometry (in Angstrom), charge = 0, multiplicity = 1:

       Center              X                  Y                   Z               Mass
    ------------   -----------------  -----------------  -----------------  -----------------
         O            1.369963127905    -0.581231144286     0.058959730373    15.994914619570
         O           -1.403251872095    -0.564072144286    -0.158618269627    15.994914619570
         C            0.682362127905     0.631415855714    -0.283178269627    12.000000000000
         C           -0.700817272095     0.689801455714     0.337366330373    12.000000000000
         H            1.236605127905     1.517890855714     0.053228730373     1.007825032230
         H            0.637195127905     0.638463855714    -1.373948269627     1.007825032230
         H           -1.302570872095     1.464296855714    -0.045634269627     1.007825032230
         H           -0.671926872095     0.632741855714     1.389498730373     1.007825032230
         H            1.589692127905    -0.530930144286     1.005441730373     1.007825032230
         H           -0.740935872095    -1.277177144286    -0.092141269627     1.007825032230

  Basis Set: AUG-CC-PVTZ
    Blend: AUG-CC-PVTZ
  Basis Set: (AUG-CC-PVTZ AUX)
    Blend: AUG-CC-PVTZ-JKFIT
	 Reference Energy          =    -229.0169759773577312 [Eh]
	 Singles Energy            =      -0.0000000000000000 [Eh]
	 Same-Spin Energy          =      -0.2170672584998682 [Eh]
	 Opposite-Spin Energy      =      -0.7071123941008044 [Eh]
	 Correlation Energy        =      -0.9241796526006727 [Eh]
	 Total Energy              =    -229.9411556299584163 [Eh]

	 ================> DF-SCS-MP2 Energies <==================
	-----------------------------------------------------------
	 SCS Same-Spin Scale       =       0.3333333333333333 [-]
	 SCS Opposite-Spin Scale   =       1.2000000000000000 [-]
	 SCS Same-Spin Energy      =      -0.0723557528332894 [Eh]
	 SCS Opposite-Spin Energy  =      -0.8485348729209653 [Eh]
	 SCS Correlation Energy    =      -0.9208906257542547 [Eh]
	 SCS Total Energy          =    -229.9378666031119849 [Eh]
	-----------------------------------------------------------

  Dipole Moment: [D]
     X:     1.5481      Y:     1.7548      Z:     1.6134     Total:     2.8424

*** Psi4 exiting successfully. Buy a developer a beer!
