                               Psi4 1.4a3.dev225

  ==> Input File <==

--------------------------------------------------------------------------
#psi4
#
memory 32 gb

molecule  {
0 1
  O        1.3629200    -0.6007480     0.0540100
  O       -1.4102950    -0.5835890    -0.1635680
  C        0.6753190     0.6118990    -0.2881280
  C       -0.7297860     0.5791870     0.2830810
  H        1.2295620     1.4983740     0.0482790
  H        0.6301520     0.6189470    -1.3788980
  H       -1.3096140     1.4447800    -0.0505840
  H       -0.6789700     0.6132250     1.3845490
  H        1.5826490    -0.5504470     1.0004920
  H       -0.7344000    -1.3113143    -0.0957281
units angstrom
no_reorient  #important for SAPT in psi4, default
symmetry c1  #important for SAPT in psi4, default
}

set PROPERTIES_ORIGIN ["COM"]
properties('MP2/aug-cc-pvtz', properties = ['dipole'])
--------------------------------------------------------------------------

    Molecular point group: c1
  Charge       = 0
  Multiplicity = 1
  Basis Set: AUG-CC-PVTZ
    Blend: AUG-CC-PVTZ
  Basis Set: (AUG-CC-PVTZ AUX)
    Blend: AUG-CC-PVTZ-JKFIT

    Orbital Energies [Eh]
    ---------------------

    Doubly Occupied:

       1A    -20.576942     2A    -20.556431     3A    -11.286498
       4A    -11.280061     5A     -1.379814     6A     -1.343992
       7A     -1.000855     8A     -0.849865     9A     -0.704361
      10A     -0.689427    11A     -0.644682    12A     -0.614965
      13A     -0.571472    14A     -0.525213    15A     -0.510367
      16A     -0.473398    17A     -0.438034

  @DF-RHF Final Energy:  -229.02648291891794

   => Energetics <=

    Nuclear Repulsion Energy =            133.4721583700680014
    One-Electron Energy =                -578.1045252492718873
    Two-Electron Energy =                 215.6058839602859791
    Total Energy =                       -229.0264829189179352
  Basis Set: (AUG-CC-PVTZ AUX)
    Blend: AUG-CC-PVTZ-RI
    Molecular point group: c1

    Geometry (in Angstrom), charge = 0, multiplicity = 1:

       Center              X                  Y                   Z               Mass
    ------------   -----------------  -----------------  -----------------  -----------------
         O            1.373983677427    -0.563372288387     0.068480753880    15.994914619570
         O           -1.399231322573    -0.546213288387    -0.149097246120    15.994914619570
         C            0.686382677427     0.649274711613    -0.273657246120    12.000000000000
         C           -0.718722322573     0.616562711613     0.297551753880    12.000000000000
         H            1.240625677427     1.535749711613     0.062749753880     1.007825032230
         H            0.641215677427     0.656322711613    -1.364427246120     1.007825032230
         H           -1.298550322573     1.482155711613    -0.036113246120     1.007825032230
         H           -0.667906322573     0.650600711613     1.399019753880     1.007825032230
         H            1.593712677427    -0.513071288387     1.014962753880     1.007825032230
         H           -0.723336322573    -1.273938588387    -0.081257346120     1.007825032230

  Basis Set: AUG-CC-PVTZ
    Blend: AUG-CC-PVTZ
  Basis Set: (AUG-CC-PVTZ AUX)
    Blend: AUG-CC-PVTZ-JKFIT
	 Reference Energy          =    -229.0264829189179352 [Eh]
	 Singles Energy            =      -0.0000000000000000 [Eh]
	 Same-Spin Energy          =      -0.2170921323420023 [Eh]
	 Opposite-Spin Energy      =      -0.7057856464527464 [Eh]
	 Correlation Energy        =      -0.9228777787947486 [Eh]
	 Total Energy              =    -229.9493606977126774 [Eh]

	 ================> DF-SCS-MP2 Energies <==================
	-----------------------------------------------------------
	 SCS Same-Spin Scale       =       0.3333333333333333 [-]
	 SCS Opposite-Spin Scale   =       1.2000000000000000 [-]
	 SCS Same-Spin Energy      =      -0.0723640441140007 [Eh]
	 SCS Opposite-Spin Energy  =      -0.8469427757432957 [Eh]
	 SCS Correlation Energy    =      -0.9193068198572965 [Eh]
	 SCS Total Energy          =    -229.9457897387752325 [Eh]
	-----------------------------------------------------------

  Dipole Moment: [D]
     X:     1.4305      Y:     1.4733      Z:     1.4737     Total:     2.5276

*** Psi4 exiting successfully. Buy a developer a beer!
