                               Psi4 1.4a3.dev225

  ==> Input File <==

--------------------------------------------------------------------------
#psi4
#
memory 32 gb

molecule  {
0 1
  O        1.3629200    -0.6007480     0.0540100
  O       -1.4276552    -0.5692158    -0.1738496
  C        0.6753190     0.6118990    -0.2881280
  C       -0.7297860     0.5791870     0.2830810
  H        1.2295620     1.4983740     0.0482790
  H        0.6301520     0.6189470    -1.3788980
  H       -1.3096140     1.4447800    -0.0505840
  H       -0.6789700     0.6132250     1.3845490
  H        1.5826490    -0.5504470     1.0004920
  H       -0.7479790    -1.2966940    -0.0970910
units angstrom
no_reorient  #important for SAPT in psi4, default
symmetry c1  #important for SAPT in psi4, default
}

set PROPERTIES_ORIGIN ["COM"]
properties('MP2/aug-cc-pvtz', properties = ['dipole'])
--------------------------------------------------------------------------

    Molecular point group: c1
  Charge       = 0
  Multiplicity = 1
  Basis Set: AUG-CC-PVTZ
    Blend: AUG-CC-PVTZ
  Basis Set: (AUG-CC-PVTZ AUX)
    Blend: AUG-CC-PVTZ-JKFIT

    Orbital Energies [Eh]
    ---------------------

    Doubly Occupied:

       1A    -20.577196     2A    -20.557748     3A    -11.286789
       4A    -11.279900     5A     -1.379881     6A     -1.344740
       7A     -1.000790     8A     -0.849535     9A     -0.704364
      10A     -0.690370    11A     -0.644741    12A     -0.612978
      13A     -0.571637    14A     -0.526675    15A     -0.510256
      16A     -0.474183    17A     -0.438434

  @DF-RHF Final Energy:  -229.02589932650500

   => Energetics <=

    Nuclear Repulsion Energy =            133.3524421743694859
    One-Electron Energy =                -577.8562483641746894
    Two-Electron Energy =                 215.4779068633002339
    Total Energy =                       -229.0258993265049980
  Basis Set: (AUG-CC-PVTZ AUX)
    Blend: AUG-CC-PVTZ-RI
    Molecular point group: c1

    Geometry (in Angstrom), charge = 0, multiplicity = 1:

       Center              X                  Y                   Z               Mass
    ------------   -----------------  -----------------  -----------------  -----------------
         O            1.378680248970    -0.567315639628     0.071153795266    15.994914619570
         O           -1.411894951030    -0.535783439628    -0.156705804734    15.994914619570
         C            0.691079248970     0.645331360372    -0.270984204734    12.000000000000
         C           -0.714025751030     0.612619360372     0.300224795266    12.000000000000
         H            1.245322248970     1.531806360372     0.065422795266     1.007825032230
         H            0.645912248970     0.652379360372    -1.361754204734     1.007825032230
         H           -1.293853751030     1.478212360372    -0.033440204734     1.007825032230
         H           -0.663209751030     0.646657360372     1.401692795266     1.007825032230
         H            1.598409248970    -0.517014639628     1.017635795266     1.007825032230
         H           -0.732218751030    -1.263261639628    -0.079947204734     1.007825032230

  Basis Set: AUG-CC-PVTZ
    Blend: AUG-CC-PVTZ
  Basis Set: (AUG-CC-PVTZ AUX)
    Blend: AUG-CC-PVTZ-JKFIT
	 Reference Energy          =    -229.0258993265049980 [Eh]
	 Singles Energy            =      -0.0000000000000000 [Eh]
	 Same-Spin Energy          =      -0.2171728936493286 [Eh]
	 Opposite-Spin Energy      =      -0.7060128803608510 [Eh]
	 Correlation Energy        =      -0.9231857740101796 [Eh]
	 Total Energy              =    -229.9490851005151910 [Eh]

	 ================> DF-SCS-MP2 Energies <==================
	-----------------------------------------------------------
	 SCS Same-Spin Scale       =       0.3333333333333333 [-]
	 SCS Opposite-Spin Scale   =       1.2000000000000000 [-]
	 SCS Same-Spin Energy      =      -0.0723909645497762 [Eh]
	 SCS Opposite-Spin Energy  =      -0.8472154564330211 [Eh]
	 SCS Correlation Energy    =      -0.9196064209827973 [Eh]
	 SCS Total Energy          =    -229.9455057474878004 [Eh]
	-----------------------------------------------------------

  Dipole Moment: [D]
     X:     1.4431      Y:     1.4604      Z:     1.4907     Total:     2.5372

*** Psi4 exiting successfully. Buy a developer a beer!
