                               Psi4 1.4a3.dev225

  ==> Input File <==

--------------------------------------------------------------------------
#psi4
#
memory 32 gb

molecule  {
0 1
  O        1.3629200    -0.6007480     0.0540100
  O       -1.4102950    -0.5835890    -0.1635680
  C        0.6753190     0.6118990    -0.2881280
  C       -0.7297860     0.5791870     0.2830810
  H        1.2295620     1.4983740     0.0482790
  H        0.6280834     0.6192698    -1.4288541
  H       -1.3096140     1.4447800    -0.0505840
  H       -0.6789700     0.6132250     1.3845490
  H        1.5826490    -0.5504470     1.0004920
  H       -0.7479790    -1.2966940    -0.0970910
units angstrom
no_reorient  #important for SAPT in psi4, default
symmetry c1  #important for SAPT in psi4, default
}

set PROPERTIES_ORIGIN ["COM"]
properties('MP2/aug-cc-pvtz', properties = ['dipole'])
--------------------------------------------------------------------------

    Molecular point group: c1
  Charge       = 0
  Multiplicity = 1
  Basis Set: AUG-CC-PVTZ
    Blend: AUG-CC-PVTZ
  Basis Set: (AUG-CC-PVTZ AUX)
    Blend: AUG-CC-PVTZ-JKFIT

    Orbital Energies [Eh]
    ---------------------

    Doubly Occupied:

       1A    -20.577486     2A    -20.555153     3A    -11.292516
       4A    -11.280882     5A     -1.381033     6A     -1.347596
       7A     -0.999688     8A     -0.847510     9A     -0.705377
      10A     -0.690498    11A     -0.644110    12A     -0.616261
      13A     -0.569164    14A     -0.525298    15A     -0.507177
      16A     -0.473974    17A     -0.438600

  @DF-RHF Final Energy:  -229.02592726704509

   => Energetics <=

    Nuclear Repulsion Energy =            133.3494279846816539
    One-Electron Energy =                -577.8460673172006636
    Two-Electron Energy =                 215.4707120654739185
    Total Energy =                       -229.0259272670450912
  Basis Set: (AUG-CC-PVTZ AUX)
    Blend: AUG-CC-PVTZ-RI
    Molecular point group: c1

    Geometry (in Angstrom), charge = 0, multiplicity = 1:

       Center              X                  Y                   Z               Mass
    ------------   -----------------  -----------------  -----------------  -----------------
         O            1.374237882160    -0.563615048092     0.069314462098    15.994914619570
         O           -1.398977117840    -0.546456048092    -0.148263537902    15.994914619570
         C            0.686636882160     0.649031951908    -0.272823537902    12.000000000000
         C           -0.718468117840     0.616319951908     0.298385462098    12.000000000000
         H            1.240879882160     1.535506951908     0.063583462098     1.007825032230
         H            0.639401282160     0.656402751908    -1.413549637902     1.007825032230
         H           -1.298296117840     1.481912951908    -0.035279537902     1.007825032230
         H           -0.667652117840     0.650357951908     1.399853462098     1.007825032230
         H            1.593966882160    -0.513314048092     1.015796462098     1.007825032230
         H           -0.736661117840    -1.259561048092    -0.081786537902     1.007825032230

  Basis Set: AUG-CC-PVTZ
    Blend: AUG-CC-PVTZ
  Basis Set: (AUG-CC-PVTZ AUX)
    Blend: AUG-CC-PVTZ-JKFIT
	 Reference Energy          =    -229.0259272670450912 [Eh]
	 Singles Energy            =      -0.0000000000000000 [Eh]
	 Same-Spin Energy          =      -0.2168697949157652 [Eh]
	 Opposite-Spin Energy      =      -0.7055090258719001 [Eh]
	 Correlation Energy        =      -0.9223788207876653 [Eh]
	 Total Energy              =    -229.9483060878327478 [Eh]

	 ================> DF-SCS-MP2 Energies <==================
	-----------------------------------------------------------
	 SCS Same-Spin Scale       =       0.3333333333333333 [-]
	 SCS Opposite-Spin Scale   =       1.2000000000000000 [-]
	 SCS Same-Spin Energy      =      -0.0722899316385884 [Eh]
	 SCS Opposite-Spin Energy  =      -0.8466108310462801 [Eh]
	 SCS Correlation Energy    =      -0.9189007626848685 [Eh]
	 SCS Total Energy          =    -229.9448280297299618 [Eh]
	-----------------------------------------------------------

  Dipole Moment: [D]
     X:     1.4143      Y:     1.4795      Z:     1.4980     Total:     2.5364

*** Psi4 exiting successfully. Buy a developer a beer!
