                               Psi4 1.4a3.dev225

  ==> Input File <==

--------------------------------------------------------------------------
#psi4
#
memory 32 gb

molecule  {
0 1
  O        1.3629200    -0.6007480     0.0540100
  O       -1.4102950    -0.5835890    -0.1635680
  C        0.6695011     0.6345597    -0.3005278
  C       -0.7297860     0.5791870     0.2830810
  H        1.2295620     1.4983740     0.0482790
  H        0.6301520     0.6189470    -1.3788980
  H       -1.3096140     1.4447800    -0.0505840
  H       -0.6789700     0.6132250     1.3845490
  H        1.5826490    -0.5504470     1.0004920
  H       -0.7479790    -1.2966940    -0.0970910
units angstrom
no_reorient  #important for SAPT in psi4, default
symmetry c1  #important for SAPT in psi4, default
}

set PROPERTIES_ORIGIN ["COM"]
properties('MP2/aug-cc-pvtz', properties = ['dipole'])
--------------------------------------------------------------------------

    Molecular point group: c1
  Charge       = 0
  Multiplicity = 1
  Basis Set: AUG-CC-PVTZ
    Blend: AUG-CC-PVTZ
  Basis Set: (AUG-CC-PVTZ AUX)
    Blend: AUG-CC-PVTZ-JKFIT

    Orbital Energies [Eh]
    ---------------------

    Doubly Occupied:

       1A    -20.573771     2A    -20.555533     3A    -11.286481
       4A    -11.281199     5A     -1.374305     6A     -1.344142
       7A     -1.003823     8A     -0.851832     9A     -0.703645
      10A     -0.689102    11A     -0.643020    12A     -0.613774
      13A     -0.570869    14A     -0.526567    15A     -0.512115
      16A     -0.473572    17A     -0.440721

  @DF-RHF Final Energy:  -229.02711299469439

   => Energetics <=

    Nuclear Repulsion Energy =            133.2754292459262899
    One-Electron Energy =                -577.7161455891975947
    Two-Electron Energy =                 215.4136033485769417
    Total Energy =                       -229.0271129946943915
  Basis Set: (AUG-CC-PVTZ AUX)
    Blend: AUG-CC-PVTZ-RI
    Molecular point group: c1

    Geometry (in Angstrom), charge = 0, multiplicity = 1:

       Center              X                  Y                   Z               Mass
    ------------   -----------------  -----------------  -----------------  -----------------
         O            1.375329654070    -0.567993145675     0.070901433452    15.994914619570
         O           -1.397885345930    -0.550834145675    -0.146676566548    15.994914619570
         C            0.681910754070     0.667314554325    -0.283636366548    12.000000000000
         C           -0.717376345930     0.611941854325     0.299972433452    12.000000000000
         H            1.241971654070     1.531128854325     0.065170433452     1.007825032230
         H            0.642561654070     0.651701854325    -1.362006566548     1.007825032230
         H           -1.297204345930     1.477534854325    -0.033692566548     1.007825032230
         H           -0.666560345930     0.645979854325     1.401440433452     1.007825032230
         H            1.595058654070    -0.517692145675     1.017383433452     1.007825032230
         H           -0.735569345930    -1.263939145675    -0.080199566548     1.007825032230

  Basis Set: AUG-CC-PVTZ
    Blend: AUG-CC-PVTZ
  Basis Set: (AUG-CC-PVTZ AUX)
    Blend: AUG-CC-PVTZ-JKFIT
	 Reference Energy          =    -229.0271129946943915 [Eh]
	 Singles Energy            =      -0.0000000000000000 [Eh]
	 Same-Spin Energy          =      -0.2168535427567063 [Eh]
	 Opposite-Spin Energy      =      -0.7055255501159055 [Eh]
	 Correlation Energy        =      -0.9223790928726117 [Eh]
	 Total Energy              =    -229.9494920875669948 [Eh]

	 ================> DF-SCS-MP2 Energies <==================
	-----------------------------------------------------------
	 SCS Same-Spin Scale       =       0.3333333333333333 [-]
	 SCS Opposite-Spin Scale   =       1.2000000000000000 [-]
	 SCS Same-Spin Energy      =      -0.0722845142522354 [Eh]
	 SCS Opposite-Spin Energy  =      -0.8466306601390865 [Eh]
	 SCS Correlation Energy    =      -0.9189151743913219 [Eh]
	 SCS Total Energy          =    -229.9460281690857073 [Eh]
	-----------------------------------------------------------

  Dipole Moment: [D]
     X:     1.3755      Y:     1.5594      Z:     1.4463     Total:     2.5329

*** Psi4 exiting successfully. Buy a developer a beer!
