                               Psi4 1.4a3.dev225

  ==> Input File <==

--------------------------------------------------------------------------
#psi4
#
memory 32 gb

molecule  {
0 1
  O        1.3629200    -0.6007480     0.0540100
  O       -1.4102950    -0.5835890    -0.1635680
  C        0.6992706     0.5696582    -0.2762101
  C       -0.7297860     0.5791870     0.2830810
  H        1.2295620     1.4983740     0.0482790
  H        0.6301520     0.6189470    -1.3788980
  H       -1.3096140     1.4447800    -0.0505840
  H       -0.6789700     0.6132250     1.3845490
  H        1.5826490    -0.5504470     1.0004920
  H       -0.7479790    -1.2966940    -0.0970910
units angstrom
no_reorient  #important for SAPT in psi4, default
symmetry c1  #important for SAPT in psi4, default
}

set PROPERTIES_ORIGIN ["COM"]
properties('MP2/aug-cc-pvtz', properties = ['dipole'])
--------------------------------------------------------------------------

    Molecular point group: c1
  Charge       = 0
  Multiplicity = 1
  Basis Set: AUG-CC-PVTZ
    Blend: AUG-CC-PVTZ
  Basis Set: (AUG-CC-PVTZ AUX)
    Blend: AUG-CC-PVTZ-JKFIT

    Orbital Energies [Eh]
    ---------------------

    Doubly Occupied:

       1A    -20.582214     2A    -20.553978     3A    -11.287055
       4A    -11.278975     5A     -1.397613     6A     -1.350482
       7A     -0.994444     8A     -0.851785     9A     -0.712190
      10A     -0.692621    11A     -0.649183    12A     -0.621009
      13A     -0.575758    14A     -0.531005    15A     -0.504366
      16A     -0.471386    17A     -0.431326

  @DF-RHF Final Energy:  -229.02659123886724

   => Energetics <=

    Nuclear Repulsion Energy =            133.9970094130272003
    One-Electron Energy =                -579.0764176593378352
    Two-Electron Energy =                 216.0528170074434229
    Total Energy =                       -229.0265912388672405
  Basis Set: (AUG-CC-PVTZ AUX)
    Blend: AUG-CC-PVTZ-RI
    Molecular point group: c1

    Geometry (in Angstrom), charge = 0, multiplicity = 1:

       Center              X                  Y                   Z               Mass
    ------------   -----------------  -----------------  -----------------  -----------------
         O            1.369571231352    -0.555439012350     0.066197572248    15.994914619570
         O           -1.403643768648    -0.538280012350    -0.151380427752    15.994914619570
         C            0.705921831352     0.614967187650    -0.264022527752    12.000000000000
         C           -0.723134768648     0.624495987650     0.295268572248    12.000000000000
         H            1.236213231352     1.543682987650     0.060466572248     1.007825032230
         H            0.636803231352     0.664255987650    -1.366710427752     1.007825032230
         H           -1.302962768648     1.490088987650    -0.038396427752     1.007825032230
         H           -0.672318768648     0.658533987650     1.396736572248     1.007825032230
         H            1.589300231352    -0.505138012350     1.012679572248     1.007825032230
         H           -0.741327768648    -1.251385012350    -0.084903427752     1.007825032230

  Basis Set: AUG-CC-PVTZ
    Blend: AUG-CC-PVTZ
  Basis Set: (AUG-CC-PVTZ AUX)
    Blend: AUG-CC-PVTZ-JKFIT
	 Reference Energy          =    -229.0265912388672405 [Eh]
	 Singles Energy            =      -0.0000000000000000 [Eh]
	 Same-Spin Energy          =      -0.2167720400542683 [Eh]
	 Opposite-Spin Energy      =      -0.7044984110795298 [Eh]
	 Correlation Energy        =      -0.9212704511337981 [Eh]
	 Total Energy              =    -229.9478616900010479 [Eh]

	 ================> DF-SCS-MP2 Energies <==================
	-----------------------------------------------------------
	 SCS Same-Spin Scale       =       0.3333333333333333 [-]
	 SCS Opposite-Spin Scale   =       1.2000000000000000 [-]
	 SCS Same-Spin Energy      =      -0.0722573466847561 [Eh]
	 SCS Opposite-Spin Energy  =      -0.8453980932954358 [Eh]
	 SCS Correlation Energy    =      -0.9176554399801918 [Eh]
	 SCS Total Energy          =    -229.9442466788474349 [Eh]
	-----------------------------------------------------------

  Dipole Moment: [D]
     X:     1.5097      Y:     1.3376      Z:     1.5193     Total:     2.5252

*** Psi4 exiting successfully. Buy a developer a beer!
