                               Psi4 1.4a3.dev225

  ==> Input File <==

--------------------------------------------------------------------------
#psi4
#
memory 32 gb

molecule  {
0 1
  O        1.3629200    -0.6007480     0.0540100
  O       -1.4102950    -0.5835890    -0.1635680
  C        0.6753190     0.6118990    -0.2881280
  C       -0.7297860     0.5791870     0.2830810
  H        1.2295620     1.4983740     0.0482790
  H        0.6301520     0.6189470    -1.3788980
  H       -1.3096140     1.4447800    -0.0505840
  H       -0.6789700     0.6132250     1.3845490
  H        1.5781323    -0.5514810     0.9810362
  H       -0.7479790    -1.2966940    -0.0970910
units angstrom
no_reorient  #important for SAPT in psi4, default
symmetry c1  #important for SAPT in psi4, default
}

set PROPERTIES_ORIGIN ["COM"]
properties('MP2/aug-cc-pvtz', properties = ['dipole'])
--------------------------------------------------------------------------

    Molecular point group: c1
  Charge       = 0
  Multiplicity = 1
  Basis Set: AUG-CC-PVTZ
    Blend: AUG-CC-PVTZ
  Basis Set: (AUG-CC-PVTZ AUX)
    Blend: AUG-CC-PVTZ-JKFIT

    Orbital Energies [Eh]
    ---------------------

    Doubly Occupied:

       1A    -20.574868     2A    -20.555215     3A    -11.286791
       4A    -11.280476     5A     -1.384041     6A     -1.348784
       7A     -1.002749     8A     -0.852504     9A     -0.708038
      10A     -0.691646    11A     -0.645941    12A     -0.616887
      13A     -0.572257    14A     -0.526995    15A     -0.511779
      16A     -0.473992    17A     -0.438769

  @DF-RHF Final Energy:  -229.02895305101970

   => Energetics <=

    Nuclear Repulsion Energy =            133.6832245792771232
    One-Electron Energy =                -578.4808926658172368
    Two-Electron Energy =                 215.7687150355204153
    Total Energy =                       -229.0289530510196983
  Basis Set: (AUG-CC-PVTZ AUX)
    Blend: AUG-CC-PVTZ-RI
    Molecular point group: c1

    Geometry (in Angstrom), charge = 0, multiplicity = 1:

       Center              X                  Y                   Z               Mass
    ------------   -----------------  -----------------  -----------------  -----------------
         O            1.374277653027    -0.563593006054     0.068818966263    15.994914619570
         O           -1.398937346973    -0.546434006054    -0.148759033737    15.994914619570
         C            0.686676653027     0.649053993946    -0.273319033737    12.000000000000
         C           -0.718428346973     0.616341993946     0.297889966263    12.000000000000
         H            1.240919653027     1.535528993946     0.063087966263     1.007825032230
         H            0.641509653027     0.656101993946    -1.364089033737     1.007825032230
         H           -1.298256346973     1.481934993946    -0.035775033737     1.007825032230
         H           -0.667612346973     0.650379993946     1.399357966263     1.007825032230
         H            1.589489953027    -0.514326006054     0.995845166263     1.007825032230
         H           -0.736621346973    -1.259539006054    -0.082282033737     1.007825032230

  Basis Set: AUG-CC-PVTZ
    Blend: AUG-CC-PVTZ
  Basis Set: (AUG-CC-PVTZ AUX)
    Blend: AUG-CC-PVTZ-JKFIT
	 Reference Energy          =    -229.0289530510196983 [Eh]
	 Singles Energy            =      -0.0000000000000000 [Eh]
	 Same-Spin Energy          =      -0.2166094832791776 [Eh]
	 Opposite-Spin Energy      =      -0.7045626615797885 [Eh]
	 Correlation Energy        =      -0.9211721448589661 [Eh]
	 Total Energy              =    -229.9501251958786554 [Eh]

	 ================> DF-SCS-MP2 Energies <==================
	-----------------------------------------------------------
	 SCS Same-Spin Scale       =       0.3333333333333333 [-]
	 SCS Opposite-Spin Scale   =       1.2000000000000000 [-]
	 SCS Same-Spin Energy      =      -0.0722031610930592 [Eh]
	 SCS Opposite-Spin Energy  =      -0.8454751938957462 [Eh]
	 SCS Correlation Energy    =      -0.9176783549888055 [Eh]
	 SCS Total Energy          =    -229.9466314060084926 [Eh]
	-----------------------------------------------------------

  Dipole Moment: [D]
     X:     1.4073      Y:     1.4914      Z:     1.4593     Total:     2.5169

*** Psi4 exiting successfully. Buy a developer a beer!
