                               Psi4 1.4a3.dev225

  ==> Input File <==

--------------------------------------------------------------------------
#psi4
#
memory 32 gb

molecule  {
0 1
  O        1.3629200    -0.6007480     0.0540100
  O       -1.4102950    -0.5835890    -0.1635680
  C        0.6753190     0.6118990    -0.2881280
  C       -0.7297860     0.5791870     0.2830810
  H        1.2295620     1.4983740     0.0482790
  H        0.6301520     0.6189470    -1.3788980
  H       -1.3096140     1.4447800    -0.0505840
  H       -0.6789700     0.6132250     1.3845490
  H        1.5600653    -0.5556169     0.9032128
  H       -0.7479790    -1.2966940    -0.0970910
units angstrom
no_reorient  #important for SAPT in psi4, default
symmetry c1  #important for SAPT in psi4, default
}

set PROPERTIES_ORIGIN ["COM"]
properties('MP2/aug-cc-pvtz', properties = ['dipole'])
--------------------------------------------------------------------------

    Molecular point group: c1
  Charge       = 0
  Multiplicity = 1
  Basis Set: AUG-CC-PVTZ
    Blend: AUG-CC-PVTZ
  Basis Set: (AUG-CC-PVTZ AUX)
    Blend: AUG-CC-PVTZ-JKFIT

    Orbital Energies [Eh]
    ---------------------

    Doubly Occupied:

       1A    -20.566682     2A    -20.555746     3A    -11.287704
       4A    -11.281097     5A     -1.402113     6A     -1.353055
       7A     -1.007498     8A     -0.858971     9A     -0.718444
      10A     -0.694527    11A     -0.649447    12A     -0.619087
      13A     -0.573774    14A     -0.528767    15A     -0.515658
      16A     -0.475477    17A     -0.439741

  @DF-RHF Final Energy:  -229.02302416461154

   => Energetics <=

    Nuclear Repulsion Energy =            134.1850882739524309
    One-Electron Energy =                -579.3606463600528969
    Two-Electron Energy =                 216.1525339214889243
    Total Energy =                       -229.0230241646115417
  Basis Set: (AUG-CC-PVTZ AUX)
    Blend: AUG-CC-PVTZ-RI
    Molecular point group: c1

    Geometry (in Angstrom), charge = 0, multiplicity = 1:

       Center              X                  Y                   Z               Mass
    ------------   -----------------  -----------------  -----------------  -----------------
         O            1.374571162377    -0.563525815855     0.070083254501    15.994914619570
         O           -1.398643837623    -0.546366815855    -0.147494745499    15.994914619570
         C            0.686970162377     0.649121184145    -0.272054745499    12.000000000000
         C           -0.718134837623     0.616409184145     0.299154254501    12.000000000000
         H            1.241213162377     1.535596184145     0.064352254501     1.007825032230
         H            0.641803162377     0.656169184145    -1.362824745499     1.007825032230
         H           -1.297962837623     1.482002184145    -0.034510745499     1.007825032230
         H           -0.667318837623     0.650447184145     1.400622254501     1.007825032230
         H            1.571716462377    -0.518394715855     0.919286054501     1.007825032230
         H           -0.736327837623    -1.259471815855    -0.081017745499     1.007825032230

  Basis Set: AUG-CC-PVTZ
    Blend: AUG-CC-PVTZ
  Basis Set: (AUG-CC-PVTZ AUX)
    Blend: AUG-CC-PVTZ-JKFIT
	 Reference Energy          =    -229.0230241646115417 [Eh]
	 Singles Energy            =      -0.0000000000000000 [Eh]
	 Same-Spin Energy          =      -0.2156974628975770 [Eh]
	 Opposite-Spin Energy      =      -0.7022787949977713 [Eh]
	 Correlation Energy        =      -0.9179762578953484 [Eh]
	 Total Energy              =    -229.9410004225069031 [Eh]

	 ================> DF-SCS-MP2 Energies <==================
	-----------------------------------------------------------
	 SCS Same-Spin Scale       =       0.3333333333333333 [-]
	 SCS Opposite-Spin Scale   =       1.2000000000000000 [-]
	 SCS Same-Spin Energy      =      -0.0718991542991923 [Eh]
	 SCS Opposite-Spin Energy  =      -0.8427345539973256 [Eh]
	 SCS Correlation Energy    =      -0.9146337082965179 [Eh]
	 SCS Total Energy          =    -229.9376578729080620 [Eh]
	-----------------------------------------------------------

  Dipole Moment: [D]
     X:     1.3740      Y:     1.5068      Z:     1.3977     Total:     2.4722

*** Psi4 exiting successfully. Buy a developer a beer!
