                               Psi4 1.4a3.dev225

  ==> Input File <==

--------------------------------------------------------------------------
#psi4
#
memory 32 gb

molecule  {
0 1
  O        1.3629200    -0.6007480     0.0540100
  O       -1.4102950    -0.5835890    -0.1635680
  C        0.6753190     0.6118990    -0.2881280
  C       -0.7498147     0.4429780     0.2039385
  H        1.2295620     1.4983740     0.0482790
  H        0.6301520     0.6189470    -1.3788980
  H       -1.3096140     1.4447800    -0.0505840
  H       -0.6789700     0.6132250     1.3845490
  H        1.5826490    -0.5504470     1.0004920
  H       -0.7479790    -1.2966940    -0.0970910
units angstrom
no_reorient  #important for SAPT in psi4, default
symmetry c1  #important for SAPT in psi4, default
}

set PROPERTIES_ORIGIN ["COM"]
properties('MP2/aug-cc-pvtz', properties = ['dipole'])
--------------------------------------------------------------------------

    Molecular point group: c1
  Charge       = 0
  Multiplicity = 1
  Basis Set: AUG-CC-PVTZ
    Blend: AUG-CC-PVTZ
  Basis Set: (AUG-CC-PVTZ AUX)
    Blend: AUG-CC-PVTZ-JKFIT

    Orbital Energies [Eh]
    ---------------------

    Doubly Occupied:

       1A    -20.574262     2A    -20.573554     3A    -11.289559
       4A    -11.284185     5A     -1.435721     6A     -1.367689
       7A     -0.992631     8A     -0.848652     9A     -0.728251
      10A     -0.705052    11A     -0.653407    12A     -0.633044
      13A     -0.594567    14A     -0.538948    15A     -0.504490
      16A     -0.450803    17A     -0.415219

  @DF-RHF Final Energy:  -229.00040879738970

   => Energetics <=

    Nuclear Repulsion Energy =            135.5356363337822359
    One-Electron Energy =                -581.8920234576512485
    Two-Electron Energy =                 217.3559783264793168
    Total Energy =                       -229.0004087973896958
  Basis Set: (AUG-CC-PVTZ AUX)
    Blend: AUG-CC-PVTZ-RI
    Molecular point group: c1

    Geometry (in Angstrom), charge = 0, multiplicity = 1:

       Center              X                  Y                   Z               Mass
    ------------   -----------------  -----------------  -----------------  -----------------
         O            1.378078500827    -0.537262401470     0.083811716793    15.994914619570
         O           -1.395136499173    -0.520103401470    -0.133766283207    15.994914619570
         C            0.690477500827     0.675384598530    -0.258326283207    12.000000000000
         C           -0.734656199173     0.506463598530     0.233740216793    12.000000000000
         H            1.244720500827     1.561859598530     0.078080716793     1.007825032230
         H            0.645310500827     0.682432598530    -1.349096283207     1.007825032230
         H           -1.294455499173     1.508265598530    -0.020782283207     1.007825032230
         H           -0.663811499173     0.676710598530     1.414350716793     1.007825032230
         H            1.597807500827    -0.486961401470     1.030293716793     1.007825032230
         H           -0.732820499173    -1.233208401470    -0.067289283207     1.007825032230

  Basis Set: AUG-CC-PVTZ
    Blend: AUG-CC-PVTZ
  Basis Set: (AUG-CC-PVTZ AUX)
    Blend: AUG-CC-PVTZ-JKFIT
	 Reference Energy          =    -229.0004087973896958 [Eh]
	 Singles Energy            =      -0.0000000000000000 [Eh]
	 Same-Spin Energy          =      -0.2176015654462309 [Eh]
	 Opposite-Spin Energy      =      -0.7046045024294721 [Eh]
	 Correlation Energy        =      -0.9222060678757030 [Eh]
	 Total Energy              =    -229.9226148652653876 [Eh]

	 ================> DF-SCS-MP2 Energies <==================
	-----------------------------------------------------------
	 SCS Same-Spin Scale       =       0.3333333333333333 [-]
	 SCS Opposite-Spin Scale   =       1.2000000000000000 [-]
	 SCS Same-Spin Energy      =      -0.0725338551487436 [Eh]
	 SCS Opposite-Spin Energy  =      -0.8455254029153666 [Eh]
	 SCS Correlation Energy    =      -0.9180592580641103 [Eh]
	 SCS Total Energy          =    -229.9184680554538147 [Eh]
	-----------------------------------------------------------

  Dipole Moment: [D]
     X:     1.2091      Y:     0.9640      Z:     1.1459     Total:     1.9247

*** Psi4 exiting successfully. Buy a developer a beer!
