                               Psi4 1.4a3.dev225

  ==> Input File <==

--------------------------------------------------------------------------
#psi4
#
memory 32 gb

molecule  {
0 1
  O        1.3650178    -0.6061747     0.0296429
  O       -1.4102950    -0.5835890    -0.1635680
  C        0.6753190     0.6118990    -0.2881280
  C       -0.7297860     0.5791870     0.2830810
  H        1.2295620     1.4983740     0.0482790
  H        0.6301520     0.6189470    -1.3788980
  H       -1.3096140     1.4447800    -0.0505840
  H       -0.6789700     0.6132250     1.3845490
  H        1.5826490    -0.5504470     1.0004920
  H       -0.7479790    -1.2966940    -0.0970910
units angstrom
no_reorient  #important for SAPT in psi4, default
symmetry c1  #important for SAPT in psi4, default
}

set PROPERTIES_ORIGIN ["COM"]
properties('MP2/aug-cc-pvtz', properties = ['dipole'])
--------------------------------------------------------------------------

    Molecular point group: c1
  Charge       = 0
  Multiplicity = 1
  Basis Set: AUG-CC-PVTZ
    Blend: AUG-CC-PVTZ
  Basis Set: (AUG-CC-PVTZ AUX)
    Blend: AUG-CC-PVTZ-JKFIT

    Orbital Energies [Eh]
    ---------------------

    Doubly Occupied:

       1A    -20.579769     2A    -20.555170     3A    -11.286150
       4A    -11.280609     5A     -1.378133     6A     -1.346077
       7A     -1.000631     8A     -0.849306     9A     -0.704886
      10A     -0.688749    11A     -0.642886    12A     -0.616806
      13A     -0.570599    14A     -0.525929    15A     -0.511134
      16A     -0.473855    17A     -0.438579

  @DF-RHF Final Energy:  -229.02577888181759

   => Energetics <=

    Nuclear Repulsion Energy =            133.4327497450846636
    One-Electron Energy =                -578.0185202032614598
    Two-Electron Energy =                 215.5599915763592094
    Total Energy =                       -229.0257788818175868
  Basis Set: (AUG-CC-PVTZ AUX)
    Blend: AUG-CC-PVTZ-RI
    Molecular point group: c1

    Geometry (in Angstrom), charge = 0, multiplicity = 1:

       Center              X                  Y                   Z               Mass
    ------------   -----------------  -----------------  -----------------  -----------------
         O            1.375761201681    -0.567637340418     0.050418353323    15.994914619570
         O           -1.399551598319    -0.545051640418    -0.142792546677    15.994914619570
         C            0.686062401681     0.650436359582    -0.267352546677    12.000000000000
         C           -0.719042598319     0.617724359582     0.303856453323    12.000000000000
         H            1.240305401681     1.536911359582     0.069054453323     1.007825032230
         H            0.640895401681     0.657484359582    -1.358122546677     1.007825032230
         H           -1.298870598319     1.483317359582    -0.029808546677     1.007825032230
         H           -0.668226598319     0.651762359582     1.405324453323     1.007825032230
         H            1.593392401681    -0.511909640418     1.021267453323     1.007825032230
         H           -0.737235598319    -1.258156640418    -0.076315546677     1.007825032230

  Basis Set: AUG-CC-PVTZ
    Blend: AUG-CC-PVTZ
  Basis Set: (AUG-CC-PVTZ AUX)
    Blend: AUG-CC-PVTZ-JKFIT
	 Reference Energy          =    -229.0257788818175868 [Eh]
	 Singles Energy            =      -0.0000000000000000 [Eh]
	 Same-Spin Energy          =      -0.2171703322855860 [Eh]
	 Opposite-Spin Energy      =      -0.7060548797538444 [Eh]
	 Correlation Energy        =      -0.9232252120394304 [Eh]
	 Total Energy              =    -229.9490040938570132 [Eh]

	 ================> DF-SCS-MP2 Energies <==================
	-----------------------------------------------------------
	 SCS Same-Spin Scale       =       0.3333333333333333 [-]
	 SCS Opposite-Spin Scale   =       1.2000000000000000 [-]
	 SCS Same-Spin Energy      =      -0.0723901107618620 [Eh]
	 SCS Opposite-Spin Energy  =      -0.8472658557046132 [Eh]
	 SCS Correlation Energy    =      -0.9196559664664752 [Eh]
	 SCS Total Energy          =    -229.9454348482840658 [Eh]
	-----------------------------------------------------------

  Dipole Moment: [D]
     X:     1.4099      Y:     1.4869      Z:     1.5076     Total:     2.5439

*** Psi4 exiting successfully. Buy a developer a beer!
