                               Psi4 1.4a3.dev225

  ==> Input File <==

--------------------------------------------------------------------------
#psi4
#
memory 32 gb

molecule  {
0 1
  O        1.3629200    -0.6007480     0.0540100
  O       -1.4102950    -0.5835890    -0.1635680
  C        0.6753190     0.6118990    -0.2881280
  C       -0.9150185     0.5748746     0.3583825
  H        1.2295620     1.4983740     0.0482790
  H        0.6301520     0.6189470    -1.3788980
  H       -1.3096140     1.4447800    -0.0505840
  H       -0.6789700     0.6132250     1.3845490
  H        1.5826490    -0.5504470     1.0004920
  H       -0.7479790    -1.2966940    -0.0970910
units angstrom
no_reorient  #important for SAPT in psi4, default
symmetry c1  #important for SAPT in psi4, default
}

set PROPERTIES_ORIGIN ["COM"]
properties('MP2/aug-cc-pvtz', properties = ['dipole'])
--------------------------------------------------------------------------

    Molecular point group: c1
  Charge       = 0
  Multiplicity = 1
  Basis Set: AUG-CC-PVTZ
    Blend: AUG-CC-PVTZ
  Basis Set: (AUG-CC-PVTZ AUX)
    Blend: AUG-CC-PVTZ-JKFIT

    Orbital Energies [Eh]
    ---------------------

    Doubly Occupied:

       1A    -20.575130     2A    -20.558048     3A    -11.284112
       4A    -11.281641     5A     -1.384122     6A     -1.357339
       7A     -0.969212     8A     -0.862802     9A     -0.712210
      10A     -0.688178    11A     -0.646006    12A     -0.625061
      13A     -0.584714    14A     -0.528531    15A     -0.503013
      16A     -0.483766    17A     -0.391558

  @DF-RHF Final Energy:  -228.99943494495605

   => Energetics <=

    Nuclear Repulsion Energy =            132.1391494191742026
    One-Electron Energy =                -575.4062819024057944
    Two-Electron Energy =                 214.2676975382755415
    Total Energy =                       -228.9994349449560502
  Basis Set: (AUG-CC-PVTZ AUX)
    Blend: AUG-CC-PVTZ-RI
    Molecular point group: c1

    Geometry (in Angstrom), charge = 0, multiplicity = 1:

       Center              X                  Y                   Z               Mass
    ------------   -----------------  -----------------  -----------------  -----------------
         O            1.410034473045    -0.562775640785     0.053937051845    15.994914619570
         O           -1.363180526955    -0.545616640785    -0.163640948155    15.994914619570
         C            0.722433473045     0.649871359215    -0.288200948155    12.000000000000
         C           -0.867904026955     0.612846959215     0.358309551845    12.000000000000
         H            1.276676473045     1.536346359215     0.048206051845     1.007825032230
         H            0.677266473045     0.656919359215    -1.378970948155     1.007825032230
         H           -1.262499526955     1.482752359215    -0.050656948155     1.007825032230
         H           -0.631855526955     0.651197359215     1.384476051845     1.007825032230
         H            1.629763473045    -0.512474640785     1.000419051845     1.007825032230
         H           -0.700864526955    -1.258721640785    -0.097163948155     1.007825032230

  Basis Set: AUG-CC-PVTZ
    Blend: AUG-CC-PVTZ
  Basis Set: (AUG-CC-PVTZ AUX)
    Blend: AUG-CC-PVTZ-JKFIT
	 Reference Energy          =    -228.9994349449560502 [Eh]
	 Singles Energy            =      -0.0000000000000000 [Eh]
	 Same-Spin Energy          =      -0.2170297383392546 [Eh]
	 Opposite-Spin Energy      =      -0.7058895738553259 [Eh]
	 Correlation Energy        =      -0.9229193121945805 [Eh]
	 Total Energy              =    -229.9223542571506300 [Eh]

	 ================> DF-SCS-MP2 Energies <==================
	-----------------------------------------------------------
	 SCS Same-Spin Scale       =       0.3333333333333333 [-]
	 SCS Opposite-Spin Scale   =       1.2000000000000000 [-]
	 SCS Same-Spin Energy      =      -0.0723432461130849 [Eh]
	 SCS Opposite-Spin Energy  =      -0.8470674886263910 [Eh]
	 SCS Correlation Energy    =      -0.9194107347394759 [Eh]
	 SCS Total Energy          =    -229.9188456796955222 [Eh]
	-----------------------------------------------------------

  Dipole Moment: [D]
     X:     1.2063      Y:     1.3103      Z:     1.5386     Total:     2.3536

*** Psi4 exiting successfully. Buy a developer a beer!
