                               Psi4 1.4a3.dev225

  ==> Input File <==

--------------------------------------------------------------------------
#psi4
#
memory 32 gb

molecule  {
0 1
  O        1.3629200    -0.6007480     0.0540100
  O       -1.4102950    -0.5835890    -0.1635680
  C        0.6753190     0.6118990    -0.2881280
  C       -0.7483093     0.5787558     0.2906111
  H        1.2295620     1.4983740     0.0482790
  H        0.6301520     0.6189470    -1.3788980
  H       -1.3096140     1.4447800    -0.0505840
  H       -0.6789700     0.6132250     1.3845490
  H        1.5826490    -0.5504470     1.0004920
  H       -0.7479790    -1.2966940    -0.0970910
units angstrom
no_reorient  #important for SAPT in psi4, default
symmetry c1  #important for SAPT in psi4, default
}

set PROPERTIES_ORIGIN ["COM"]
properties('MP2/aug-cc-pvtz', properties = ['dipole'])
--------------------------------------------------------------------------

    Molecular point group: c1
  Charge       = 0
  Multiplicity = 1
  Basis Set: AUG-CC-PVTZ
    Blend: AUG-CC-PVTZ
  Basis Set: (AUG-CC-PVTZ AUX)
    Blend: AUG-CC-PVTZ-JKFIT

    Orbital Energies [Eh]
    ---------------------

    Doubly Occupied:

       1A    -20.576536     2A    -20.555275     3A    -11.286626
       4A    -11.279916     5A     -1.380576     6A     -1.348904
       7A     -0.997429     8A     -0.852579     9A     -0.705688
      10A     -0.690255    11A     -0.643876    12A     -0.617968
      13A     -0.573968    14A     -0.526934    15A     -0.510037
      16A     -0.474156    17A     -0.435415

  @DF-RHF Final Energy:  -229.02800605741933

   => Energetics <=

    Nuclear Repulsion Energy =            133.4234592442153655
    One-Electron Energy =                -577.9906521361076557
    Two-Electron Energy =                 215.5391868344729858
    Total Energy =                       -229.0280060574193328
  Basis Set: (AUG-CC-PVTZ AUX)
    Blend: AUG-CC-PVTZ-RI
    Molecular point group: c1

    Geometry (in Angstrom), charge = 0, multiplicity = 1:

       Center              X                  Y                   Z               Mass
    ------------   -----------------  -----------------  -----------------  -----------------
         O            1.377787305827    -0.563526395425     0.067046320370    15.994914619570
         O           -1.395427694173    -0.546367395425    -0.150531679630    15.994914619570
         C            0.690186305827     0.649120604575    -0.275091679630    12.000000000000
         C           -0.733441994173     0.615977404575     0.303647420370    12.000000000000
         H            1.244429305827     1.535595604575     0.061315320370     1.007825032230
         H            0.645019305827     0.656168604575    -1.365861679630     1.007825032230
         H           -1.294746694173     1.482001604575    -0.037547679630     1.007825032230
         H           -0.664102694173     0.650446604575     1.397585320370     1.007825032230
         H            1.597516305827    -0.513225395425     1.013528320370     1.007825032230
         H           -0.733111694173    -1.259472395425    -0.084054679630     1.007825032230

  Basis Set: AUG-CC-PVTZ
    Blend: AUG-CC-PVTZ
  Basis Set: (AUG-CC-PVTZ AUX)
    Blend: AUG-CC-PVTZ-JKFIT
	 Reference Energy          =    -229.0280060574193328 [Eh]
	 Singles Energy            =      -0.0000000000000000 [Eh]
	 Same-Spin Energy          =      -0.2167110588391289 [Eh]
	 Opposite-Spin Energy      =      -0.7049660297941279 [Eh]
	 Correlation Energy        =      -0.9216770886332568 [Eh]
	 Total Energy              =    -229.9496831460525925 [Eh]

	 ================> DF-SCS-MP2 Energies <==================
	-----------------------------------------------------------
	 SCS Same-Spin Scale       =       0.3333333333333333 [-]
	 SCS Opposite-Spin Scale   =       1.2000000000000000 [-]
	 SCS Same-Spin Energy      =      -0.0722370196130430 [Eh]
	 SCS Opposite-Spin Energy  =      -0.8459592357529535 [Eh]
	 SCS Correlation Energy    =      -0.9181962553659965 [Eh]
	 SCS Total Energy          =    -229.9462023127853172 [Eh]
	-----------------------------------------------------------

  Dipole Moment: [D]
     X:     1.3934      Y:     1.4726      Z:     1.4812     Total:     2.5108

*** Psi4 exiting successfully. Buy a developer a beer!
