                               Psi4 1.4a3.dev225

  ==> Input File <==

--------------------------------------------------------------------------
#psi4
#
memory 32 gb

molecule  {
0 1
  O        1.3629200    -0.6007480     0.0540100
  O       -1.4102950    -0.5835890    -0.1635680
  C        0.6753190     0.6118990    -0.2881280
  C       -0.7249428     0.6019638     0.2956854
  H        1.2295620     1.4983740     0.0482790
  H        0.6301520     0.6189470    -1.3788980
  H       -1.3096140     1.4447800    -0.0505840
  H       -0.6789700     0.6132250     1.3845490
  H        1.5826490    -0.5504470     1.0004920
  H       -0.7479790    -1.2966940    -0.0970910
units angstrom
no_reorient  #important for SAPT in psi4, default
symmetry c1  #important for SAPT in psi4, default
}

set PROPERTIES_ORIGIN ["COM"]
properties('MP2/aug-cc-pvtz', properties = ['dipole'])
--------------------------------------------------------------------------

    Molecular point group: c1
  Charge       = 0
  Multiplicity = 1
  Basis Set: AUG-CC-PVTZ
    Blend: AUG-CC-PVTZ
  Basis Set: (AUG-CC-PVTZ AUX)
    Blend: AUG-CC-PVTZ-JKFIT

    Orbital Energies [Eh]
    ---------------------

    Doubly Occupied:

       1A    -20.577262     2A    -20.552375     3A    -11.287361
       4A    -11.279848     5A     -1.378616     6A     -1.339455
       7A     -1.003609     8A     -0.852535     9A     -0.704489
      10A     -0.688243    11A     -0.644724    12A     -0.614295
      13A     -0.569101    14A     -0.524102    15A     -0.512181
      16A     -0.475471    17A     -0.440124

  @DF-RHF Final Energy:  -229.02713833729428

   => Energetics <=

    Nuclear Repulsion Energy =            133.2701848704379870
    One-Electron Energy =                -577.7070642559634734
    Two-Electron Energy =                 215.4097410482311830
    Total Energy =                       -229.0271383372942751
  Basis Set: (AUG-CC-PVTZ AUX)
    Blend: AUG-CC-PVTZ-RI
    Molecular point group: c1

    Geometry (in Angstrom), charge = 0, multiplicity = 1:

       Center              X                  Y                   Z               Mass
    ------------   -----------------  -----------------  -----------------  -----------------
         O            1.373267438700    -0.568015603320     0.066064780055    15.994914619570
         O           -1.399947561300    -0.550856603320    -0.151513219945    15.994914619570
         C            0.685666438700     0.644631396680    -0.276073219945    12.000000000000
         C           -0.714595361300     0.634696196680     0.307740180055    12.000000000000
         H            1.239909438700     1.531106396680     0.060333780055     1.007825032230
         H            0.640499438700     0.651679396680    -1.366843219945     1.007825032230
         H           -1.299266561300     1.477512396680    -0.038529219945     1.007825032230
         H           -0.668622561300     0.645957396680     1.396603780055     1.007825032230
         H            1.592996438700    -0.517714603320     1.012546780055     1.007825032230
         H           -0.737631561300    -1.263961603320    -0.085036219945     1.007825032230

  Basis Set: AUG-CC-PVTZ
    Blend: AUG-CC-PVTZ
  Basis Set: (AUG-CC-PVTZ AUX)
    Blend: AUG-CC-PVTZ-JKFIT
	 Reference Energy          =    -229.0271383372942751 [Eh]
	 Singles Energy            =      -0.0000000000000000 [Eh]
	 Same-Spin Energy          =      -0.2168373129345860 [Eh]
	 Opposite-Spin Energy      =      -0.7055363605856902 [Eh]
	 Correlation Energy        =      -0.9223736735202762 [Eh]
	 Total Energy              =    -229.9495120108145443 [Eh]

	 ================> DF-SCS-MP2 Energies <==================
	-----------------------------------------------------------
	 SCS Same-Spin Scale       =       0.3333333333333333 [-]
	 SCS Opposite-Spin Scale   =       1.2000000000000000 [-]
	 SCS Same-Spin Energy      =      -0.0722791043115286 [Eh]
	 SCS Opposite-Spin Energy  =      -0.8466436327028283 [Eh]
	 SCS Correlation Energy    =      -0.9189227370143569 [Eh]
	 SCS Total Energy          =    -229.9460610743086306 [Eh]
	-----------------------------------------------------------

  Dipole Moment: [D]
     X:     1.4488      Y:     1.5601      Z:     1.5137     Total:     2.6123

*** Psi4 exiting successfully. Buy a developer a beer!
