                               Psi4 1.4a3.dev225

  ==> Input File <==

--------------------------------------------------------------------------
#psi4
#
memory 32 gb

molecule  {
0 1
  O        1.3629200    -0.6007480     0.0540100
  O       -1.4068096    -0.5763622    -0.1870052
  C        0.6753190     0.6118990    -0.2881280
  C       -0.7297860     0.5791870     0.2830810
  H        1.2295620     1.4983740     0.0482790
  H        0.6301520     0.6189470    -1.3788980
  H       -1.3096140     1.4447800    -0.0505840
  H       -0.6789700     0.6132250     1.3845490
  H        1.5826490    -0.5504470     1.0004920
  H       -0.7479790    -1.2966940    -0.0970910
units angstrom
no_reorient  #important for SAPT in psi4, default
symmetry c1  #important for SAPT in psi4, default
}

set PROPERTIES_ORIGIN ["COM"]
properties('MP2/aug-cc-pvtz', properties = ['dipole'])
--------------------------------------------------------------------------

    Molecular point group: c1
  Charge       = 0
  Multiplicity = 1
  Basis Set: AUG-CC-PVTZ
    Blend: AUG-CC-PVTZ
  Basis Set: (AUG-CC-PVTZ AUX)
    Blend: AUG-CC-PVTZ-JKFIT

    Orbital Energies [Eh]
    ---------------------

    Doubly Occupied:

       1A    -20.576591     2A    -20.555762     3A    -11.286058
       4A    -11.280316     5A     -1.380478     6A     -1.346769
       7A     -1.001245     8A     -0.850557     9A     -0.705595
      10A     -0.690752    11A     -0.644415    12A     -0.616027
      13A     -0.571275    14A     -0.525521    15A     -0.510488
      16A     -0.474801    17A     -0.438261

  @DF-RHF Final Energy:  -229.02754906979101

   => Energetics <=

    Nuclear Repulsion Energy =            133.5917106953990015
    One-Electron Energy =                -578.3286979854326546
    Two-Electron Energy =                 215.7094382202426459
    Total Energy =                       -229.0275490697910072
  Basis Set: (AUG-CC-PVTZ AUX)
    Blend: AUG-CC-PVTZ-RI
    Molecular point group: c1

    Geometry (in Angstrom), charge = 0, multiplicity = 1:

       Center              X                  Y                   Z               Mass
    ------------   -----------------  -----------------  -----------------  -----------------
         O            1.373305637405    -0.565473086567     0.074545697629    15.994914619570
         O           -1.396423962595    -0.541087286567    -0.166469502371    15.994914619570
         C            0.685704637405     0.647173913433    -0.267592302371    12.000000000000
         C           -0.719400362595     0.614461913433     0.303616697629    12.000000000000
         H            1.239947637405     1.533648913433     0.068814697629     1.007825032230
         H            0.640537637405     0.654221913433    -1.358362302371     1.007825032230
         H           -1.299228362595     1.480054913433    -0.030048302371     1.007825032230
         H           -0.668584362595     0.648499913433     1.405084697629     1.007825032230
         H            1.593034637405    -0.515172086567     1.021027697629     1.007825032230
         H           -0.737593362595    -1.261419086567    -0.076555302371     1.007825032230

  Basis Set: AUG-CC-PVTZ
    Blend: AUG-CC-PVTZ
  Basis Set: (AUG-CC-PVTZ AUX)
    Blend: AUG-CC-PVTZ-JKFIT
	 Reference Energy          =    -229.0275490697910072 [Eh]
	 Singles Energy            =      -0.0000000000000000 [Eh]
	 Same-Spin Energy          =      -0.2169288288722576 [Eh]
	 Opposite-Spin Energy      =      -0.7053727713478632 [Eh]
	 Correlation Energy        =      -0.9223016002201209 [Eh]
	 Total Energy              =    -229.9498506700111307 [Eh]

	 ================> DF-SCS-MP2 Energies <==================
	-----------------------------------------------------------
	 SCS Same-Spin Scale       =       0.3333333333333333 [-]
	 SCS Opposite-Spin Scale   =       1.2000000000000000 [-]
	 SCS Same-Spin Energy      =      -0.0723096096240859 [Eh]
	 SCS Opposite-Spin Energy  =      -0.8464473256174359 [Eh]
	 SCS Correlation Energy    =      -0.9187569352415217 [Eh]
	 SCS Total Energy          =    -229.9463060050325396 [Eh]
	-----------------------------------------------------------

  Dipole Moment: [D]
     X:     1.3962      Y:     1.4705      Z:     1.5264     Total:     2.5380

*** Psi4 exiting successfully. Buy a developer a beer!
