                               Psi4 1.4a3.dev225

  ==> Input File <==

--------------------------------------------------------------------------
#psi4
#
memory 32 gb

molecule  {
0 1
  O        1.3629200    -0.6007480     0.0540100
  O       -1.4102950    -0.5835890    -0.1635680
  C        0.6753190     0.6118990    -0.2881280
  C       -0.7448660     0.4882488     0.2309625
  H        1.2295620     1.4983740     0.0482790
  H        0.6301520     0.6189470    -1.3788980
  H       -1.3096140     1.4447800    -0.0505840
  H       -0.6789700     0.6132250     1.3845490
  H        1.5826490    -0.5504470     1.0004920
  H       -0.7479790    -1.2966940    -0.0970910
units angstrom
no_reorient  #important for SAPT in psi4, default
symmetry c1  #important for SAPT in psi4, default
}

set PROPERTIES_ORIGIN ["COM"]
properties('MP2/aug-cc-pvtz', properties = ['dipole'])
--------------------------------------------------------------------------

    Molecular point group: c1
  Charge       = 0
  Multiplicity = 1
  Basis Set: AUG-CC-PVTZ
    Blend: AUG-CC-PVTZ
  Basis Set: (AUG-CC-PVTZ AUX)
    Blend: AUG-CC-PVTZ-JKFIT

    Orbital Energies [Eh]
    ---------------------

    Doubly Occupied:

       1A    -20.574931     2A    -20.566772     3A    -11.285392
       4A    -11.284389     5A     -1.409875     6A     -1.365317
       7A     -0.995157     8A     -0.847745     9A     -0.718663
      10A     -0.700287    11A     -0.648669    12A     -0.625833
      13A     -0.587496    14A     -0.535122    15A     -0.505847
      16A     -0.459836    17A     -0.425864

  @DF-RHF Final Energy:  -229.01668026266901

   => Energetics <=

    Nuclear Repulsion Energy =            134.8441680665659419
    One-Electron Energy =                -580.6473093314792777
    Two-Electron Energy =                 216.7864610022443230
    Total Energy =                       -229.0166802626690128
  Basis Set: (AUG-CC-PVTZ AUX)
    Blend: AUG-CC-PVTZ-RI
    Molecular point group: c1

    Geometry (in Angstrom), charge = 0, multiplicity = 1:

       Center              X                  Y                   Z               Mass
    ------------   -----------------  -----------------  -----------------  -----------------
         O            1.377121255778    -0.546019297056     0.078584366131    15.994914619570
         O           -1.396093744222    -0.528860297056    -0.138993633869    15.994914619570
         C            0.689520255778     0.666627702944    -0.263553633869    12.000000000000
         C           -0.730664744222     0.542977502944     0.255536866131    12.000000000000
         H            1.243763255778     1.553102702944     0.072853366131     1.007825032230
         H            0.644353255778     0.673675702944    -1.354323633869     1.007825032230
         H           -1.295412744222     1.499508702944    -0.026009633869     1.007825032230
         H           -0.664768744222     0.667953702944     1.409123366131     1.007825032230
         H            1.596850255778    -0.495718297056     1.025066366131     1.007825032230
         H           -0.733777744222    -1.241965297056    -0.072516633869     1.007825032230

  Basis Set: AUG-CC-PVTZ
    Blend: AUG-CC-PVTZ
  Basis Set: (AUG-CC-PVTZ AUX)
    Blend: AUG-CC-PVTZ-JKFIT
	 Reference Energy          =    -229.0166802626690128 [Eh]
	 Singles Energy            =      -0.0000000000000000 [Eh]
	 Same-Spin Energy          =      -0.2172011700938336 [Eh]
	 Opposite-Spin Energy      =      -0.7044725466238400 [Eh]
	 Correlation Energy        =      -0.9216737167176736 [Eh]
	 Total Energy              =    -229.9383539793866760 [Eh]

	 ================> DF-SCS-MP2 Energies <==================
	-----------------------------------------------------------
	 SCS Same-Spin Scale       =       0.3333333333333333 [-]
	 SCS Opposite-Spin Scale   =       1.2000000000000000 [-]
	 SCS Same-Spin Energy      =      -0.0724003900312779 [Eh]
	 SCS Opposite-Spin Energy  =      -0.8453670559486079 [Eh]
	 SCS Correlation Energy    =      -0.9177674459798858 [Eh]
	 SCS Total Energy          =    -229.9344477086488894 [Eh]
	-----------------------------------------------------------

  Dipole Moment: [D]
     X:     1.2782      Y:     1.1592      Z:     1.2750     Total:     2.1455

*** Psi4 exiting successfully. Buy a developer a beer!
