                               Psi4 1.4a3.dev225

  ==> Input File <==

--------------------------------------------------------------------------
#psi4
#
memory 32 gb

molecule  {
0 1
  O        1.3629200    -0.6007480     0.0540100
  O       -1.4102950    -0.5835890    -0.1635680
  C        0.6753190     0.6118990    -0.2881280
  C       -0.6834779     0.5802651     0.2642556
  H        1.2295620     1.4983740     0.0482790
  H        0.6301520     0.6189470    -1.3788980
  H       -1.3096140     1.4447800    -0.0505840
  H       -0.6789700     0.6132250     1.3845490
  H        1.5826490    -0.5504470     1.0004920
  H       -0.7479790    -1.2966940    -0.0970910
units angstrom
no_reorient  #important for SAPT in psi4, default
symmetry c1  #important for SAPT in psi4, default
}

set PROPERTIES_ORIGIN ["COM"]
properties('MP2/aug-cc-pvtz', properties = ['dipole'])
--------------------------------------------------------------------------

    Molecular point group: c1
  Charge       = 0
  Multiplicity = 1
  Basis Set: AUG-CC-PVTZ
    Blend: AUG-CC-PVTZ
  Basis Set: (AUG-CC-PVTZ AUX)
    Blend: AUG-CC-PVTZ-JKFIT

    Orbital Energies [Eh]
    ---------------------

    Doubly Occupied:

       1A    -20.577250     2A    -20.554688     3A    -11.286172
       4A    -11.281797     5A     -1.381467     6A     -1.343124
       7A     -1.013597     8A     -0.846976     9A     -0.706906
      10A     -0.692012    11A     -0.647948    12A     -0.612365
      13A     -0.566257    14A     -0.525592    15A     -0.512072
      16A     -0.473880    17A     -0.443461

  @DF-RHF Final Energy:  -229.02462915289951

   => Energetics <=

    Nuclear Repulsion Energy =            133.9391588876158607
    One-Electron Energy =                -578.9964498333177971
    Two-Electron Energy =                 216.0326617928024291
    Total Energy =                       -229.0246291528995073
  Basis Set: (AUG-CC-PVTZ AUX)
    Blend: AUG-CC-PVTZ-RI
    Molecular point group: c1

    Geometry (in Angstrom), charge = 0, multiplicity = 1:

       Center              X                  Y                   Z               Mass
    ------------   -----------------  -----------------  -----------------  -----------------
         O            1.365246732201    -0.563818344817     0.072144360644    15.994914619570
         O           -1.407968267799    -0.546659344817    -0.145433639356    15.994914619570
         C            0.677645732201     0.648828655183    -0.269993639356    12.000000000000
         C           -0.681151167799     0.617194755183     0.282389960644    12.000000000000
         H            1.231888732201     1.535303655183     0.066413360644     1.007825032230
         H            0.632478732201     0.655876655183    -1.360763639356     1.007825032230
         H           -1.307287267799     1.481709655183    -0.032449639356     1.007825032230
         H           -0.676643267799     0.650154655183     1.402683360644     1.007825032230
         H            1.584975732201    -0.513517344817     1.018626360644     1.007825032230
         H           -0.745652267799    -1.259764344817    -0.078956639356     1.007825032230

  Basis Set: AUG-CC-PVTZ
    Blend: AUG-CC-PVTZ
  Basis Set: (AUG-CC-PVTZ AUX)
    Blend: AUG-CC-PVTZ-JKFIT
	 Reference Energy          =    -229.0246291528995073 [Eh]
	 Singles Energy            =      -0.0000000000000000 [Eh]
	 Same-Spin Energy          =      -0.2173023784166019 [Eh]
	 Opposite-Spin Energy      =      -0.7059391575990197 [Eh]
	 Correlation Energy        =      -0.9232415360156216 [Eh]
	 Total Energy              =    -229.9478706889151169 [Eh]

	 ================> DF-SCS-MP2 Energies <==================
	-----------------------------------------------------------
	 SCS Same-Spin Scale       =       0.3333333333333333 [-]
	 SCS Opposite-Spin Scale   =       1.2000000000000000 [-]
	 SCS Same-Spin Energy      =      -0.0724341261388673 [Eh]
	 SCS Opposite-Spin Energy  =      -0.8471269891188237 [Eh]
	 SCS Correlation Energy    =      -0.9195611152576910 [Eh]
	 SCS Total Energy          =    -229.9441902681572003 [Eh]
	-----------------------------------------------------------

  Dipole Moment: [D]
     X:     1.4686      Y:     1.5260      Z:     1.4559     Total:     2.5701

*** Psi4 exiting successfully. Buy a developer a beer!
