                               Psi4 1.4a3.dev225

  ==> Input File <==

--------------------------------------------------------------------------
#psi4
#
memory 32 gb

molecule  {
0 1
  O        1.3629200    -0.6007480     0.0540100
  O       -1.4102950    -0.5835890    -0.1635680
  C        0.6632571     0.6572036    -0.3127498
  C       -0.7297860     0.5791870     0.2830810
  H        1.2295620     1.4983740     0.0482790
  H        0.6301520     0.6189470    -1.3788980
  H       -1.3096140     1.4447800    -0.0505840
  H       -0.6789700     0.6132250     1.3845490
  H        1.5826490    -0.5504470     1.0004920
  H       -0.7479790    -1.2966940    -0.0970910
units angstrom
no_reorient  #important for SAPT in psi4, default
symmetry c1  #important for SAPT in psi4, default
}

set PROPERTIES_ORIGIN ["COM"]
properties('MP2/aug-cc-pvtz', properties = ['dipole'])
--------------------------------------------------------------------------

    Molecular point group: c1
  Charge       = 0
  Multiplicity = 1
  Basis Set: AUG-CC-PVTZ
    Blend: AUG-CC-PVTZ
  Basis Set: (AUG-CC-PVTZ AUX)
    Blend: AUG-CC-PVTZ-JKFIT

    Orbital Energies [Eh]
    ---------------------

    Doubly Occupied:

       1A    -20.570761     2A    -20.556013     3A    -11.286672
       4A    -11.282161     5A     -1.369677     6A     -1.339681
       7A     -1.006003     8A     -0.852830     9A     -0.702112
      10A     -0.687638    11A     -0.641256    12A     -0.611545
      13A     -0.570362    14A     -0.528180    15A     -0.510721
      16A     -0.473027    17A     -0.442788

  @DF-RHF Final Energy:  -229.02491828937167

   => Energetics <=

    Nuclear Repulsion Energy =            132.9895218054661541
    One-Electron Energy =                -577.1660240342808947
    Two-Electron Energy =                 215.1515839394430714
    Total Energy =                       -229.0249182893716693
  Basis Set: (AUG-CC-PVTZ AUX)
    Blend: AUG-CC-PVTZ-RI
    Molecular point group: c1

    Geometry (in Angstrom), charge = 0, multiplicity = 1:

       Center              X                  Y                   Z               Mass
    ------------   -----------------  -----------------  -----------------  -----------------
         O            1.376537453712    -0.572373237654     0.073265579389    15.994914619570
         O           -1.396677546288    -0.555214237654    -0.144312420611    15.994914619570
         C            0.676874553712     0.685578362346    -0.293494220611    12.000000000000
         C           -0.716168546288     0.607561762346     0.302336579389    12.000000000000
         H            1.243179453712     1.526748762346     0.067534579389     1.007825032230
         H            0.643769453712     0.647321762346    -1.359642420611     1.007825032230
         H           -1.295996546288     1.473154762346    -0.031328420611     1.007825032230
         H           -0.665352546288     0.641599762346     1.403804579389     1.007825032230
         H            1.596266453712    -0.522072237654     1.019747579389     1.007825032230
         H           -0.734361546288    -1.268319237654    -0.077835420611     1.007825032230

  Basis Set: AUG-CC-PVTZ
    Blend: AUG-CC-PVTZ
  Basis Set: (AUG-CC-PVTZ AUX)
    Blend: AUG-CC-PVTZ-JKFIT
	 Reference Energy          =    -229.0249182893716693 [Eh]
	 Singles Energy            =      -0.0000000000000000 [Eh]
	 Same-Spin Energy          =      -0.2169057649622008 [Eh]
	 Opposite-Spin Energy      =      -0.7059551669548276 [Eh]
	 Correlation Energy        =      -0.9228609319170284 [Eh]
	 Total Energy              =    -229.9477792212886982 [Eh]

	 ================> DF-SCS-MP2 Energies <==================
	-----------------------------------------------------------
	 SCS Same-Spin Scale       =       0.3333333333333333 [-]
	 SCS Opposite-Spin Scale   =       1.2000000000000000 [-]
	 SCS Same-Spin Energy      =      -0.0723019216540669 [Eh]
	 SCS Opposite-Spin Energy  =      -0.8471462003457931 [Eh]
	 SCS Correlation Energy    =      -0.9194481219998600 [Eh]
	 SCS Total Energy          =    -229.9443664113715329 [Eh]
	-----------------------------------------------------------

  Dipole Moment: [D]
     X:     1.3349      Y:     1.6278      Z:     1.4195     Total:     2.5390

*** Psi4 exiting successfully. Buy a developer a beer!
