                               Psi4 1.4a3.dev225

  ==> Input File <==

--------------------------------------------------------------------------
#psi4
#
memory 32 gb

molecule  {
0 1
  O        1.3629200    -0.6007480     0.0540100
  O       -1.4031180    -0.5687833    -0.2102992
  C        0.6753190     0.6118990    -0.2881280
  C       -0.7297860     0.5791870     0.2830810
  H        1.2295620     1.4983740     0.0482790
  H        0.6301520     0.6189470    -1.3788980
  H       -1.3096140     1.4447800    -0.0505840
  H       -0.6789700     0.6132250     1.3845490
  H        1.5826490    -0.5504470     1.0004920
  H       -0.7479790    -1.2966940    -0.0970910
units angstrom
no_reorient  #important for SAPT in psi4, default
symmetry c1  #important for SAPT in psi4, default
}

set PROPERTIES_ORIGIN ["COM"]
properties('MP2/aug-cc-pvtz', properties = ['dipole'])
--------------------------------------------------------------------------

    Molecular point group: c1
  Charge       = 0
  Multiplicity = 1
  Basis Set: AUG-CC-PVTZ
    Blend: AUG-CC-PVTZ
  Basis Set: (AUG-CC-PVTZ AUX)
    Blend: AUG-CC-PVTZ-JKFIT

    Orbital Energies [Eh]
    ---------------------

    Doubly Occupied:

       1A    -20.576446     2A    -20.556504     3A    -11.285523
       4A    -11.280284     5A     -1.380217     6A     -1.346096
       7A     -1.000733     8A     -0.850007     9A     -0.705251
      10A     -0.690892    11A     -0.643957    12A     -0.615566
      13A     -0.570654    14A     -0.524423    15A     -0.510177
      16A     -0.475983    17A     -0.437911

  @DF-RHF Final Energy:  -229.02678982579818

   => Energetics <=

    Nuclear Repulsion Energy =            133.6136877973638377
    One-Electron Energy =                -578.3797069374156763
    Two-Electron Energy =                 215.7392293142536914
    Total Energy =                       -229.0267898257981756
  Basis Set: (AUG-CC-PVTZ AUX)
    Blend: AUG-CC-PVTZ-RI
    Molecular point group: c1

    Geometry (in Angstrom), charge = 0, multiplicity = 1:

       Center              X                  Y                   Z               Mass
    ------------   -----------------  -----------------  -----------------  -----------------
         O            1.372353833856    -0.567427150906     0.080551579052    15.994914619570
         O           -1.393684166144    -0.535462450906    -0.183757620948    15.994914619570
         C            0.684752833856     0.645219849094    -0.261586420948    12.000000000000
         C           -0.720352166144     0.612507849094     0.309622579052    12.000000000000
         H            1.238995833856     1.531694849094     0.074820579052     1.007825032230
         H            0.639585833856     0.652267849094    -1.352356420948     1.007825032230
         H           -1.300180166144     1.478100849094    -0.024042420948     1.007825032230
         H           -0.669536166144     0.646545849094     1.411090579052     1.007825032230
         H            1.592082833856    -0.517126150906     1.027033579052     1.007825032230
         H           -0.738545166144    -1.263373150906    -0.070549420948     1.007825032230

  Basis Set: AUG-CC-PVTZ
    Blend: AUG-CC-PVTZ
  Basis Set: (AUG-CC-PVTZ AUX)
    Blend: AUG-CC-PVTZ-JKFIT
	 Reference Energy          =    -229.0267898257981756 [Eh]
	 Singles Energy            =      -0.0000000000000000 [Eh]
	 Same-Spin Energy          =      -0.2170376242198437 [Eh]
	 Opposite-Spin Energy      =      -0.7056174494416114 [Eh]
	 Correlation Energy        =      -0.9226550736614552 [Eh]
	 Total Energy              =    -229.9494448994596212 [Eh]

	 ================> DF-SCS-MP2 Energies <==================
	-----------------------------------------------------------
	 SCS Same-Spin Scale       =       0.3333333333333333 [-]
	 SCS Opposite-Spin Scale   =       1.2000000000000000 [-]
	 SCS Same-Spin Energy      =      -0.0723458747399479 [Eh]
	 SCS Opposite-Spin Energy  =      -0.8467409393299337 [Eh]
	 SCS Correlation Energy    =      -0.9190868140698816 [Eh]
	 SCS Total Energy          =    -229.9458766398680609 [Eh]
	-----------------------------------------------------------

  Dipole Moment: [D]
     X:     1.3764      Y:     1.4517      Z:     1.5779     Total:     2.5479

*** Psi4 exiting successfully. Buy a developer a beer!
