                               Psi4 1.4a3.dev225

  ==> Input File <==

--------------------------------------------------------------------------
#psi4
#
memory 32 gb

molecule  {
0 1
  O        1.3629200    -0.6007480     0.0540100
  O       -1.4102950    -0.5835890    -0.1635680
  C        0.6753190     0.6118990    -0.2881280
  C       -0.7297860     0.5791870     0.2830810
  H        1.2295620     1.4983740     0.0482790
  H        0.6301520     0.6189470    -1.3788980
  H       -1.2566121     1.3656564    -0.0200838
  H       -0.6789700     0.6132250     1.3845490
  H        1.5826490    -0.5504470     1.0004920
  H       -0.7479790    -1.2966940    -0.0970910
units angstrom
no_reorient  #important for SAPT in psi4, default
symmetry c1  #important for SAPT in psi4, default
}

set PROPERTIES_ORIGIN ["COM"]
properties('MP2/aug-cc-pvtz', properties = ['dipole'])
--------------------------------------------------------------------------

    Molecular point group: c1
  Charge       = 0
  Multiplicity = 1
  Basis Set: AUG-CC-PVTZ
    Blend: AUG-CC-PVTZ
  Basis Set: (AUG-CC-PVTZ AUX)
    Blend: AUG-CC-PVTZ-JKFIT

    Orbital Energies [Eh]
    ---------------------

    Doubly Occupied:

       1A    -20.575909     2A    -20.553694     3A    -11.285835
       4A    -11.267791     5A     -1.379934     6A     -1.346564
       7A     -1.007326     8A     -0.859706     9A     -0.706665
      10A     -0.691480    11A     -0.645249    12A     -0.622799
      13A     -0.575810    14A     -0.527334    15A     -0.512112
      16A     -0.476415    17A     -0.437652

  @DF-RHF Final Energy:  -229.02218958004354

   => Energetics <=

    Nuclear Repulsion Energy =            134.0579090081381821
    One-Electron Energy =                -579.2156463593375975
    Two-Electron Energy =                 216.1355477711558990
    Total Energy =                       -229.0221895800435448
  Basis Set: (AUG-CC-PVTZ AUX)
    Blend: AUG-CC-PVTZ-RI
    Molecular point group: c1

    Geometry (in Angstrom), charge = 0, multiplicity = 1:

       Center              X                  Y                   Z               Mass
    ------------   -----------------  -----------------  -----------------  -----------------
         O            1.373343228554    -0.562324393235     0.068007400805    15.994914619570
         O           -1.399871771446    -0.545165393235    -0.149570599195    15.994914619570
         C            0.685742228554     0.650322606765    -0.274130599195    12.000000000000
         C           -0.719362771446     0.617610606765     0.297078400805    12.000000000000
         H            1.239985228554     1.536797606765     0.062276400805     1.007825032230
         H            0.640575228554     0.657370606765    -1.364900599195     1.007825032230
         H           -1.246188871446     1.404080006765    -0.006086399195     1.007825032230
         H           -0.668546771446     0.651648606765     1.398546400805     1.007825032230
         H            1.593072228554    -0.512023393235     1.014489400805     1.007825032230
         H           -0.737555771446    -1.258270393235    -0.083093599195     1.007825032230

  Basis Set: AUG-CC-PVTZ
    Blend: AUG-CC-PVTZ
  Basis Set: (AUG-CC-PVTZ AUX)
    Blend: AUG-CC-PVTZ-JKFIT
	 Reference Energy          =    -229.0221895800435448 [Eh]
	 Singles Energy            =      -0.0000000000000000 [Eh]
	 Same-Spin Energy          =      -0.2168096066871315 [Eh]
	 Opposite-Spin Energy      =      -0.7046763678951260 [Eh]
	 Correlation Energy        =      -0.9214859745822574 [Eh]
	 Total Energy              =    -229.9436755546257984 [Eh]

	 ================> DF-SCS-MP2 Energies <==================
	-----------------------------------------------------------
	 SCS Same-Spin Scale       =       0.3333333333333333 [-]
	 SCS Opposite-Spin Scale   =       1.2000000000000000 [-]
	 SCS Same-Spin Energy      =      -0.0722698688957105 [Eh]
	 SCS Opposite-Spin Energy  =      -0.8456116414741511 [Eh]
	 SCS Correlation Energy    =      -0.9178815103698617 [Eh]
	 SCS Total Energy          =    -229.9400710904133973 [Eh]
	-----------------------------------------------------------

  Dipole Moment: [D]
     X:     1.3968      Y:     1.5386      Z:     1.4719     Total:     2.5466

*** Psi4 exiting successfully. Buy a developer a beer!
