                               Psi4 1.4a3.dev225

  ==> Input File <==

--------------------------------------------------------------------------
#psi4
#
memory 32 gb

molecule  {
0 1
  O        1.3629200    -0.6007480     0.0540100
  O       -1.4102950    -0.5835890    -0.1635680
  C        0.6753190     0.6118990    -0.2881280
  C       -0.7297860     0.5791870     0.2830810
  H        1.2295620     1.4983740     0.0482790
  H        0.6301520     0.6189470    -1.3788980
  H       -1.2990136     1.4289553    -0.0444840
  H       -0.6789700     0.6132250     1.3845490
  H        1.5826490    -0.5504470     1.0004920
  H       -0.7479790    -1.2966940    -0.0970910
units angstrom
no_reorient  #important for SAPT in psi4, default
symmetry c1  #important for SAPT in psi4, default
}

set PROPERTIES_ORIGIN ["COM"]
properties('MP2/aug-cc-pvtz', properties = ['dipole'])
--------------------------------------------------------------------------

    Molecular point group: c1
  Charge       = 0
  Multiplicity = 1
  Basis Set: AUG-CC-PVTZ
    Blend: AUG-CC-PVTZ
  Basis Set: (AUG-CC-PVTZ AUX)
    Blend: AUG-CC-PVTZ-JKFIT

    Orbital Energies [Eh]
    ---------------------

    Doubly Occupied:

       1A    -20.576544     2A    -20.554777     3A    -11.286411
       4A    -11.277856     5A     -1.380530     6A     -1.347170
       7A     -1.002626     8A     -0.852593     9A     -0.705953
      10A     -0.690733    11A     -0.644942    12A     -0.617500
      13A     -0.572724    14A     -0.526724    15A     -0.511064
      16A     -0.474321    17A     -0.438336

  @DF-RHF Final Energy:  -229.02813718844416

   => Energetics <=

    Nuclear Repulsion Energy =            133.6612079877236283
    One-Electron Energy =                -578.4570861304138134
    Two-Electron Energy =                 215.7677409542460225
    Total Energy =                       -229.0281371884441626
  Basis Set: (AUG-CC-PVTZ AUX)
    Blend: AUG-CC-PVTZ-RI
    Molecular point group: c1

    Geometry (in Angstrom), charge = 0, multiplicity = 1:

       Center              X                  Y                   Z               Mass
    ------------   -----------------  -----------------  -----------------  -----------------
         O            1.374032066587    -0.563352722180     0.068403796823    15.994914619570
         O           -1.399182933413    -0.546193722180    -0.149174203177    15.994914619570
         C            0.686431066587     0.649294277820    -0.273734203177    12.000000000000
         C           -0.718673933413     0.616582277820     0.297474796823    12.000000000000
         H            1.240674066587     1.535769277820     0.062672796823     1.007825032230
         H            0.641264066587     0.656342277820    -1.364504203177     1.007825032230
         H           -1.287901533413     1.466350577820    -0.030090203177     1.007825032230
         H           -0.667857933413     0.650620277820     1.398942796823     1.007825032230
         H            1.593761066587    -0.513051722180     1.014885796823     1.007825032230
         H           -0.736866933413    -1.259298722180    -0.082697203177     1.007825032230

  Basis Set: AUG-CC-PVTZ
    Blend: AUG-CC-PVTZ
  Basis Set: (AUG-CC-PVTZ AUX)
    Blend: AUG-CC-PVTZ-JKFIT
	 Reference Energy          =    -229.0281371884441626 [Eh]
	 Singles Energy            =      -0.0000000000000000 [Eh]
	 Same-Spin Energy          =      -0.2168253217978082 [Eh]
	 Opposite-Spin Energy      =      -0.7050420193828116 [Eh]
	 Correlation Energy        =      -0.9218673411806199 [Eh]
	 Total Energy              =    -229.9500045296247777 [Eh]

	 ================> DF-SCS-MP2 Energies <==================
	-----------------------------------------------------------
	 SCS Same-Spin Scale       =       0.3333333333333333 [-]
	 SCS Opposite-Spin Scale   =       1.2000000000000000 [-]
	 SCS Same-Spin Energy      =      -0.0722751072659361 [Eh]
	 SCS Opposite-Spin Energy  =      -0.8460504232593740 [Eh]
	 SCS Correlation Energy    =      -0.9183255305253101 [Eh]
	 SCS Total Energy          =    -229.9464627189694852 [Eh]
	-----------------------------------------------------------

  Dipole Moment: [D]
     X:     1.4105      Y:     1.4997      Z:     1.4733     Total:     2.5317

*** Psi4 exiting successfully. Buy a developer a beer!
