                               Psi4 1.4a3.dev225

  ==> Input File <==

--------------------------------------------------------------------------
#psi4
#
memory 32 gb

molecule  {
0 1
  O        1.3629200    -0.6007480     0.0540100
  O       -1.4102950    -0.5835890    -0.1635680
  C        0.6513674     0.6541398    -0.3000459
  C       -0.7297860     0.5791870     0.2830810
  H        1.2295620     1.4983740     0.0482790
  H        0.6301520     0.6189470    -1.3788980
  H       -1.3096140     1.4447800    -0.0505840
  H       -0.6789700     0.6132250     1.3845490
  H        1.5826490    -0.5504470     1.0004920
  H       -0.7479790    -1.2966940    -0.0970910
units angstrom
no_reorient  #important for SAPT in psi4, default
symmetry c1  #important for SAPT in psi4, default
}

set PROPERTIES_ORIGIN ["COM"]
properties('MP2/aug-cc-pvtz', properties = ['dipole'])
--------------------------------------------------------------------------

    Molecular point group: c1
  Charge       = 0
  Multiplicity = 1
  Basis Set: AUG-CC-PVTZ
    Blend: AUG-CC-PVTZ
  Basis Set: (AUG-CC-PVTZ AUX)
    Blend: AUG-CC-PVTZ-JKFIT

    Orbital Energies [Eh]
    ---------------------

    Doubly Occupied:

       1A    -20.571120     2A    -20.556277     3A    -11.287153
       4A    -11.281794     5A     -1.370454     6A     -1.340007
       7A     -1.008949     8A     -0.851388     9A     -0.702346
      10A     -0.688267    11A     -0.642471    12A     -0.612488
      13A     -0.568046    14A     -0.526025    15A     -0.510681
      16A     -0.474433    17A     -0.444655

  @DF-RHF Final Energy:  -229.02513665545789

   => Energetics <=

    Nuclear Repulsion Energy =            133.1614896605400702
    One-Electron Energy =                -577.5001449644616969
    Two-Electron Energy =                 215.3135186484637700
    Total Energy =                       -229.0251366554578851
  Basis Set: (AUG-CC-PVTZ AUX)
    Blend: AUG-CC-PVTZ-RI
    Molecular point group: c1

    Geometry (in Angstrom), charge = 0, multiplicity = 1:

       Center              X                  Y                   Z               Mass
    ------------   -----------------  -----------------  -----------------  -----------------
         O            1.378837321650    -0.571780595670     0.070808217782    15.994914619570
         O           -1.394377678350    -0.554621595670    -0.146769782218    15.994914619570
         C            0.667284721650     0.683107204330    -0.283247682218    12.000000000000
         C           -0.713868678350     0.608154404330     0.299879217782    12.000000000000
         H            1.245479321650     1.527341404330     0.065077217782     1.007825032230
         H            0.646069321650     0.647914404330    -1.362099782218     1.007825032230
         H           -1.293696678350     1.473747404330    -0.033785782218     1.007825032230
         H           -0.663052678350     0.642192404330     1.401347217782     1.007825032230
         H            1.598566321650    -0.521479595670     1.017290217782     1.007825032230
         H           -0.732061678350    -1.267726595670    -0.080292782218     1.007825032230

  Basis Set: AUG-CC-PVTZ
    Blend: AUG-CC-PVTZ
  Basis Set: (AUG-CC-PVTZ AUX)
    Blend: AUG-CC-PVTZ-JKFIT
	 Reference Energy          =    -229.0251366554578851 [Eh]
	 Singles Energy            =      -0.0000000000000000 [Eh]
	 Same-Spin Energy          =      -0.2170348122564468 [Eh]
	 Opposite-Spin Energy      =      -0.7060718054109482 [Eh]
	 Correlation Energy        =      -0.9231066176673950 [Eh]
	 Total Energy              =    -229.9482432731252857 [Eh]

	 ================> DF-SCS-MP2 Energies <==================
	-----------------------------------------------------------
	 SCS Same-Spin Scale       =       0.3333333333333333 [-]
	 SCS Opposite-Spin Scale   =       1.2000000000000000 [-]
	 SCS Same-Spin Energy      =      -0.0723449374188156 [Eh]
	 SCS Opposite-Spin Energy  =      -0.8472861664931378 [Eh]
	 SCS Correlation Energy    =      -0.9196311039119535 [Eh]
	 SCS Total Energy          =    -229.9447677593698245 [Eh]
	-----------------------------------------------------------

  Dipole Moment: [D]
     X:     1.3220      Y:     1.6261      Z:     1.4315     Total:     2.5379

*** Psi4 exiting successfully. Buy a developer a beer!
