                               Psi4 1.4a3.dev225

  ==> Input File <==

--------------------------------------------------------------------------
#psi4
#
memory 32 gb

molecule  {
0 1
  O        1.3629200    -0.6007480     0.0540100
  O       -1.4102950    -0.5835890    -0.1635680
  C        0.6753190     0.6118990    -0.2881280
  C       -0.7342012     0.5564202     0.2703026
  H        1.2295620     1.4983740     0.0482790
  H        0.6301520     0.6189470    -1.3788980
  H       -1.3096140     1.4447800    -0.0505840
  H       -0.6789700     0.6132250     1.3845490
  H        1.5826490    -0.5504470     1.0004920
  H       -0.7479790    -1.2966940    -0.0970910
units angstrom
no_reorient  #important for SAPT in psi4, default
symmetry c1  #important for SAPT in psi4, default
}

set PROPERTIES_ORIGIN ["COM"]
properties('MP2/aug-cc-pvtz', properties = ['dipole'])
--------------------------------------------------------------------------

    Molecular point group: c1
  Charge       = 0
  Multiplicity = 1
  Basis Set: AUG-CC-PVTZ
    Blend: AUG-CC-PVTZ
  Basis Set: (AUG-CC-PVTZ AUX)
    Blend: AUG-CC-PVTZ-JKFIT

    Orbital Energies [Eh]
    ---------------------

    Doubly Occupied:

       1A    -20.576232     2A    -20.557856     3A    -11.285913
       4A    -11.281107     5A     -1.384420     6A     -1.354344
       7A     -0.999913     8A     -0.849798     9A     -0.707945
      10A     -0.693101    11A     -0.645394    12A     -0.618353
      13A     -0.575386    14A     -0.528866    15A     -0.509327
      16A     -0.471082    17A     -0.436375

  @DF-RHF Final Energy:  -229.02761197596789

   => Energetics <=

    Nuclear Repulsion Energy =            133.8744472122259026
    One-Electron Energy =                -578.8532909879018007
    Two-Electron Energy =                 215.9512317997080117
    Total Energy =                       -229.0276119759678863
  Basis Set: (AUG-CC-PVTZ AUX)
    Blend: AUG-CC-PVTZ-RI
    Molecular point group: c1

    Geometry (in Angstrom), charge = 0, multiplicity = 1:

       Center              X                  Y                   Z               Mass
    ------------   -----------------  -----------------  -----------------  -----------------
         O            1.375058324704    -0.559205939037     0.070974667428    15.994914619570
         O           -1.398156675296    -0.542046939037    -0.146603332572    15.994914619570
         C            0.687457324704     0.653441060963    -0.271163332572    12.000000000000
         C           -0.722062875296     0.597962260963     0.287267267428    12.000000000000
         H            1.241700324704     1.539916060963     0.065243667428     1.007825032230
         H            0.642290324704     0.660489060963    -1.361933332572     1.007825032230
         H           -1.297475675296     1.486322060963    -0.033619332572     1.007825032230
         H           -0.666831675296     0.654767060963     1.401513667428     1.007825032230
         H            1.594787324704    -0.508904939037     1.017456667428     1.007825032230
         H           -0.735840675296    -1.255151939037    -0.080126332572     1.007825032230

  Basis Set: AUG-CC-PVTZ
    Blend: AUG-CC-PVTZ
  Basis Set: (AUG-CC-PVTZ AUX)
    Blend: AUG-CC-PVTZ-JKFIT
	 Reference Energy          =    -229.0276119759678863 [Eh]
	 Singles Energy            =      -0.0000000000000000 [Eh]
	 Same-Spin Energy          =      -0.2168698999329864 [Eh]
	 Opposite-Spin Energy      =      -0.7048707798742589 [Eh]
	 Correlation Energy        =      -0.9217406798072454 [Eh]
	 Total Energy              =    -229.9493526557751295 [Eh]

	 ================> DF-SCS-MP2 Energies <==================
	-----------------------------------------------------------
	 SCS Same-Spin Scale       =       0.3333333333333333 [-]
	 SCS Opposite-Spin Scale   =       1.2000000000000000 [-]
	 SCS Same-Spin Energy      =      -0.0722899666443288 [Eh]
	 SCS Opposite-Spin Energy  =      -0.8458449358491107 [Eh]
	 SCS Correlation Energy    =      -0.9181349024934394 [Eh]
	 SCS Total Energy          =    -229.9457468784613354 [Eh]
	-----------------------------------------------------------

  Dipole Moment: [D]
     X:     1.3811      Y:     1.4127      Z:     1.4307     Total:     2.4393

*** Psi4 exiting successfully. Buy a developer a beer!
