                               Psi4 1.4a3.dev225

  ==> Input File <==

--------------------------------------------------------------------------
#psi4
#
memory 32 gb

molecule  {
0 1
  O        1.3629200    -0.6007480     0.0540100
  O       -1.4102950    -0.5835890    -0.1635680
  C        0.6753190     0.6118990    -0.2881280
  C       -0.7297860     0.5791870     0.2830810
  H        1.2295620     1.4983740     0.0482790
  H        0.6301520     0.6189470    -1.3788980
  H       -1.3096140     1.4447800    -0.0505840
  H       -0.6697572     0.6193960     1.5842414
  H        1.5826490    -0.5504470     1.0004920
  H       -0.7479790    -1.2966940    -0.0970910
units angstrom
no_reorient  #important for SAPT in psi4, default
symmetry c1  #important for SAPT in psi4, default
}

set PROPERTIES_ORIGIN ["COM"]
properties('MP2/aug-cc-pvtz', properties = ['dipole'])
--------------------------------------------------------------------------

    Molecular point group: c1
  Charge       = 0
  Multiplicity = 1
  Basis Set: AUG-CC-PVTZ
    Blend: AUG-CC-PVTZ
  Basis Set: (AUG-CC-PVTZ AUX)
    Blend: AUG-CC-PVTZ-JKFIT

    Orbital Energies [Eh]
    ---------------------

    Doubly Occupied:

       1A    -20.577332     2A    -20.561727     3A    -11.304847
       4A    -11.290159     5A     -1.382515     6A     -1.351046
       7A     -0.998838     8A     -0.842149     9A     -0.706564
      10A     -0.690189    11A     -0.635839    12A     -0.611782
      13A     -0.572187    14A     -0.528462    15A     -0.512384
      16A     -0.469200    17A     -0.430352

  @DF-RHF Final Energy:  -229.00866397579011

   => Energetics <=

    Nuclear Repulsion Energy =            132.7739334712896664
    One-Electron Energy =                -576.6340484139458340
    Two-Electron Energy =                 214.8514509668660821
    Total Energy =                       -229.0086639757901139
  Basis Set: (AUG-CC-PVTZ AUX)
    Blend: AUG-CC-PVTZ-RI
    Molecular point group: c1

    Geometry (in Angstrom), charge = 0, multiplicity = 1:

       Center              X                  Y                   Z               Mass
    ------------   -----------------  -----------------  -----------------  -----------------
         O            1.374054608989    -0.563710055641     0.065258771105    15.994914619570
         O           -1.399160391011    -0.546551055641    -0.152319228895    15.994914619570
         C            0.686453608989     0.648936944359    -0.276879228895    12.000000000000
         C           -0.718651391011     0.616224944359     0.294329771105    12.000000000000
         H            1.240696608989     1.535411944359     0.059527771105     1.007825032230
         H            0.641286608989     0.655984944359    -1.367649228895     1.007825032230
         H           -1.298479391011     1.481817944359    -0.039335228895     1.007825032230
         H           -0.658622591011     0.656433944359     1.595490171105     1.007825032230
         H            1.593783608989    -0.513409055641     1.011740771105     1.007825032230
         H           -0.736844391011    -1.259656055641    -0.085842228895     1.007825032230

  Basis Set: AUG-CC-PVTZ
    Blend: AUG-CC-PVTZ
  Basis Set: (AUG-CC-PVTZ AUX)
    Blend: AUG-CC-PVTZ-JKFIT
	 Reference Energy          =    -229.0086639757901139 [Eh]
	 Singles Energy            =      -0.0000000000000000 [Eh]
	 Same-Spin Energy          =      -0.2170234812077870 [Eh]
	 Opposite-Spin Energy      =      -0.7068843861560625 [Eh]
	 Correlation Energy        =      -0.9239078673638494 [Eh]
	 Total Energy              =    -229.9325718431539656 [Eh]

	 ================> DF-SCS-MP2 Energies <==================
	-----------------------------------------------------------
	 SCS Same-Spin Scale       =       0.3333333333333333 [-]
	 SCS Opposite-Spin Scale   =       1.2000000000000000 [-]
	 SCS Same-Spin Energy      =      -0.0723411604025957 [Eh]
	 SCS Opposite-Spin Energy  =      -0.8482612633872750 [Eh]
	 SCS Correlation Energy    =      -0.9206024237898707 [Eh]
	 SCS Total Energy          =    -229.9292663995799728 [Eh]
	-----------------------------------------------------------

  Dipole Moment: [D]
     X:     1.3823      Y:     1.4080      Z:     1.2207     Total:     2.3202

*** Psi4 exiting successfully. Buy a developer a beer!
