                               Psi4 1.4a3.dev225

  ==> Input File <==

--------------------------------------------------------------------------
#psi4
#
memory 32 gb

molecule  {
0 1
  O        1.4425994    -0.5653556     0.0046494
  O       -1.4102950    -0.5835890    -0.1635680
  C        0.6753190     0.6118990    -0.2881280
  C       -0.7297860     0.5791870     0.2830810
  H        1.2295620     1.4983740     0.0482790
  H        0.6301520     0.6189470    -1.3788980
  H       -1.3096140     1.4447800    -0.0505840
  H       -0.6789700     0.6132250     1.3845490
  H        1.5826490    -0.5504470     1.0004920
  H       -0.7479790    -1.2966940    -0.0970910
units angstrom
no_reorient  #important for SAPT in psi4, default
symmetry c1  #important for SAPT in psi4, default
}

set PROPERTIES_ORIGIN ["COM"]
properties('MP2/aug-cc-pvtz', properties = ['dipole'])
--------------------------------------------------------------------------

    Molecular point group: c1
  Charge       = 0
  Multiplicity = 1
  Basis Set: AUG-CC-PVTZ
    Blend: AUG-CC-PVTZ
  Basis Set: (AUG-CC-PVTZ AUX)
    Blend: AUG-CC-PVTZ-JKFIT

    Orbital Energies [Eh]
    ---------------------

    Doubly Occupied:

       1A    -20.580378     2A    -20.558260     3A    -11.285441
       4A    -11.283395     5A     -1.376170     6A     -1.348263
       7A     -1.001085     8A     -0.850098     9A     -0.706400
      10A     -0.682160    11A     -0.646542    12A     -0.618157
      13A     -0.569832    14A     -0.530877    15A     -0.509050
      16A     -0.473440    17A     -0.440172

  @DF-RHF Final Energy:  -229.02414173548058

   => Energetics <=

    Nuclear Repulsion Energy =            132.7868312136237137
    One-Electron Energy =                -576.7025087678160844
    Two-Electron Energy =                 214.8915358187117874
    Total Energy =                       -229.0241417354805833
  Basis Set: (AUG-CC-PVTZ AUX)
    Blend: AUG-CC-PVTZ-RI
    Molecular point group: c1

    Geometry (in Angstrom), charge = 0, multiplicity = 1:

       Center              X                  Y                   Z               Mass
    ------------   -----------------  -----------------  -----------------  -----------------
         O            1.433339973047    -0.537342610402     0.031868916058    15.994914619570
         O           -1.419554426953    -0.555576010402    -0.136348483942    15.994914619570
         C            0.666059573047     0.639911989598    -0.260908483942    12.000000000000
         C           -0.739045426953     0.607199989598     0.310300516058    12.000000000000
         H            1.220302573047     1.526386989598     0.075498516058     1.007825032230
         H            0.620892573047     0.646959989598    -1.351678483942     1.007825032230
         H           -1.318873426953     1.472792989598    -0.023364483942     1.007825032230
         H           -0.688229426953     0.641237989598     1.411768516058     1.007825032230
         H            1.573389573047    -0.522434010402     1.027711516058     1.007825032230
         H           -0.757238426953    -1.268681010402    -0.069871483942     1.007825032230

  Basis Set: AUG-CC-PVTZ
    Blend: AUG-CC-PVTZ
  Basis Set: (AUG-CC-PVTZ AUX)
    Blend: AUG-CC-PVTZ-JKFIT
	 Reference Energy          =    -229.0241417354805833 [Eh]
	 Singles Energy            =      -0.0000000000000000 [Eh]
	 Same-Spin Energy          =      -0.2171470828312673 [Eh]
	 Opposite-Spin Energy      =      -0.7063324395455488 [Eh]
	 Correlation Energy        =      -0.9234795223768161 [Eh]
	 Total Energy              =    -229.9476212578574064 [Eh]

	 ================> DF-SCS-MP2 Energies <==================
	-----------------------------------------------------------
	 SCS Same-Spin Scale       =       0.3333333333333333 [-]
	 SCS Opposite-Spin Scale   =       1.2000000000000000 [-]
	 SCS Same-Spin Energy      =      -0.0723823609437557 [Eh]
	 SCS Opposite-Spin Energy  =      -0.8475989274546586 [Eh]
	 SCS Correlation Energy    =      -0.9199812883984143 [Eh]
	 SCS Total Energy          =    -229.9441230238790013 [Eh]
	-----------------------------------------------------------

  Dipole Moment: [D]
     X:     1.1730      Y:     1.3935      Z:     1.5518     Total:     2.3929

*** Psi4 exiting successfully. Buy a developer a beer!
