                               Psi4 1.4a3.dev225

  ==> Input File <==

--------------------------------------------------------------------------
#psi4
#
memory 32 gb

molecule  {
0 1
  O        1.3629200    -0.6007480     0.0540100
  O       -1.4102950    -0.5835890    -0.1635680
  C        0.6753190     0.6118990    -0.2881280
  C       -0.7297860     0.5791870     0.2830810
  H        1.2295620     1.4983740     0.0482790
  H        0.6301520     0.6189470    -1.3788980
  H       -1.3361149     1.4843418    -0.0658341
  H       -0.6789700     0.6132250     1.3845490
  H        1.5826490    -0.5504470     1.0004920
  H       -0.7479790    -1.2966940    -0.0970910
units angstrom
no_reorient  #important for SAPT in psi4, default
symmetry c1  #important for SAPT in psi4, default
}

set PROPERTIES_ORIGIN ["COM"]
properties('MP2/aug-cc-pvtz', properties = ['dipole'])
--------------------------------------------------------------------------

    Molecular point group: c1
  Charge       = 0
  Multiplicity = 1
  Basis Set: AUG-CC-PVTZ
    Blend: AUG-CC-PVTZ
  Basis Set: (AUG-CC-PVTZ AUX)
    Blend: AUG-CC-PVTZ-JKFIT

    Orbital Energies [Eh]
    ---------------------

    Doubly Occupied:

       1A    -20.577255     2A    -20.555937     3A    -11.287187
       4A    -11.286293     5A     -1.381239     6A     -1.347937
       7A     -0.999827     8A     -0.847711     9A     -0.705810
      10A     -0.690309    11A     -0.645183    12A     -0.613617
      13A     -0.569755    14A     -0.526297    15A     -0.509897
      16A     -0.471690    17A     -0.439116

  @DF-RHF Final Energy:  -229.02590327217118

   => Energetics <=

    Nuclear Repulsion Energy =            133.3458503905186774
    One-Electron Energy =                -577.8333879967651683
    Two-Electron Energy =                 215.4616343340753417
    Total Energy =                       -229.0259032721711776
  Basis Set: (AUG-CC-PVTZ AUX)
    Blend: AUG-CC-PVTZ-RI
    Molecular point group: c1

    Geometry (in Angstrom), charge = 0, multiplicity = 1:

       Center              X                  Y                   Z               Mass
    ------------   -----------------  -----------------  -----------------  -----------------
         O            1.374634799662    -0.564252509398     0.068750642120    15.994914619570
         O           -1.398580200338    -0.547093509398    -0.148827357880    15.994914619570
         C            0.687033799662     0.648394490602    -0.273387357880    12.000000000000
         C           -0.718071200338     0.615682490602     0.297821642120    12.000000000000
         H            1.241276799662     1.534869490602     0.063019642120     1.007825032230
         H            0.641866799662     0.655442490602    -1.364157357880     1.007825032230
         H           -1.324400100338     1.520837290602    -0.051093457880     1.007825032230
         H           -0.667255200338     0.649720490602     1.399289642120     1.007825032230
         H            1.594363799662    -0.513951509398     1.015232642120     1.007825032230
         H           -0.736264200338    -1.260198509398    -0.082350357880     1.007825032230

  Basis Set: AUG-CC-PVTZ
    Blend: AUG-CC-PVTZ
  Basis Set: (AUG-CC-PVTZ AUX)
    Blend: AUG-CC-PVTZ-JKFIT
	 Reference Energy          =    -229.0259032721711776 [Eh]
	 Singles Energy            =      -0.0000000000000000 [Eh]
	 Same-Spin Energy          =      -0.2168644863196172 [Eh]
	 Opposite-Spin Energy      =      -0.7055116711242043 [Eh]
	 Correlation Energy        =      -0.9223761574438215 [Eh]
	 Total Energy              =    -229.9482794296150132 [Eh]

	 ================> DF-SCS-MP2 Energies <==================
	-----------------------------------------------------------
	 SCS Same-Spin Scale       =       0.3333333333333333 [-]
	 SCS Opposite-Spin Scale   =       1.2000000000000000 [-]
	 SCS Same-Spin Energy      =      -0.0722881621065391 [Eh]
	 SCS Opposite-Spin Energy  =      -0.8466140053490452 [Eh]
	 SCS Correlation Energy    =      -0.9189021674555843 [Eh]
	 SCS Total Energy          =    -229.9448054396267480 [Eh]
	-----------------------------------------------------------

  Dipole Moment: [D]
     X:     1.4284      Y:     1.4568      Z:     1.4765     Total:     2.5184

*** Psi4 exiting successfully. Buy a developer a beer!
