                               Psi4 1.4a3.dev225

  ==> Input File <==

--------------------------------------------------------------------------
#psi4
#
memory 32 gb

molecule  {
0 1
  O        1.3459617    -0.5604964     0.1977668
  O       -1.4102950    -0.5835890    -0.1635680
  C        0.6753190     0.6118990    -0.2881280
  C       -0.7297860     0.5791870     0.2830810
  H        1.2295620     1.4983740     0.0482790
  H        0.6301520     0.6189470    -1.3788980
  H       -1.3096140     1.4447800    -0.0505840
  H       -0.6789700     0.6132250     1.3845490
  H        1.5826490    -0.5504470     1.0004920
  H       -0.7479790    -1.2966940    -0.0970910
units angstrom
no_reorient  #important for SAPT in psi4, default
symmetry c1  #important for SAPT in psi4, default
}

set PROPERTIES_ORIGIN ["COM"]
properties('MP2/aug-cc-pvtz', properties = ['dipole'])
--------------------------------------------------------------------------

    Molecular point group: c1
  Charge       = 0
  Multiplicity = 1
  Basis Set: AUG-CC-PVTZ
    Blend: AUG-CC-PVTZ
  Basis Set: (AUG-CC-PVTZ AUX)
    Blend: AUG-CC-PVTZ-JKFIT

    Orbital Energies [Eh]
    ---------------------

    Doubly Occupied:

       1A    -20.556561     2A    -20.554868     3A    -11.290830
       4A    -11.278927     5A     -1.405287     6A     -1.352640
       7A     -1.011801     8A     -0.863948     9A     -0.720615
      10A     -0.696205    11A     -0.655774    12A     -0.612417
      13A     -0.579440    14A     -0.530144    15A     -0.504703
      16A     -0.472208    17A     -0.438673

  @DF-RHF Final Energy:  -229.01120958461513

   => Energetics <=

    Nuclear Repulsion Energy =            134.4970784982194800
    One-Electron Energy =                -579.9664941362964328
    Two-Electron Energy =                 216.4582060534618222
    Total Energy =                       -229.0112095846151306
  Basis Set: (AUG-CC-PVTZ AUX)
    Blend: AUG-CC-PVTZ-RI
    Molecular point group: c1

    Geometry (in Angstrom), charge = 0, multiplicity = 1:

       Center              X                  Y                   Z               Mass
    ------------   -----------------  -----------------  -----------------  -----------------
         O            1.361618327275    -0.533736255727     0.175194944668    15.994914619570
         O           -1.394638372725    -0.556828855727    -0.186139855332    15.994914619570
         C            0.690975627275     0.638659144273    -0.310699855332    12.000000000000
         C           -0.714129372725     0.605947144273     0.260509144668    12.000000000000
         H            1.245218627275     1.525134144273     0.025707144668     1.007825032230
         H            0.645808627275     0.645707144273    -1.401469855332     1.007825032230
         H           -1.293957372725     1.471540144273    -0.073155855332     1.007825032230
         H           -0.663313372725     0.639985144273     1.361977144668     1.007825032230
         H            1.598305627275    -0.523686855727     0.977920144668     1.007825032230
         H           -0.732322372725    -1.269933855727    -0.119662855332     1.007825032230

  Basis Set: AUG-CC-PVTZ
    Blend: AUG-CC-PVTZ
  Basis Set: (AUG-CC-PVTZ AUX)
    Blend: AUG-CC-PVTZ-JKFIT
	 Reference Energy          =    -229.0112095846151306 [Eh]
	 Singles Energy            =      -0.0000000000000000 [Eh]
	 Same-Spin Energy          =      -0.2150834303595934 [Eh]
	 Opposite-Spin Energy      =      -0.7007742274494233 [Eh]
	 Correlation Energy        =      -0.9158576578090167 [Eh]
	 Total Energy              =    -229.9270672424241582 [Eh]

	 ================> DF-SCS-MP2 Energies <==================
	-----------------------------------------------------------
	 SCS Same-Spin Scale       =       0.3333333333333333 [-]
	 SCS Opposite-Spin Scale   =       1.2000000000000000 [-]
	 SCS Same-Spin Energy      =      -0.0716944767865311 [Eh]
	 SCS Opposite-Spin Energy  =      -0.8409290729393080 [Eh]
	 SCS Correlation Energy    =      -0.9126235497258390 [Eh]
	 SCS Total Energy          =    -229.9238331343409811 [Eh]
	-----------------------------------------------------------

  Dipole Moment: [D]
     X:     1.4446      Y:     1.4979      Z:     1.2388     Total:     2.4218

*** Psi4 exiting successfully. Buy a developer a beer!
