                               Psi4 1.4a3.dev225

  ==> Input File <==

--------------------------------------------------------------------------
#psi4
#
memory 32 gb

molecule  {
0 1
  O        1.3629200    -0.6007480     0.0540100
  O       -1.3019703    -0.6622448    -0.0991335
  C        0.6753190     0.6118990    -0.2881280
  C       -0.7297860     0.5791870     0.2830810
  H        1.2295620     1.4983740     0.0482790
  H        0.6301520     0.6189470    -1.3788980
  H       -1.3096140     1.4447800    -0.0505840
  H       -0.6789700     0.6132250     1.3845490
  H        1.5826490    -0.5504470     1.0004920
  H       -0.7479790    -1.2966940    -0.0970910
units angstrom
no_reorient  #important for SAPT in psi4, default
symmetry c1  #important for SAPT in psi4, default
}

set PROPERTIES_ORIGIN ["COM"]
properties('MP2/aug-cc-pvtz', properties = ['dipole'])
--------------------------------------------------------------------------

    Molecular point group: c1
  Charge       = 0
  Multiplicity = 1
  Basis Set: AUG-CC-PVTZ
    Blend: AUG-CC-PVTZ
  Basis Set: (AUG-CC-PVTZ AUX)
    Blend: AUG-CC-PVTZ-JKFIT

    Orbital Energies [Eh]
    ---------------------

    Doubly Occupied:

       1A    -20.573931     2A    -20.537065     3A    -11.285623
       4A    -11.284212     5A     -1.395492     6A     -1.359212
       7A     -1.010069     8A     -0.862943     9A     -0.719709
      10A     -0.688946    11A     -0.648820    12A     -0.634638
      13A     -0.572732    14A     -0.522691    15A     -0.511802
      16A     -0.469375    17A     -0.439669

  @DF-RHF Final Energy:  -229.01243620232734

   => Energetics <=

    Nuclear Repulsion Energy =            135.0133118794346672
    One-Electron Energy =                -581.0176392994638945
    Two-Electron Energy =                 216.9918912177018626
    Total Energy =                       -229.0124362023273363
  Basis Set: (AUG-CC-PVTZ AUX)
    Blend: AUG-CC-PVTZ-RI
    Molecular point group: c1

    Geometry (in Angstrom), charge = 0, multiplicity = 1:

       Center              X                  Y                   Z               Mass
    ------------   -----------------  -----------------  -----------------  -----------------
         O            1.346274968379    -0.543330014878     0.051889777192    15.994914619570
         O           -1.318615331621    -0.604826814878    -0.101253722808    15.994914619570
         C            0.658673968379     0.669316985122    -0.290248222808    12.000000000000
         C           -0.746431031621     0.636604985122     0.280960777192    12.000000000000
         H            1.212916968379     1.555791985122     0.046158777192     1.007825032230
         H            0.613506968379     0.676364985122    -1.381018222808     1.007825032230
         H           -1.326259031621     1.502197985122    -0.052704222808     1.007825032230
         H           -0.695615031621     0.670642985122     1.382428777192     1.007825032230
         H            1.566003968379    -0.493029014878     0.998371777192     1.007825032230
         H           -0.764624031621    -1.239276014878    -0.099211222808     1.007825032230

  Basis Set: AUG-CC-PVTZ
    Blend: AUG-CC-PVTZ
  Basis Set: (AUG-CC-PVTZ AUX)
    Blend: AUG-CC-PVTZ-JKFIT
	 Reference Energy          =    -229.0124362023273363 [Eh]
	 Singles Energy            =      -0.0000000000000000 [Eh]
	 Same-Spin Energy          =      -0.2151051408484490 [Eh]
	 Opposite-Spin Energy      =      -0.7009967860262620 [Eh]
	 Correlation Energy        =      -0.9161019268747110 [Eh]
	 Total Energy              =    -229.9285381292020531 [Eh]

	 ================> DF-SCS-MP2 Energies <==================
	-----------------------------------------------------------
	 SCS Same-Spin Scale       =       0.3333333333333333 [-]
	 SCS Opposite-Spin Scale   =       1.2000000000000000 [-]
	 SCS Same-Spin Energy      =      -0.0717017136161496 [Eh]
	 SCS Opposite-Spin Energy  =      -0.8411961432315144 [Eh]
	 SCS Correlation Energy    =      -0.9128978568476640 [Eh]
	 SCS Total Energy          =    -229.9253340591749861 [Eh]
	-----------------------------------------------------------

  Dipole Moment: [D]
     X:     1.2379      Y:     1.6735      Z:     1.3627     Total:     2.4880

*** Psi4 exiting successfully. Buy a developer a beer!
