                               Psi4 1.4a3.dev225

  ==> Input File <==

--------------------------------------------------------------------------
#psi4
#
memory 32 gb

molecule  {
0 1
  O        1.3629200    -0.6007480     0.0540100
  O       -1.4102950    -0.5835890    -0.1635680
  C        0.6753190     0.6118990    -0.2881280
  C       -0.7297860     0.5791870     0.2830810
  H        1.2295620     1.4983740     0.0482790
  H        0.6301520     0.6189470    -1.3788980
  H       -1.3096140     1.4447800    -0.0505840
  H       -0.6789700     0.6132250     1.3845490
  H        1.6052327    -0.5452771     1.0977712
  H       -0.7479790    -1.2966940    -0.0970910
units angstrom
no_reorient  #important for SAPT in psi4, default
symmetry c1  #important for SAPT in psi4, default
}

set PROPERTIES_ORIGIN ["COM"]
properties('MP2/aug-cc-pvtz', properties = ['dipole'])
--------------------------------------------------------------------------

    Molecular point group: c1
  Charge       = 0
  Multiplicity = 1
  Basis Set: AUG-CC-PVTZ
    Blend: AUG-CC-PVTZ
  Basis Set: (AUG-CC-PVTZ AUX)
    Blend: AUG-CC-PVTZ-JKFIT

    Orbital Energies [Eh]
    ---------------------

    Doubly Occupied:

       1A    -20.585051     2A    -20.554506     3A    -11.285721
       4A    -11.279655     5A     -1.370038     6A     -1.338560
       7A     -0.997378     8A     -0.845001     9A     -0.699031
      10A     -0.682819    11A     -0.639540    12A     -0.612934
      13A     -0.570123    14A     -0.524789    15A     -0.505138
      16A     -0.472236    17A     -0.437530

  @DF-RHF Final Energy:  -229.01478642264445

   => Energetics <=

    Nuclear Repulsion Energy =            133.0456481971847325
    One-Electron Energy =                -577.3207689305094164
    Two-Electron Energy =                 215.2603343106802356
    Total Energy =                       -229.0147864226444483
  Basis Set: (AUG-CC-PVTZ AUX)
    Blend: AUG-CC-PVTZ-RI
    Molecular point group: c1

    Geometry (in Angstrom), charge = 0, multiplicity = 1:

       Center              X                  Y                   Z               Mass
    ------------   -----------------  -----------------  -----------------  -----------------
         O            1.373837390625    -0.563693792165     0.066922535529    15.994914619570
         O           -1.399377609375    -0.546534792165    -0.150655464471    15.994914619570
         C            0.686236390625     0.648953207835    -0.275215464471    12.000000000000
         C           -0.718868609375     0.616241207835     0.295993535529    12.000000000000
         H            1.240479390625     1.535428207835     0.061191535529     1.007825032230
         H            0.641069390625     0.656001207835    -1.365985464471     1.007825032230
         H           -1.298696609375     1.481834207835    -0.037671464471     1.007825032230
         H           -0.668052609375     0.650279207835     1.397461535529     1.007825032230
         H            1.616150090625    -0.508222892165     1.110683735529     1.007825032230
         H           -0.737061609375    -1.259639792165    -0.084178464471     1.007825032230

  Basis Set: AUG-CC-PVTZ
    Blend: AUG-CC-PVTZ
  Basis Set: (AUG-CC-PVTZ AUX)
    Blend: AUG-CC-PVTZ-JKFIT
	 Reference Energy          =    -229.0147864226444483 [Eh]
	 Singles Energy            =      -0.0000000000000000 [Eh]
	 Same-Spin Energy          =      -0.2179126878920424 [Eh]
	 Opposite-Spin Energy      =      -0.7083297573662154 [Eh]
	 Correlation Energy        =      -0.9262424452582578 [Eh]
	 Total Energy              =    -229.9410288679027019 [Eh]

	 ================> DF-SCS-MP2 Energies <==================
	-----------------------------------------------------------
	 SCS Same-Spin Scale       =       0.3333333333333333 [-]
	 SCS Opposite-Spin Scale   =       1.2000000000000000 [-]
	 SCS Same-Spin Energy      =      -0.0726375626306808 [Eh]
	 SCS Opposite-Spin Energy  =      -0.8499957088394584 [Eh]
	 SCS Correlation Energy    =      -0.9226332714701392 [Eh]
	 SCS Total Energy          =    -229.9374196941145954 [Eh]
	-----------------------------------------------------------

  Dipole Moment: [D]
     X:     1.4498      Y:     1.4768      Z:     1.5424     Total:     2.5811

*** Psi4 exiting successfully. Buy a developer a beer!
