                               Psi4 1.4a3.dev225

  ==> Input File <==

--------------------------------------------------------------------------
#psi4
#
memory 32 gb

molecule  {
0 1
  O        1.3629200    -0.6007480     0.0540100
  O       -1.4102950    -0.5835890    -0.1635680
  C        0.6753190     0.6118990    -0.2881280
  C       -0.7297860     0.5791870     0.2830810
  H        1.2295620     1.4983740     0.0482790
  H        0.6301520     0.6189470    -1.3788980
  H       -1.3096140     1.4447800    -0.0505840
  H       -0.6789700     0.6132250     1.3845490
  H        1.5826490    -0.5504470     1.0004920
  H       -0.7140315    -1.3332447    -0.0936837
units angstrom
no_reorient  #important for SAPT in psi4, default
symmetry c1  #important for SAPT in psi4, default
}

set PROPERTIES_ORIGIN ["COM"]
properties('MP2/aug-cc-pvtz', properties = ['dipole'])
--------------------------------------------------------------------------

    Molecular point group: c1
  Charge       = 0
  Multiplicity = 1
  Basis Set: AUG-CC-PVTZ
    Blend: AUG-CC-PVTZ
  Basis Set: (AUG-CC-PVTZ AUX)
    Blend: AUG-CC-PVTZ-JKFIT

    Orbital Energies [Eh]
    ---------------------

    Doubly Occupied:

       1A    -20.577270     2A    -20.558278     3A    -11.286376
       4A    -11.279666     5A     -1.378905     6A     -1.338986
       7A     -0.999655     8A     -0.848179     9A     -0.702658
      10A     -0.687310    11A     -0.644264    12A     -0.612902
      13A     -0.570866    14A     -0.523184    15A     -0.509639
      16A     -0.473000    17A     -0.437282

  @DF-RHF Final Energy:  -229.02297869639406

   => Energetics <=

    Nuclear Repulsion Energy =            133.3341374275674696
    One-Electron Energy =                -577.8573921857121150
    Two-Electron Energy =                 215.5002760617505544
    Total Energy =                       -229.0229786963940626
  Basis Set: (AUG-CC-PVTZ AUX)
    Blend: AUG-CC-PVTZ-RI
    Molecular point group: c1

    Geometry (in Angstrom), charge = 0, multiplicity = 1:

       Center              X                  Y                   Z               Mass
    ------------   -----------------  -----------------  -----------------  -----------------
         O            1.373652778815    -0.563016015765     0.068447541364    15.994914619570
         O           -1.399562221185    -0.545857015765    -0.149130458636    15.994914619570
         C            0.686051778815     0.649630984235    -0.273690458636    12.000000000000
         C           -0.719053221185     0.616918984235     0.297518541364    12.000000000000
         H            1.240294778815     1.536105984235     0.062716541364     1.007825032230
         H            0.640884778815     0.656678984235    -1.364460458636     1.007825032230
         H           -1.298881221185     1.482511984235    -0.036146458636     1.007825032230
         H           -0.668237221185     0.650956984235     1.398986541364     1.007825032230
         H            1.593381778815    -0.512715015765     1.014929541364     1.007825032230
         H           -0.703298721185    -1.295512715765    -0.079246158636     1.007825032230

  Basis Set: AUG-CC-PVTZ
    Blend: AUG-CC-PVTZ
  Basis Set: (AUG-CC-PVTZ AUX)
    Blend: AUG-CC-PVTZ-JKFIT
	 Reference Energy          =    -229.0229786963940626 [Eh]
	 Singles Energy            =      -0.0000000000000000 [Eh]
	 Same-Spin Energy          =      -0.2174771693634376 [Eh]
	 Opposite-Spin Energy      =      -0.7067403926146865 [Eh]
	 Correlation Energy        =      -0.9242175619781241 [Eh]
	 Total Energy              =    -229.9471962583721734 [Eh]

	 ================> DF-SCS-MP2 Energies <==================
	-----------------------------------------------------------
	 SCS Same-Spin Scale       =       0.3333333333333333 [-]
	 SCS Opposite-Spin Scale   =       1.2000000000000000 [-]
	 SCS Same-Spin Energy      =      -0.0724923897878125 [Eh]
	 SCS Opposite-Spin Energy  =      -0.8480884711376238 [Eh]
	 SCS Correlation Energy    =      -0.9205808609254362 [Eh]
	 SCS Total Energy          =    -229.9435595573195030 [Eh]
	-----------------------------------------------------------

  Dipole Moment: [D]
     X:     1.4545      Y:     1.4514      Z:     1.4732     Total:     2.5283

*** Psi4 exiting successfully. Buy a developer a beer!
