                               Psi4 1.4a3.dev225

  ==> Input File <==

--------------------------------------------------------------------------
#psi4
#
memory 32 gb

molecule  {
0 1
  O        1.3629200    -0.6007480     0.0540100
  O       -1.4102950    -0.5835890    -0.1635680
  C        0.6753190     0.6118990    -0.2881280
  C       -0.7297860     0.5791870     0.2830810
  H        1.2295620     1.4983740     0.0482790
  H        0.6301520     0.6189470    -1.3788980
  H       -1.3096140     1.4447800    -0.0505840
  H       -0.6789700     0.6132250     1.3845490
  H        1.5826490    -0.5504470     1.0004920
  H       -0.6800840    -1.3697955    -0.0902763
units angstrom
no_reorient  #important for SAPT in psi4, default
symmetry c1  #important for SAPT in psi4, default
}

set PROPERTIES_ORIGIN ["COM"]
properties('MP2/aug-cc-pvtz', properties = ['dipole'])
--------------------------------------------------------------------------

    Molecular point group: c1
  Charge       = 0
  Multiplicity = 1
  Basis Set: AUG-CC-PVTZ
    Blend: AUG-CC-PVTZ
  Basis Set: (AUG-CC-PVTZ AUX)
    Blend: AUG-CC-PVTZ-JKFIT

    Orbital Energies [Eh]
    ---------------------

    Doubly Occupied:

       1A    -20.577852     2A    -20.560928     3A    -11.286200
       4A    -11.279028     5A     -1.378115     6A     -1.331112
       7A     -0.997875     8A     -0.845675     9A     -0.701004
      10A     -0.683156    11A     -0.643602    12A     -0.609347
      13A     -0.569900    14A     -0.520101    15A     -0.507826
      16A     -0.472286    17A     -0.436056

  @DF-RHF Final Energy:  -229.01480454544145

   => Energetics <=

    Nuclear Repulsion Energy =            133.1190974125144635
    One-Electron Energy =                -577.4676718299558615
    Two-Electron Energy =                 215.3337698719999480
    Total Energy =                       -229.0148045454414500
  Basis Set: (AUG-CC-PVTZ AUX)
    Blend: AUG-CC-PVTZ-RI
    Molecular point group: c1

    Geometry (in Angstrom), charge = 0, multiplicity = 1:

       Center              X                  Y                   Z               Mass
    ------------   -----------------  -----------------  -----------------  -----------------
         O            1.373101281130    -0.562422225895     0.068392186089    15.994914619570
         O           -1.400113718870    -0.545263225895    -0.149185813911    15.994914619570
         C            0.685500281130     0.650224774105    -0.273745813911    12.000000000000
         C           -0.719604718870     0.617512774105     0.297463186089    12.000000000000
         H            1.239743281130     1.536699774105     0.062661186089     1.007825032230
         H            0.640333281130     0.657272774105    -1.364515813911     1.007825032230
         H           -1.299432718870     1.483105774105    -0.036201813911     1.007825032230
         H           -0.668788718870     0.651550774105     1.398931186089     1.007825032230
         H            1.592830281130    -0.512121225895     1.014874186089     1.007825032230
         H           -0.669902718870    -1.331469725895    -0.075894113911     1.007825032230

  Basis Set: AUG-CC-PVTZ
    Blend: AUG-CC-PVTZ
  Basis Set: (AUG-CC-PVTZ AUX)
    Blend: AUG-CC-PVTZ-JKFIT
	 Reference Energy          =    -229.0148045454414500 [Eh]
	 Singles Energy            =      -0.0000000000000000 [Eh]
	 Same-Spin Energy          =      -0.2181141680837012 [Eh]
	 Opposite-Spin Energy      =      -0.7083887059992681 [Eh]
	 Correlation Energy        =      -0.9265028740829693 [Eh]
	 Total Energy              =    -229.9413074195244064 [Eh]

	 ================> DF-SCS-MP2 Energies <==================
	-----------------------------------------------------------
	 SCS Same-Spin Scale       =       0.3333333333333333 [-]
	 SCS Opposite-Spin Scale   =       1.2000000000000000 [-]
	 SCS Same-Spin Energy      =      -0.0727047226945671 [Eh]
	 SCS Opposite-Spin Energy  =      -0.8500664471991216 [Eh]
	 SCS Correlation Energy    =      -0.9227711698936887 [Eh]
	 SCS Total Energy          =    -229.9375757153351287 [Eh]
	-----------------------------------------------------------

  Dipole Moment: [D]
     X:     1.4968      Y:     1.4170      Z:     1.4726     Total:     2.5332

*** Psi4 exiting successfully. Buy a developer a beer!
