                               Psi4 1.4a3.dev225

  ==> Input File <==

--------------------------------------------------------------------------
#psi4
#
memory 32 gb

molecule  {
0 1
  O        1.3629200    -0.6007480     0.0540100
  O       -1.4102950    -0.5835890    -0.1635680
  C        0.6340583     0.7474726    -0.3597864
  C       -0.7297860     0.5791870     0.2830810
  H        1.2295620     1.4983740     0.0482790
  H        0.6301520     0.6189470    -1.3788980
  H       -1.3096140     1.4447800    -0.0505840
  H       -0.6789700     0.6132250     1.3845490
  H        1.5826490    -0.5504470     1.0004920
  H       -0.7479790    -1.2966940    -0.0970910
units angstrom
no_reorient  #important for SAPT in psi4, default
symmetry c1  #important for SAPT in psi4, default
}

set PROPERTIES_ORIGIN ["COM"]
properties('MP2/aug-cc-pvtz', properties = ['dipole'])
--------------------------------------------------------------------------

    Molecular point group: c1
  Charge       = 0
  Multiplicity = 1
  Basis Set: AUG-CC-PVTZ
    Blend: AUG-CC-PVTZ
  Basis Set: (AUG-CC-PVTZ AUX)
    Blend: AUG-CC-PVTZ-JKFIT

    Orbital Energies [Eh]
    ---------------------

    Doubly Occupied:

       1A    -20.558247     2A    -20.558011     3A    -11.290335
       4A    -11.286880     5A     -1.363038     6A     -1.314701
       7A     -1.015276     8A     -0.858325     9A     -0.701905
      10A     -0.683482    11A     -0.635167    12A     -0.605310
      13A     -0.575245    14A     -0.531412    15A     -0.494769
      16A     -0.467273    17A     -0.449768

  @DF-RHF Final Energy:  -229.00608919898261

   => Energetics <=

    Nuclear Repulsion Energy =            131.9067707707489490
    One-Electron Energy =                -575.0474313168275557
    Two-Electron Energy =                 214.1345713470959993
    Total Energy =                       -229.0060891989826075
  Basis Set: (AUG-CC-PVTZ AUX)
    Blend: AUG-CC-PVTZ-RI
    Molecular point group: c1

    Geometry (in Angstrom), charge = 0, multiplicity = 1:

       Center              X                  Y                   Z               Mass
    ------------   -----------------  -----------------  -----------------  -----------------
         O            1.382185483851    -0.589834298816     0.082364040095    15.994914619570
         O           -1.391029516149    -0.572675298816    -0.135213959905    15.994914619570
         C            0.653323783851     0.758386301184    -0.331432359905    12.000000000000
         C           -0.710520516149     0.590100701184     0.311435040095    12.000000000000
         H            1.248827483851     1.509287701184     0.076633040095     1.007825032230
         H            0.649417483851     0.629860701184    -1.350543959905     1.007825032230
         H           -1.290348516149     1.455693701184    -0.022229959905     1.007825032230
         H           -0.659704516149     0.624138701184     1.412903040095     1.007825032230
         H            1.601914483851    -0.539533298816     1.028846040095     1.007825032230
         H           -0.728713516149    -1.285780298816    -0.068736959905     1.007825032230

  Basis Set: AUG-CC-PVTZ
    Blend: AUG-CC-PVTZ
  Basis Set: (AUG-CC-PVTZ AUX)
    Blend: AUG-CC-PVTZ-JKFIT
	 Reference Energy          =    -229.0060891989826075 [Eh]
	 Singles Energy            =      -0.0000000000000000 [Eh]
	 Same-Spin Energy          =      -0.2174217797309038 [Eh]
	 Opposite-Spin Energy      =      -0.7082710864635973 [Eh]
	 Correlation Energy        =      -0.9256928661945011 [Eh]
	 Total Energy              =    -229.9317820651771171 [Eh]

	 ================> DF-SCS-MP2 Energies <==================
	-----------------------------------------------------------
	 SCS Same-Spin Scale       =       0.3333333333333333 [-]
	 SCS Opposite-Spin Scale   =       1.2000000000000000 [-]
	 SCS Same-Spin Energy      =      -0.0724739265769679 [Eh]
	 SCS Opposite-Spin Energy  =      -0.8499253037563167 [Eh]
	 SCS Correlation Energy    =      -0.9223992303332846 [Eh]
	 SCS Total Energy          =    -229.9284884293159053 [Eh]
	-----------------------------------------------------------

  Dipole Moment: [D]
     X:     1.1648      Y:     1.8769      Z:     1.3210     Total:     2.5738

*** Psi4 exiting successfully. Buy a developer a beer!
