                               Psi4 1.4a3.dev225

  ==> Input File <==

--------------------------------------------------------------------------
#psi4
#
memory 32 gb

molecule  {
0 1
  O        1.3831694    -0.5924475     0.0418169
  O       -1.4102950    -0.5835890    -0.1635680
  C        0.6753190     0.6118990    -0.2881280
  C       -0.7297860     0.5791870     0.2830810
  H        1.2295620     1.4983740     0.0482790
  H        0.6301520     0.6189470    -1.3788980
  H       -1.3096140     1.4447800    -0.0505840
  H       -0.6789700     0.6132250     1.3845490
  H        1.5826490    -0.5504470     1.0004920
  H       -0.7479790    -1.2966940    -0.0970910
units angstrom
no_reorient  #important for SAPT in psi4, default
symmetry c1  #important for SAPT in psi4, default
}

set PROPERTIES_ORIGIN ["COM"]
properties('MP2/aug-cc-pvtz', properties = ['dipole'])
--------------------------------------------------------------------------

    Molecular point group: c1
  Charge       = 0
  Multiplicity = 1
  Basis Set: AUG-CC-PVTZ
    Blend: AUG-CC-PVTZ
  Basis Set: (AUG-CC-PVTZ AUX)
    Blend: AUG-CC-PVTZ-JKFIT

    Orbital Energies [Eh]
    ---------------------

    Doubly Occupied:

       1A    -20.577541     2A    -20.555908     3A    -11.286309
       4A    -11.281100     5A     -1.379524     6A     -1.347755
       7A     -1.001573     8A     -0.850931     9A     -0.705875
      10A     -0.688614    11A     -0.645492    12A     -0.616781
      13A     -0.571460    14A     -0.527691    15A     -0.510209
      16A     -0.473784    17A     -0.438989

  @DF-RHF Final Energy:  -229.02755726725331

   => Energetics <=

    Nuclear Repulsion Energy =            133.3704484938750738
    One-Electron Energy =                -577.8769397472121909
    Two-Electron Energy =                 215.4789339860838027
    Total Energy =                       -229.0275572672533144
  Basis Set: (AUG-CC-PVTZ AUX)
    Blend: AUG-CC-PVTZ-RI
    Molecular point group: c1

    Geometry (in Angstrom), charge = 0, multiplicity = 1:

       Center              X                  Y                   Z               Mass
    ------------   -----------------  -----------------  -----------------  -----------------
         O            1.389232782911    -0.557449418149     0.059453536441    15.994914619570
         O           -1.404231617089    -0.548590918149    -0.145931363559    15.994914619570
         C            0.681382382911     0.646897081851    -0.270491363559    12.000000000000
         C           -0.723722617089     0.614185081851     0.300717636441    12.000000000000
         H            1.235625382911     1.533372081851     0.065915636441     1.007825032230
         H            0.636215382911     0.653945081851    -1.361261363559     1.007825032230
         H           -1.303550617089     1.479778081851    -0.032947363559     1.007825032230
         H           -0.672906617089     0.648223081851     1.402185636441     1.007825032230
         H            1.588712382911    -0.515448918149     1.018128636441     1.007825032230
         H           -0.741915617089    -1.261695918149    -0.079454363559     1.007825032230

  Basis Set: AUG-CC-PVTZ
    Blend: AUG-CC-PVTZ
  Basis Set: (AUG-CC-PVTZ AUX)
    Blend: AUG-CC-PVTZ-JKFIT
	 Reference Energy          =    -229.0275572672533144 [Eh]
	 Singles Energy            =      -0.0000000000000000 [Eh]
	 Same-Spin Energy          =      -0.2168898581597399 [Eh]
	 Opposite-Spin Energy      =      -0.7053998679786785 [Eh]
	 Correlation Energy        =      -0.9222897261384183 [Eh]
	 Total Energy              =    -229.9498469933917306 [Eh]

	 ================> DF-SCS-MP2 Energies <==================
	-----------------------------------------------------------
	 SCS Same-Spin Scale       =       0.3333333333333333 [-]
	 SCS Opposite-Spin Scale   =       1.2000000000000000 [-]
	 SCS Same-Spin Energy      =      -0.0722966193865799 [Eh]
	 SCS Opposite-Spin Energy  =      -0.8464798415744141 [Eh]
	 SCS Correlation Energy    =      -0.9187764609609941 [Eh]
	 SCS Total Energy          =    -229.9463337282143129 [Eh]
	-----------------------------------------------------------

  Dipole Moment: [D]
     X:     1.3525      Y:     1.4663      Z:     1.4941     Total:     2.4923

*** Psi4 exiting successfully. Buy a developer a beer!
