                               Psi4 1.4a3.dev225

  ==> Input File <==

--------------------------------------------------------------------------
#psi4
#
memory 32 gb

molecule  {
0 1
  O        1.3629200    -0.6007480     0.0540100
  O       -1.4102950    -0.5835890    -0.1635680
  C        0.7232222     0.5274174    -0.2642922
  C       -0.7297860     0.5791870     0.2830810
  H        1.2295620     1.4983740     0.0482790
  H        0.6301520     0.6189470    -1.3788980
  H       -1.3096140     1.4447800    -0.0505840
  H       -0.6789700     0.6132250     1.3845490
  H        1.5826490    -0.5504470     1.0004920
  H       -0.7479790    -1.2966940    -0.0970910
units angstrom
no_reorient  #important for SAPT in psi4, default
symmetry c1  #important for SAPT in psi4, default
}

set PROPERTIES_ORIGIN ["COM"]
properties('MP2/aug-cc-pvtz', properties = ['dipole'])
--------------------------------------------------------------------------

    Molecular point group: c1
  Charge       = 0
  Multiplicity = 1
  Basis Set: AUG-CC-PVTZ
    Blend: AUG-CC-PVTZ
  Basis Set: (AUG-CC-PVTZ AUX)
    Blend: AUG-CC-PVTZ-JKFIT

    Orbital Energies [Eh]
    ---------------------

    Doubly Occupied:

       1A    -20.587762     2A    -20.552945     3A    -11.288568
       4A    -11.277649     5A     -1.419424     6A     -1.351509
       7A     -0.987198     8A     -0.853932     9A     -0.720554
      10A     -0.694771    11A     -0.656287    12A     -0.625784
      13A     -0.578869    14A     -0.536273    15A     -0.495574
      16A     -0.467616    17A     -0.422877

  @DF-RHF Final Energy:  -229.01970780211764

   => Energetics <=

    Nuclear Repulsion Energy =            134.4548366950976401
    One-Electron Energy =                -579.9139029029111043
    Two-Electron Energy =                 216.4393584056958275
    Total Energy =                       -229.0197078021176367
  Basis Set: (AUG-CC-PVTZ AUX)
    Blend: AUG-CC-PVTZ-RI
    Molecular point group: c1

    Geometry (in Angstrom), charge = 0, multiplicity = 1:

       Center              X                  Y                   Z               Mass
    ------------   -----------------  -----------------  -----------------  -----------------
         O            1.364938186203    -0.547268220690     0.063892249482    15.994914619570
         O           -1.408276813797    -0.530109220690    -0.153685750518    15.994914619570
         C            0.725240386203     0.580897179310    -0.254409950518    12.000000000000
         C           -0.727767813797     0.632666779310     0.292963249482    12.000000000000
         H            1.231580186203     1.551853779310     0.058161249482     1.007825032230
         H            0.632170186203     0.672426779310    -1.369015750518     1.007825032230
         H           -1.307595813797     1.498259779310    -0.040701750518     1.007825032230
         H           -0.676951813797     0.666704779310     1.394431249482     1.007825032230
         H            1.584667186203    -0.496967220690     1.010374249482     1.007825032230
         H           -0.745960813797    -1.243214220690    -0.087208750518     1.007825032230

  Basis Set: AUG-CC-PVTZ
    Blend: AUG-CC-PVTZ
  Basis Set: (AUG-CC-PVTZ AUX)
    Blend: AUG-CC-PVTZ-JKFIT
	 Reference Energy          =    -229.0197078021176367 [Eh]
	 Singles Energy            =      -0.0000000000000000 [Eh]
	 Same-Spin Energy          =      -0.2168575421527804 [Eh]
	 Opposite-Spin Energy      =      -0.7040942097318671 [Eh]
	 Correlation Energy        =      -0.9209517518846475 [Eh]
	 Total Energy              =    -229.9406595540022806 [Eh]

	 ================> DF-SCS-MP2 Energies <==================
	-----------------------------------------------------------
	 SCS Same-Spin Scale       =       0.3333333333333333 [-]
	 SCS Opposite-Spin Scale   =       1.2000000000000000 [-]
	 SCS Same-Spin Energy      =      -0.0722858473842601 [Eh]
	 SCS Opposite-Spin Energy  =      -0.8449130516782405 [Eh]
	 SCS Correlation Energy    =      -0.9171988990625006 [Eh]
	 SCS Total Energy          =    -229.9369067011801349 [Eh]
	-----------------------------------------------------------

  Dipole Moment: [D]
     X:     1.6074      Y:     1.1705      Z:     1.5680     Total:     2.5323

*** Psi4 exiting successfully. Buy a developer a beer!
