                               Psi4 1.4a3.dev225

  ==> Input File <==

--------------------------------------------------------------------------
#psi4
#
memory 32 gb

molecule  {
0 1
  O        1.3629200    -0.6007480     0.0540100
  O       -1.4102950    -0.5835890    -0.1635680
  C        0.6753190     0.6118990    -0.2881280
  C       -0.7297860     0.5791870     0.2830810
  H        1.2295620     1.4983740     0.0482790
  H        0.6301520     0.6189470    -1.3788980
  H       -1.4156178     1.6030271    -0.1115844
  H       -0.6789700     0.6132250     1.3845490
  H        1.5826490    -0.5504470     1.0004920
  H       -0.7479790    -1.2966940    -0.0970910
units angstrom
no_reorient  #important for SAPT in psi4, default
symmetry c1  #important for SAPT in psi4, default
}

set PROPERTIES_ORIGIN ["COM"]
properties('MP2/aug-cc-pvtz', properties = ['dipole'])
--------------------------------------------------------------------------

    Molecular point group: c1
  Charge       = 0
  Multiplicity = 1
  Basis Set: AUG-CC-PVTZ
    Blend: AUG-CC-PVTZ
  Basis Set: (AUG-CC-PVTZ AUX)
    Blend: AUG-CC-PVTZ-JKFIT

    Orbital Energies [Eh]
    ---------------------

    Doubly Occupied:

       1A    -20.579259     2A    -20.559072     3A    -11.303597
       4A    -11.288884     5A     -1.383323     6A     -1.350268
       7A     -0.996801     8A     -0.841063     9A     -0.706629
      10A     -0.690291    11A     -0.646824    12A     -0.608579
      13A     -0.564167    14A     -0.526089    15A     -0.507132
      16A     -0.462265    17A     -0.441235

  @DF-RHF Final Energy:  -229.00773872189865

   => Energetics <=

    Nuclear Repulsion Energy =            132.7500292906144068
    One-Electron Energy =                -576.6045772199654493
    Two-Electron Energy =                 214.8468092074523952
    Total Energy =                       -229.0077387218986473
  Basis Set: (AUG-CC-PVTZ AUX)
    Blend: AUG-CC-PVTZ-RI
    Molecular point group: c1

    Geometry (in Angstrom), charge = 0, multiplicity = 1:

       Center              X                  Y                   Z               Mass
    ------------   -----------------  -----------------  -----------------  -----------------
         O            1.375926372395    -0.566180623935     0.069493883436    15.994914619570
         O           -1.397288627605    -0.549021623935    -0.148084116564    15.994914619570
         C            0.688325372395     0.646466376065    -0.272644116564    12.000000000000
         C           -0.716779627605     0.613754376065     0.298564883436    12.000000000000
         H            1.242568372395     1.532941376065     0.063762883436     1.007825032230
         H            0.643158372395     0.653514376065    -1.363414116564     1.007825032230
         H           -1.402611427605     1.637594476065    -0.096100516564     1.007825032230
         H           -0.665963627605     0.647792376065     1.400032883436     1.007825032230
         H            1.595655372395    -0.515879623935     1.015975883436     1.007825032230
         H           -0.734972627605    -1.262126623935    -0.081607116564     1.007825032230

  Basis Set: AUG-CC-PVTZ
    Blend: AUG-CC-PVTZ
  Basis Set: (AUG-CC-PVTZ AUX)
    Blend: AUG-CC-PVTZ-JKFIT
	 Reference Energy          =    -229.0077387218986473 [Eh]
	 Singles Energy            =      -0.0000000000000000 [Eh]
	 Same-Spin Energy          =      -0.2169781911822118 [Eh]
	 Opposite-Spin Energy      =      -0.7068367739363477 [Eh]
	 Correlation Energy        =      -0.9238149651185595 [Eh]
	 Total Energy              =    -229.9315536870172139 [Eh]

	 ================> DF-SCS-MP2 Energies <==================
	-----------------------------------------------------------
	 SCS Same-Spin Scale       =       0.3333333333333333 [-]
	 SCS Opposite-Spin Scale   =       1.2000000000000000 [-]
	 SCS Same-Spin Energy      =      -0.0723260637274039 [Eh]
	 SCS Opposite-Spin Energy  =      -0.8482041287236172 [Eh]
	 SCS Correlation Energy    =      -0.9205301924510211 [Eh]
	 SCS Total Energy          =    -229.9282689143496725 [Eh]
	-----------------------------------------------------------

  Dipole Moment: [D]
     X:     1.4842      Y:     1.3387      Z:     1.4887     Total:     2.4922

*** Psi4 exiting successfully. Buy a developer a beer!
