                               Psi4 1.4a3.dev225

  ==> Input File <==

--------------------------------------------------------------------------
#psi4
#
memory 32 gb

molecule  {
0 1
  O        1.3629200    -0.6007480     0.0540100
  O       -1.3863127    -0.5349958    -0.3019021
  C        0.6753190     0.6118990    -0.2881280
  C       -0.7297860     0.5791870     0.2830810
  H        1.2295620     1.4983740     0.0482790
  H        0.6301520     0.6189470    -1.3788980
  H       -1.3096140     1.4447800    -0.0505840
  H       -0.6789700     0.6132250     1.3845490
  H        1.5826490    -0.5504470     1.0004920
  H       -0.7479790    -1.2966940    -0.0970910
units angstrom
no_reorient  #important for SAPT in psi4, default
symmetry c1  #important for SAPT in psi4, default
}

set PROPERTIES_ORIGIN ["COM"]
properties('MP2/aug-cc-pvtz', properties = ['dipole'])
--------------------------------------------------------------------------

    Molecular point group: c1
  Charge       = 0
  Multiplicity = 1
  Basis Set: AUG-CC-PVTZ
    Blend: AUG-CC-PVTZ
  Basis Set: (AUG-CC-PVTZ AUX)
    Blend: AUG-CC-PVTZ-JKFIT

    Orbital Energies [Eh]
    ---------------------

    Doubly Occupied:

       1A    -20.575832     2A    -20.560032     3A    -11.283347
       4A    -11.280012     5A     -1.379022     6A     -1.342773
       7A     -0.998315     8A     -0.847595     9A     -0.703188
      10A     -0.691211    11A     -0.643036    12A     -0.612082
      13A     -0.568143    14A     -0.519708    15A     -0.508402
      16A     -0.480917    17A     -0.435938

  @DF-RHF Final Energy:  -229.02108883114838

   => Energetics <=

    Nuclear Repulsion Energy =            133.6908141098350882
    One-Electron Energy =                -578.5647002136212222
    Two-Electron Energy =                 215.8527972726377868
    Total Energy =                       -229.0210888311483757
  Basis Set: (AUG-CC-PVTZ AUX)
    Blend: AUG-CC-PVTZ-RI
    Molecular point group: c1

    Geometry (in Angstrom), charge = 0, multiplicity = 1:

       Center              X                  Y                   Z               Mass
    ------------   -----------------  -----------------  -----------------  -----------------
         O            1.368020931002    -0.576138566660     0.104169513088    15.994914619570
         O           -1.381211768998    -0.510386366660    -0.251742586912    15.994914619570
         C            0.680419931002     0.636508433340    -0.237968486912    12.000000000000
         C           -0.724685068998     0.603796433340     0.333240513088    12.000000000000
         H            1.234662931002     1.522983433340     0.098438513088     1.007825032230
         H            0.635252931002     0.643556433340    -1.328738486912     1.007825032230
         H           -1.304513068998     1.469389433340    -0.000424486912     1.007825032230
         H           -0.673869068998     0.637834433340     1.434708513088     1.007825032230
         H            1.587749931002    -0.525837566660     1.050651513088     1.007825032230
         H           -0.742878068998    -1.272084566660    -0.046931486912     1.007825032230

  Basis Set: AUG-CC-PVTZ
    Blend: AUG-CC-PVTZ
  Basis Set: (AUG-CC-PVTZ AUX)
    Blend: AUG-CC-PVTZ-JKFIT
	 Reference Energy          =    -229.0210888311483757 [Eh]
	 Singles Energy            =      -0.0000000000000000 [Eh]
	 Same-Spin Energy          =      -0.2176161131842136 [Eh]
	 Opposite-Spin Energy      =      -0.7069565627915648 [Eh]
	 Correlation Energy        =      -0.9245726759757784 [Eh]
	 Total Energy              =    -229.9456615071241572 [Eh]

	 ================> DF-SCS-MP2 Energies <==================
	-----------------------------------------------------------
	 SCS Same-Spin Scale       =       0.3333333333333333 [-]
	 SCS Opposite-Spin Scale   =       1.2000000000000000 [-]
	 SCS Same-Spin Energy      =      -0.0725387043947378 [Eh]
	 SCS Opposite-Spin Energy  =      -0.8483478753498778 [Eh]
	 SCS Correlation Energy    =      -0.9208865797446156 [Eh]
	 SCS Total Energy          =    -229.9419754108929794 [Eh]
	-----------------------------------------------------------

  Dipole Moment: [D]
     X:     1.2893      Y:     1.3687      Z:     1.7739     Total:     2.5850

*** Psi4 exiting successfully. Buy a developer a beer!
