                               Psi4 1.4a3.dev225

  ==> Input File <==

--------------------------------------------------------------------------
#psi4
#
memory 32 gb

molecule  {
0 1
  O        1.3629200    -0.6007480     0.0540100
  O       -1.4102950    -0.5835890    -0.1635680
  C        0.6753190     0.6118990    -0.2881280
  C       -0.7196730     0.6247436     0.3081120
  H        1.2295620     1.4983740     0.0482790
  H        0.6301520     0.6189470    -1.3788980
  H       -1.3096140     1.4447800    -0.0505840
  H       -0.6789700     0.6132250     1.3845490
  H        1.5826490    -0.5504470     1.0004920
  H       -0.7479790    -1.2966940    -0.0970910
units angstrom
no_reorient  #important for SAPT in psi4, default
symmetry c1  #important for SAPT in psi4, default
}

set PROPERTIES_ORIGIN ["COM"]
properties('MP2/aug-cc-pvtz', properties = ['dipole'])
--------------------------------------------------------------------------

    Molecular point group: c1
  Charge       = 0
  Multiplicity = 1
  Basis Set: AUG-CC-PVTZ
    Blend: AUG-CC-PVTZ
  Basis Set: (AUG-CC-PVTZ AUX)
    Blend: AUG-CC-PVTZ-JKFIT

    Orbital Energies [Eh]
    ---------------------

    Doubly Occupied:

       1A    -20.577818     2A    -20.549691     3A    -11.288231
       4A    -11.279664     5A     -1.377446     6A     -1.331245
       7A     -1.005585     8A     -0.854142     9A     -0.703670
      10A     -0.686288    11A     -0.644564    12A     -0.612281
      13A     -0.567211    14A     -0.521462    15A     -0.513404
      16A     -0.476475    17A     -0.441169

  @DF-RHF Final Energy:  -229.02489919439864

   => Energetics <=

    Nuclear Repulsion Energy =            132.9796404332841178
    One-Electron Energy =                -577.1483874084036643
    Two-Electron Energy =                 215.1438477807209324
    Total Energy =                       -229.0248991943986425
  Basis Set: (AUG-CC-PVTZ AUX)
    Blend: AUG-CC-PVTZ-RI
    Molecular point group: c1

    Geometry (in Angstrom), charge = 0, multiplicity = 1:

       Center              X                  Y                   Z               Mass
    ------------   -----------------  -----------------  -----------------  -----------------
         O            1.372248082109    -0.572421982931     0.063661057596    15.994914619570
         O           -1.400966917891    -0.555262982931    -0.153916942404    15.994914619570
         C            0.684647082109     0.640225017069    -0.278476942404    12.000000000000
         C           -0.710344917891     0.653069617069     0.317763057596    12.000000000000
         H            1.238890082109     1.526700017069     0.057930057596     1.007825032230
         H            0.639480082109     0.647273017069    -1.369246942404     1.007825032230
         H           -1.300285917891     1.473106017069    -0.040932942404     1.007825032230
         H           -0.669641917891     0.641551017069     1.394200057596     1.007825032230
         H            1.591977082109    -0.522120982931     1.010143057596     1.007825032230
         H           -0.738650917891    -1.268367982931    -0.087439942404     1.007825032230

  Basis Set: AUG-CC-PVTZ
    Blend: AUG-CC-PVTZ
  Basis Set: (AUG-CC-PVTZ AUX)
    Blend: AUG-CC-PVTZ-JKFIT
	 Reference Energy          =    -229.0248991943986425 [Eh]
	 Singles Energy            =      -0.0000000000000000 [Eh]
	 Same-Spin Energy          =      -0.2168774313479021 [Eh]
	 Opposite-Spin Energy      =      -0.7059868209830883 [Eh]
	 Correlation Energy        =      -0.9228642523309905 [Eh]
	 Total Energy              =    -229.9477634467296241 [Eh]

	 ================> DF-SCS-MP2 Energies <==================
	-----------------------------------------------------------
	 SCS Same-Spin Scale       =       0.3333333333333333 [-]
	 SCS Opposite-Spin Scale   =       1.2000000000000000 [-]
	 SCS Same-Spin Energy      =      -0.0722924771159674 [Eh]
	 SCS Opposite-Spin Energy  =      -0.8471841851797060 [Eh]
	 SCS Correlation Energy    =      -0.9194766622956733 [Eh]
	 SCS Total Energy          =    -229.9443758566943075 [Eh]
	-----------------------------------------------------------

  Dipole Moment: [D]
     X:     1.4822      Y:     1.6283      Z:     1.5500     Total:     2.6927

*** Psi4 exiting successfully. Buy a developer a beer!
