                               Psi4 1.4a3.dev225

  ==> Input File <==

--------------------------------------------------------------------------
#psi4
#
memory 32 gb

molecule  {
0 1
  O        1.3629200    -0.6007480     0.0540100
  O       -1.4448027    -0.5544927    -0.1839921
  C        0.6753190     0.6118990    -0.2881280
  C       -0.7297860     0.5791870     0.2830810
  H        1.2295620     1.4983740     0.0482790
  H        0.6301520     0.6189470    -1.3788980
  H       -1.3096140     1.4447800    -0.0505840
  H       -0.6789700     0.6132250     1.3845490
  H        1.5826490    -0.5504470     1.0004920
  H       -0.7479790    -1.2966940    -0.0970910
units angstrom
no_reorient  #important for SAPT in psi4, default
symmetry c1  #important for SAPT in psi4, default
}

set PROPERTIES_ORIGIN ["COM"]
properties('MP2/aug-cc-pvtz', properties = ['dipole'])
--------------------------------------------------------------------------

    Molecular point group: c1
  Charge       = 0
  Multiplicity = 1
  Basis Set: AUG-CC-PVTZ
    Blend: AUG-CC-PVTZ
  Basis Set: (AUG-CC-PVTZ AUX)
    Blend: AUG-CC-PVTZ-JKFIT

    Orbital Energies [Eh]
    ---------------------

    Doubly Occupied:

       1A    -20.577659     2A    -20.560307     3A    -11.287002
       4A    -11.279529     5A     -1.379306     6A     -1.342127
       7A     -0.999977     8A     -0.848126     9A     -0.703192
      10A     -0.689933    11A     -0.644570    12A     -0.609783
      13A     -0.571363    14A     -0.526598    15A     -0.509624
      16A     -0.474619    17A     -0.438353

  @DF-RHF Final Energy:  -229.02272270204210

   => Energetics <=

    Nuclear Repulsion Energy =            133.1433321075665219
    One-Electron Energy =                -577.4479720107135563
    Two-Electron Energy =                 215.2819172011049602
    Total Energy =                       -229.0227227020421026
  Basis Set: (AUG-CC-PVTZ AUX)
    Blend: AUG-CC-PVTZ-RI
    Molecular point group: c1

    Geometry (in Angstrom), charge = 0, multiplicity = 1:

       Center              X                  Y                   Z               Mass
    ------------   -----------------  -----------------  -----------------  -----------------
         O            1.383101381094    -0.571111689803     0.073768831427    15.994914619570
         O           -1.424621318906    -0.524856389803    -0.164233268573    15.994914619570
         C            0.695500381094     0.641535310197    -0.268369168573    12.000000000000
         C           -0.709604618906     0.608823310197     0.302839831427    12.000000000000
         H            1.249743381094     1.528010310197     0.068037831427     1.007825032230
         H            0.650333381094     0.648583310197    -1.359139168573     1.007825032230
         H           -1.289432618906     1.474416310197    -0.030825168573     1.007825032230
         H           -0.658788618906     0.642861310197     1.404307831427     1.007825032230
         H            1.602830381094    -0.520810689803     1.020250831427     1.007825032230
         H           -0.727797618906    -1.267057689803    -0.077332168573     1.007825032230

  Basis Set: AUG-CC-PVTZ
    Blend: AUG-CC-PVTZ
  Basis Set: (AUG-CC-PVTZ AUX)
    Blend: AUG-CC-PVTZ-JKFIT
	 Reference Energy          =    -229.0227227020421026 [Eh]
	 Singles Energy            =      -0.0000000000000000 [Eh]
	 Same-Spin Energy          =      -0.2175212435130899 [Eh]
	 Opposite-Spin Energy      =      -0.7069021427473394 [Eh]
	 Correlation Energy        =      -0.9244233862604294 [Eh]
	 Total Energy              =    -229.9471460883025316 [Eh]

	 ================> DF-SCS-MP2 Energies <==================
	-----------------------------------------------------------
	 SCS Same-Spin Scale       =       0.3333333333333333 [-]
	 SCS Opposite-Spin Scale   =       1.2000000000000000 [-]
	 SCS Same-Spin Energy      =      -0.0725070811710300 [Eh]
	 SCS Opposite-Spin Energy  =      -0.8482825712968073 [Eh]
	 SCS Correlation Energy    =      -0.9207896524678373 [Eh]
	 SCS Total Energy          =    -229.9435123545099486 [Eh]
	-----------------------------------------------------------

  Dipole Moment: [D]
     X:     1.4708      Y:     1.4333      Z:     1.5068     Total:     2.5471

*** Psi4 exiting successfully. Buy a developer a beer!
