                               Psi4 1.4a3.dev225

  ==> Input File <==

--------------------------------------------------------------------------
#psi4
#
memory 32 gb

molecule  {
0 1
  O        1.2372456    -0.6427132     0.1248525
  O       -1.4102950    -0.5835890    -0.1635680
  C        0.6753190     0.6118990    -0.2881280
  C       -0.7297860     0.5791870     0.2830810
  H        1.2295620     1.4983740     0.0482790
  H        0.6301520     0.6189470    -1.3788980
  H       -1.3096140     1.4447800    -0.0505840
  H       -0.6789700     0.6132250     1.3845490
  H        1.5826490    -0.5504470     1.0004920
  H       -0.7479790    -1.2966940    -0.0970910
units angstrom
no_reorient  #important for SAPT in psi4, default
symmetry c1  #important for SAPT in psi4, default
}

set PROPERTIES_ORIGIN ["COM"]
properties('MP2/aug-cc-pvtz', properties = ['dipole'])
--------------------------------------------------------------------------

    Molecular point group: c1
  Charge       = 0
  Multiplicity = 1
  Basis Set: AUG-CC-PVTZ
    Blend: AUG-CC-PVTZ
  Basis Set: (AUG-CC-PVTZ AUX)
    Blend: AUG-CC-PVTZ-JKFIT

    Orbital Energies [Eh]
    ---------------------

    Doubly Occupied:

       1A    -20.573692     2A    -20.549824     3A    -11.287860
       4A    -11.275757     5A     -1.387354     6A     -1.343361
       7A     -1.002010     8A     -0.850203     9A     -0.711720
      10A     -0.695375    11A     -0.640669    12A     -0.612976
      13A     -0.573087    14A     -0.520644    15A     -0.514987
      16A     -0.470420    17A     -0.435425

  @DF-RHF Final Energy:  -229.02612710798064

   => Energetics <=

    Nuclear Repulsion Energy =            134.7824049499499210
    One-Electron Energy =                -580.7263369683328165
    Two-Electron Energy =                 216.9178049104022534
    Total Energy =                       -229.0261271079806420
  Basis Set: (AUG-CC-PVTZ AUX)
    Blend: AUG-CC-PVTZ-RI
    Molecular point group: c1

    Geometry (in Angstrom), charge = 0, multiplicity = 1:

       Center              X                  Y                   Z               Mass
    ------------   -----------------  -----------------  -----------------  -----------------
         O            1.280932449882    -0.594755135585     0.121080105467    15.994914619570
         O           -1.366608150118    -0.535630935585    -0.167340394533    15.994914619570
         C            0.719005849882     0.659857064415    -0.291900394533    12.000000000000
         C           -0.686099150118     0.627145064415     0.279308605467    12.000000000000
         H            1.273248849882     1.546332064415     0.044506605467     1.007825032230
         H            0.673838849882     0.666905064415    -1.382670394533     1.007825032230
         H           -1.265927150118     1.492738064415    -0.054356394533     1.007825032230
         H           -0.635283150118     0.661183064415     1.380776605467     1.007825032230
         H            1.626335849882    -0.502488935585     0.996719605467     1.007825032230
         H           -0.704292150118    -1.248735935585    -0.100863394533     1.007825032230

  Basis Set: AUG-CC-PVTZ
    Blend: AUG-CC-PVTZ
  Basis Set: (AUG-CC-PVTZ AUX)
    Blend: AUG-CC-PVTZ-JKFIT
	 Reference Energy          =    -229.0261271079806420 [Eh]
	 Singles Energy            =      -0.0000000000000000 [Eh]
	 Same-Spin Energy          =      -0.2168475543236930 [Eh]
	 Opposite-Spin Energy      =      -0.7045477980610636 [Eh]
	 Correlation Energy        =      -0.9213953523847567 [Eh]
	 Total Energy              =    -229.9475224603654055 [Eh]

	 ================> DF-SCS-MP2 Energies <==================
	-----------------------------------------------------------
	 SCS Same-Spin Scale       =       0.3333333333333333 [-]
	 SCS Opposite-Spin Scale   =       1.2000000000000000 [-]
	 SCS Same-Spin Energy      =      -0.0722825181078977 [Eh]
	 SCS Opposite-Spin Energy  =      -0.8454573576732763 [Eh]
	 SCS Correlation Energy    =      -0.9177398757811740 [Eh]
	 SCS Total Energy          =    -229.9438669837618079 [Eh]
	-----------------------------------------------------------

  Dipole Moment: [D]
     X:     1.8143      Y:     1.5884      Z:     1.3502     Total:     2.7636

*** Psi4 exiting successfully. Buy a developer a beer!
