                               Psi4 1.4a3.dev225

  ==> Input File <==

--------------------------------------------------------------------------
#psi4
#
memory 32 gb

molecule  {
0 1
  O        1.3629200    -0.6007480     0.0540100
  O       -1.4102950    -0.5835890    -0.1635680
  C        0.6753190     0.6118990    -0.2881280
  C       -0.7297860     0.5791870     0.2830810
  H        1.2295620     1.4983740     0.0482790
  H        0.6301520     0.6189470    -1.3788980
  H       -1.3096140     1.4447800    -0.0505840
  H       -0.6798913     0.6126079     1.3645798
  H        1.5826490    -0.5504470     1.0004920
  H       -0.7479790    -1.2966940    -0.0970910
units angstrom
no_reorient  #important for SAPT in psi4, default
symmetry c1  #important for SAPT in psi4, default
}

set PROPERTIES_ORIGIN ["COM"]
properties('MP2/aug-cc-pvtz', properties = ['dipole'])
--------------------------------------------------------------------------

    Molecular point group: c1
  Charge       = 0
  Multiplicity = 1
  Basis Set: AUG-CC-PVTZ
    Blend: AUG-CC-PVTZ
  Basis Set: (AUG-CC-PVTZ AUX)
    Blend: AUG-CC-PVTZ-JKFIT

    Orbital Energies [Eh]
    ---------------------

    Doubly Occupied:

       1A    -20.576709     2A    -20.554564     3A    -11.286304
       4A    -11.277737     5A     -1.380620     6A     -1.347096
       7A     -1.002407     8A     -0.852530     9A     -0.705940
      10A     -0.690921    11A     -0.646333    12A     -0.616582
      13A     -0.571870    14A     -0.526459    15A     -0.510659
      16A     -0.474237    17A     -0.438986

  @DF-RHF Final Energy:  -229.02819088425076

   => Energetics <=

    Nuclear Repulsion Energy =            133.6580708760391474
    One-Electron Energy =                -578.4526173891064218
    Two-Electron Energy =                 215.7663556288165410
    Total Energy =                       -229.0281908842507619
  Basis Set: (AUG-CC-PVTZ AUX)
    Blend: AUG-CC-PVTZ-RI
    Molecular point group: c1

    Geometry (in Angstrom), charge = 0, multiplicity = 1:

       Center              X                  Y                   Z               Mass
    ------------   -----------------  -----------------  -----------------  -----------------
         O            1.374219243577    -0.563599778847     0.068827306756    15.994914619570
         O           -1.398995756423    -0.546440778847    -0.148750693244    15.994914619570
         C            0.686618243577     0.649047221153    -0.273310693244    12.000000000000
         C           -0.718486756423     0.616335221153     0.297898306756    12.000000000000
         H            1.240861243577     1.535522221153     0.063096306756     1.007825032230
         H            0.641451243577     0.656095221153    -1.364080693244     1.007825032230
         H           -1.298314756423     1.481928221153    -0.035766693244     1.007825032230
         H           -0.668592056423     0.649756121153     1.379397106756     1.007825032230
         H            1.593948243577    -0.513298778847     1.015309306756     1.007825032230
         H           -0.736679756423    -1.259545778847    -0.082273693244     1.007825032230

  Basis Set: AUG-CC-PVTZ
    Blend: AUG-CC-PVTZ
  Basis Set: (AUG-CC-PVTZ AUX)
    Blend: AUG-CC-PVTZ-JKFIT
	 Reference Energy          =    -229.0281908842507619 [Eh]
	 Singles Energy            =      -0.0000000000000000 [Eh]
	 Same-Spin Energy          =      -0.2168217771545393 [Eh]
	 Opposite-Spin Energy      =      -0.7050375871311038 [Eh]
	 Correlation Energy        =      -0.9218593642856431 [Eh]
	 Total Energy              =    -229.9500502485363995 [Eh]

	 ================> DF-SCS-MP2 Energies <==================
	-----------------------------------------------------------
	 SCS Same-Spin Scale       =       0.3333333333333333 [-]
	 SCS Opposite-Spin Scale   =       1.2000000000000000 [-]
	 SCS Same-Spin Energy      =      -0.0722739257181798 [Eh]
	 SCS Opposite-Spin Energy  =      -0.8460451045573245 [Eh]
	 SCS Correlation Energy    =      -0.9183190302755043 [Eh]
	 SCS Total Energy          =    -229.9465099145262741 [Eh]
	-----------------------------------------------------------

  Dipole Moment: [D]
     X:     1.4184      Y:     1.4951      Z:     1.4935     Total:     2.5451

*** Psi4 exiting successfully. Buy a developer a beer!
