                               Psi4 1.4a3.dev225

  ==> Input File <==

--------------------------------------------------------------------------
#psi4
#
memory 32 gb

molecule  {
0 1
  O        1.3629200    -0.6007480     0.0540100
  O       -1.4102950    -0.5835890    -0.1635680
  C        0.6753190     0.6118990    -0.2881280
  C       -0.7297860     0.5791870     0.2830810
  H        1.2295620     1.4983740     0.0482790
  H        0.6301520     0.6189470    -1.3788980
  H       -1.3096140     1.4447800    -0.0505840
  H       -0.6789700     0.6132250     1.3845490
  H        1.5939409    -0.5478620     1.0491316
  H       -0.7479790    -1.2966940    -0.0970910
units angstrom
no_reorient  #important for SAPT in psi4, default
symmetry c1  #important for SAPT in psi4, default
}

set PROPERTIES_ORIGIN ["COM"]
properties('MP2/aug-cc-pvtz', properties = ['dipole'])
--------------------------------------------------------------------------

    Molecular point group: c1
  Charge       = 0
  Multiplicity = 1
  Basis Set: AUG-CC-PVTZ
    Blend: AUG-CC-PVTZ
  Basis Set: (AUG-CC-PVTZ AUX)
    Blend: AUG-CC-PVTZ-JKFIT

    Orbital Energies [Eh]
    ---------------------

    Doubly Occupied:

       1A    -20.581091     2A    -20.554786     3A    -11.286119
       4A    -11.279979     5A     -1.374281     6A     -1.343233
       7A     -0.999380     8A     -0.847813     9A     -0.701648
      10A     -0.687129    11A     -0.642362    12A     -0.614723
      13A     -0.570988    14A     -0.525637    15A     -0.508058
      16A     -0.472896    17A     -0.438009

  @DF-RHF Final Energy:  -229.02299523713074

   => Energetics <=

    Nuclear Repulsion Energy =            133.2968904671941743
    One-Electron Energy =                -577.7835065382316770
    Two-Electron Energy =                 215.4636208339067309
    Total Energy =                       -229.0229952371307434
  Basis Set: (AUG-CC-PVTZ AUX)
    Blend: AUG-CC-PVTZ-RI
    Molecular point group: c1

    Geometry (in Angstrom), charge = 0, multiplicity = 1:

       Center              X                  Y                   Z               Mass
    ------------   -----------------  -----------------  -----------------  -----------------
         O            1.374020832751    -0.563651798900     0.067712715272    15.994914619570
         O           -1.399194167249    -0.546492798900    -0.149865284728    15.994914619570
         C            0.686419832751     0.648995201100    -0.274425284728    12.000000000000
         C           -0.718685167249     0.616283201100     0.296783715272    12.000000000000
         H            1.240662832751     1.535470201100     0.061981715272     1.007825032230
         H            0.641252832751     0.656043201100    -1.365195284728     1.007825032230
         H           -1.298513167249     1.481876201100    -0.036881284728     1.007825032230
         H           -0.667869167249     0.650321201100     1.398251715272     1.007825032230
         H            1.605041732751    -0.510765798900     1.062834315272     1.007825032230
         H           -0.736878167249    -1.259597798900    -0.083388284728     1.007825032230

  Basis Set: AUG-CC-PVTZ
    Blend: AUG-CC-PVTZ
  Basis Set: (AUG-CC-PVTZ AUX)
    Blend: AUG-CC-PVTZ-JKFIT
	 Reference Energy          =    -229.0229952371307434 [Eh]
	 Singles Energy            =      -0.0000000000000000 [Eh]
	 Same-Spin Energy          =      -0.2173850736100583 [Eh]
	 Opposite-Spin Energy      =      -0.7067146809290562 [Eh]
	 Correlation Energy        =      -0.9240997545391145 [Eh]
	 Total Energy              =    -229.9470949916698714 [Eh]

	 ================> DF-SCS-MP2 Energies <==================
	-----------------------------------------------------------
	 SCS Same-Spin Scale       =       0.3333333333333333 [-]
	 SCS Opposite-Spin Scale   =       1.2000000000000000 [-]
	 SCS Same-Spin Energy      =      -0.0724616912033527 [Eh]
	 SCS Opposite-Spin Energy  =      -0.8480576171148674 [Eh]
	 SCS Correlation Energy    =      -0.9205193083182202 [Eh]
	 SCS Total Energy          =    -229.9435145454489771 [Eh]
	-----------------------------------------------------------

  Dipole Moment: [D]
     X:     1.4333      Y:     1.4817      Z:     1.5094     Total:     2.5550

*** Psi4 exiting successfully. Buy a developer a beer!
