                               Psi4 1.4a3.dev225

  ==> Input File <==

--------------------------------------------------------------------------
#psi4
#
memory 32 gb

molecule  {
0 1
  O        1.3629200    -0.6007480     0.0540100
  O       -1.4102950    -0.5835890    -0.1635680
  C        0.6753190     0.6118990    -0.2881280
  C       -0.7297860     0.5791870     0.2830810
  H        1.2295620     1.4983740     0.0482790
  H        0.6301520     0.6189470    -1.3788980
  H       -1.3626159     1.5239036    -0.0810842
  H       -0.6789700     0.6132250     1.3845490
  H        1.5826490    -0.5504470     1.0004920
  H       -0.7479790    -1.2966940    -0.0970910
units angstrom
no_reorient  #important for SAPT in psi4, default
symmetry c1  #important for SAPT in psi4, default
}

set PROPERTIES_ORIGIN ["COM"]
properties('MP2/aug-cc-pvtz', properties = ['dipole'])
--------------------------------------------------------------------------

    Molecular point group: c1
  Charge       = 0
  Multiplicity = 1
  Basis Set: AUG-CC-PVTZ
    Blend: AUG-CC-PVTZ
  Basis Set: (AUG-CC-PVTZ AUX)
    Blend: AUG-CC-PVTZ-JKFIT

    Orbital Energies [Eh]
    ---------------------

    Doubly Occupied:

       1A    -20.577851     2A    -20.556885     3A    -11.292370
       4A    -11.287570     5A     -1.381851     6A     -1.348614
       7A     -0.998426     8A     -0.844954     9A     -0.705931
      10A     -0.690163    11A     -0.645580    12A     -0.611443
      13A     -0.567671    14A     -0.526102    15A     -0.508959
      16A     -0.469185    17A     -0.439767

  @DF-RHF Final Energy:  -229.02141412142367

   => Energetics <=

    Nuclear Repulsion Energy =            133.1361393893842546
    One-Electron Energy =                -577.4084640826210943
    Two-Electron Energy =                 215.2509105718131650
    Total Energy =                       -229.0214141214236747
  Basis Set: (AUG-CC-PVTZ AUX)
    Blend: AUG-CC-PVTZ-RI
    Molecular point group: c1

    Geometry (in Angstrom), charge = 0, multiplicity = 1:

       Center              X                  Y                   Z               Mass
    ------------   -----------------  -----------------  -----------------  -----------------
         O            1.375065324448    -0.564895214785     0.068998389226    15.994914619570
         O           -1.398149675552    -0.547736214785    -0.148579610774    15.994914619570
         C            0.687464324448     0.647751785215    -0.273139610774    12.000000000000
         C           -0.717640675552     0.615039785215     0.298069389226    12.000000000000
         H            1.241707324448     1.534226785215     0.063267389226     1.007825032230
         H            0.642297324448     0.654799785215    -1.363909610774     1.007825032230
         H           -1.350470575552     1.559756385215    -0.066095810774     1.007825032230
         H           -0.666824675552     0.649077785215     1.399537389226     1.007825032230
         H            1.594794324448    -0.514594214785     1.015480389226     1.007825032230
         H           -0.735833675552    -1.260841214785    -0.082102610774     1.007825032230

  Basis Set: AUG-CC-PVTZ
    Blend: AUG-CC-PVTZ
  Basis Set: (AUG-CC-PVTZ AUX)
    Blend: AUG-CC-PVTZ-JKFIT
	 Reference Energy          =    -229.0214141214236747 [Eh]
	 Singles Energy            =      -0.0000000000000000 [Eh]
	 Same-Spin Energy          =      -0.2169002004161133 [Eh]
	 Opposite-Spin Energy      =      -0.7059113991290460 [Eh]
	 Correlation Energy        =      -0.9228115995451593 [Eh]
	 Total Energy              =    -229.9442257209688307 [Eh]

	 ================> DF-SCS-MP2 Energies <==================
	-----------------------------------------------------------
	 SCS Same-Spin Scale       =       0.3333333333333333 [-]
	 SCS Opposite-Spin Scale   =       1.2000000000000000 [-]
	 SCS Same-Spin Energy      =      -0.0723000668053711 [Eh]
	 SCS Opposite-Spin Energy  =      -0.8470936789548552 [Eh]
	 SCS Correlation Energy    =      -0.9193937457602263 [Eh]
	 SCS Total Energy          =    -229.9408078671839064 [Eh]
	-----------------------------------------------------------

  Dipole Moment: [D]
     X:     1.4444      Y:     1.4213      Z:     1.4797     Total:     2.5092

*** Psi4 exiting successfully. Buy a developer a beer!
