                               Psi4 1.4a3.dev225

  ==> Input File <==

--------------------------------------------------------------------------
#psi4
#
memory 32 gb

molecule  {
0 1
  O        1.3629200    -0.6007480     0.0540100
  O       -1.4102950    -0.5835890    -0.1635680
  C        0.7711253     0.4429358    -0.2404565
  C       -0.7297860     0.5791870     0.2830810
  H        1.2295620     1.4983740     0.0482790
  H        0.6301520     0.6189470    -1.3788980
  H       -1.3096140     1.4447800    -0.0505840
  H       -0.6789700     0.6132250     1.3845490
  H        1.5826490    -0.5504470     1.0004920
  H       -0.7479790    -1.2966940    -0.0970910
units angstrom
no_reorient  #important for SAPT in psi4, default
symmetry c1  #important for SAPT in psi4, default
}

set PROPERTIES_ORIGIN ["COM"]
properties('MP2/aug-cc-pvtz', properties = ['dipole'])
--------------------------------------------------------------------------

    Molecular point group: c1
  Charge       = 0
  Multiplicity = 1
  Basis Set: AUG-CC-PVTZ
    Blend: AUG-CC-PVTZ
  Basis Set: (AUG-CC-PVTZ AUX)
    Blend: AUG-CC-PVTZ-JKFIT

    Orbital Energies [Eh]
    ---------------------

    Doubly Occupied:

       1A    -20.600118     2A    -20.551095     3A    -11.294764
       4A    -11.274710     5A     -1.475375     6A     -1.351462
       7A     -0.973258     8A     -0.864680     9A     -0.738984
      10A     -0.702894    11A     -0.680132    12A     -0.633776
      13A     -0.582777    14A     -0.545758    15A     -0.478982
      16A     -0.453334    17A     -0.402102

  @DF-RHF Final Energy:  -228.98493212435557

   => Energetics <=

    Nuclear Repulsion Energy =            135.4907848920685183
    One-Electron Energy =                -581.7430287993132652
    Two-Electron Energy =                 217.2673117828891804
    Total Energy =                       -228.9849321243555664
  Basis Set: (AUG-CC-PVTZ AUX)
    Blend: AUG-CC-PVTZ-RI
    Molecular point group: c1

    Geometry (in Angstrom), charge = 0, multiplicity = 1:

       Center              X                  Y                   Z               Mass
    ------------   -----------------  -----------------  -----------------  -----------------
         O            1.355672115249    -0.530926637370     0.059281623292    15.994914619570
         O           -1.417542884751    -0.513767637370    -0.158296376708    15.994914619570
         C            0.763877415249     0.512757162630    -0.235184876708    12.000000000000
         C           -0.737033884751     0.649008362630     0.288352623292    12.000000000000
         H            1.222314115249     1.568195362630     0.053550623292     1.007825032230
         H            0.622904115249     0.688768362630    -1.373626376708     1.007825032230
         H           -1.316861884751     1.514601362630    -0.045312376708     1.007825032230
         H           -0.686217884751     0.683046362630     1.389820623292     1.007825032230
         H            1.575401115249    -0.480625637370     1.005763623292     1.007825032230
         H           -0.755226884751    -1.226872637370    -0.091819376708     1.007825032230

  Basis Set: AUG-CC-PVTZ
    Blend: AUG-CC-PVTZ
  Basis Set: (AUG-CC-PVTZ AUX)
    Blend: AUG-CC-PVTZ-JKFIT
	 Reference Energy          =    -228.9849321243555664 [Eh]
	 Singles Energy            =      -0.0000000000000000 [Eh]
	 Same-Spin Energy          =      -0.2174924852985937 [Eh]
	 Opposite-Spin Energy      =      -0.7041234577344653 [Eh]
	 Correlation Energy        =      -0.9216159430330589 [Eh]
	 Total Energy              =    -229.9065480673886270 [Eh]

	 ================> DF-SCS-MP2 Energies <==================
	-----------------------------------------------------------
	 SCS Same-Spin Scale       =       0.3333333333333333 [-]
	 SCS Opposite-Spin Scale   =       1.2000000000000000 [-]
	 SCS Same-Spin Energy      =      -0.0724974950995312 [Eh]
	 SCS Opposite-Spin Energy  =      -0.8449481492813583 [Eh]
	 SCS Correlation Energy    =      -0.9174456443808895 [Eh]
	 SCS Total Energy          =    -229.9023777687364429 [Eh]
	-----------------------------------------------------------

  Dipole Moment: [D]
     X:     1.8198      Y:     0.7691      Z:     1.6791     Total:     2.5928

*** Psi4 exiting successfully. Buy a developer a beer!
