                               Psi4 1.4a3.dev225

  ==> Input File <==

--------------------------------------------------------------------------
#psi4
#
memory 32 gb

molecule  {
0 1
  O        1.3629200    -0.6007480     0.0540100
  O       -1.4102950    -0.5835890    -0.1635680
  C        0.6753190     0.6118990    -0.2881280
  C       -0.7711351     0.6053338     0.2752634
  H        1.2295620     1.4983740     0.0482790
  H        0.6301520     0.6189470    -1.3788980
  H       -1.3096140     1.4447800    -0.0505840
  H       -0.6789700     0.6132250     1.3845490
  H        1.5826490    -0.5504470     1.0004920
  H       -0.7479790    -1.2966940    -0.0970910
units angstrom
no_reorient  #important for SAPT in psi4, default
symmetry c1  #important for SAPT in psi4, default
}

set PROPERTIES_ORIGIN ["COM"]
properties('MP2/aug-cc-pvtz', properties = ['dipole'])
--------------------------------------------------------------------------

    Molecular point group: c1
  Charge       = 0
  Multiplicity = 1
  Basis Set: AUG-CC-PVTZ
    Blend: AUG-CC-PVTZ
  Basis Set: (AUG-CC-PVTZ AUX)
    Blend: AUG-CC-PVTZ-JKFIT

    Orbital Energies [Eh]
    ---------------------

    Doubly Occupied:

       1A    -20.577598     2A    -20.553720     3A    -11.287218
       4A    -11.280020     5A     -1.379101     6A     -1.346351
       7A     -0.996207     8A     -0.854870     9A     -0.704881
      10A     -0.688016    11A     -0.642066    12A     -0.621242
      13A     -0.575524    14A     -0.525612    15A     -0.511069
      16A     -0.475453    17A     -0.431234

  @DF-RHF Final Energy:  -229.02571961731303

   => Energetics <=

    Nuclear Repulsion Energy =            133.1039649719966178
    One-Electron Energy =                -577.3590085595338905
    Two-Electron Energy =                 215.2293239702242431
    Total Energy =                       -229.0257196173130296
  Basis Set: (AUG-CC-PVTZ AUX)
    Blend: AUG-CC-PVTZ-RI
    Molecular point group: c1

    Geometry (in Angstrom), charge = 0, multiplicity = 1:

       Center              X                  Y                   Z               Mass
    ------------   -----------------  -----------------  -----------------  -----------------
         O            1.382202583385    -0.568667474684     0.070015081832    15.994914619570
         O           -1.391012416615    -0.551508474684    -0.147562918168    15.994914619570
         C            0.694601583385     0.643979525316    -0.272122918168    12.000000000000
         C           -0.751852516615     0.637414325316     0.291268481832    12.000000000000
         H            1.248844583385     1.530454525316     0.064284081832     1.007825032230
         H            0.649434583385     0.651027525316    -1.362892918168     1.007825032230
         H           -1.290331416615     1.476860525316    -0.034578918168     1.007825032230
         H           -0.659687416615     0.645305525316     1.400554081832     1.007825032230
         H            1.601931583385    -0.518366474684     1.016497081832     1.007825032230
         H           -0.728696416615    -1.264613474684    -0.081085918168     1.007825032230

  Basis Set: AUG-CC-PVTZ
    Blend: AUG-CC-PVTZ
  Basis Set: (AUG-CC-PVTZ AUX)
    Blend: AUG-CC-PVTZ-JKFIT
	 Reference Energy          =    -229.0257196173130296 [Eh]
	 Singles Energy            =      -0.0000000000000000 [Eh]
	 Same-Spin Energy          =      -0.2166173905921614 [Eh]
	 Opposite-Spin Energy      =      -0.7049927972283561 [Eh]
	 Correlation Energy        =      -0.9216101878205174 [Eh]
	 Total Energy              =    -229.9473298051335348 [Eh]

	 ================> DF-SCS-MP2 Energies <==================
	-----------------------------------------------------------
	 SCS Same-Spin Scale       =       0.3333333333333333 [-]
	 SCS Opposite-Spin Scale   =       1.2000000000000000 [-]
	 SCS Same-Spin Energy      =      -0.0722057968640538 [Eh]
	 SCS Opposite-Spin Energy  =      -0.8459913566740273 [Eh]
	 SCS Correlation Energy    =      -0.9181971535380811 [Eh]
	 SCS Total Energy          =    -229.9439167708511036 [Eh]
	-----------------------------------------------------------

  Dipole Moment: [D]
     X:     1.3831      Y:     1.5115      Z:     1.4645     Total:     2.5185

*** Psi4 exiting successfully. Buy a developer a beer!
