                               Psi4 1.4a3.dev225

  ==> Input File <==

--------------------------------------------------------------------------
#psi4
#
memory 32 gb

molecule  {
0 1
  O        1.3629200    -0.6007480     0.0540100
  O       -1.4102950    -0.5835890    -0.1635680
  C        0.6753190     0.6118990    -0.2881280
  C       -0.6371697     0.5813432     0.2454303
  H        1.2295620     1.4983740     0.0482790
  H        0.6301520     0.6189470    -1.3788980
  H       -1.3096140     1.4447800    -0.0505840
  H       -0.6789700     0.6132250     1.3845490
  H        1.5826490    -0.5504470     1.0004920
  H       -0.7479790    -1.2966940    -0.0970910
units angstrom
no_reorient  #important for SAPT in psi4, default
symmetry c1  #important for SAPT in psi4, default
}

set PROPERTIES_ORIGIN ["COM"]
properties('MP2/aug-cc-pvtz', properties = ['dipole'])
--------------------------------------------------------------------------

    Molecular point group: c1
  Charge       = 0
  Multiplicity = 1
  Basis Set: AUG-CC-PVTZ
    Blend: AUG-CC-PVTZ
  Basis Set: (AUG-CC-PVTZ AUX)
    Blend: AUG-CC-PVTZ-JKFIT

    Orbital Energies [Eh]
    ---------------------

    Doubly Occupied:

       1A    -20.577809     2A    -20.554339     3A    -11.285404
       4A    -11.283696     5A     -1.382741     6A     -1.338415
       7A     -1.027208     8A     -0.842442     9A     -0.708566
      10A     -0.694487    11A     -0.651163    12A     -0.608877
      13A     -0.560778    14A     -0.524357    15A     -0.512127
      16A     -0.476323    17A     -0.443959

  @DF-RHF Final Energy:  -229.01528191157851

   => Energetics <=

    Nuclear Repulsion Energy =            134.3275273042422384
    One-Electron Energy =                -579.7402386838803068
    Two-Electron Energy =                 216.3974294680595278
    Total Energy =                       -229.0152819115785121
  Basis Set: (AUG-CC-PVTZ AUX)
    Blend: AUG-CC-PVTZ-RI
    Molecular point group: c1

    Geometry (in Angstrom), charge = 0, multiplicity = 1:

       Center              X                  Y                   Z               Mass
    ------------   -----------------  -----------------  -----------------  -----------------
         O            1.356289168558    -0.564026885623     0.075785806929    15.994914619570
         O           -1.416925831442    -0.546867885623    -0.141792193071    15.994914619570
         C            0.668688168558     0.648620114377    -0.266352193071    12.000000000000
         C           -0.643800531442     0.618064314377     0.267206106929    12.000000000000
         H            1.222931168558     1.535095114377     0.070054806929     1.007825032230
         H            0.623521168558     0.655668114377    -1.357122193071     1.007825032230
         H           -1.316244831442     1.481501114377    -0.028808193071     1.007825032230
         H           -0.685600831442     0.649946114377     1.406324806929     1.007825032230
         H            1.576018168558    -0.513725885623     1.022267806929     1.007825032230
         H           -0.754609831442    -1.259972885623    -0.075315193071     1.007825032230

  Basis Set: AUG-CC-PVTZ
    Blend: AUG-CC-PVTZ
  Basis Set: (AUG-CC-PVTZ AUX)
    Blend: AUG-CC-PVTZ-JKFIT
	 Reference Energy          =    -229.0152819115785121 [Eh]
	 Singles Energy            =      -0.0000000000000000 [Eh]
	 Same-Spin Energy          =      -0.2180119547011290 [Eh]
	 Opposite-Spin Energy      =      -0.7071325331277640 [Eh]
	 Correlation Energy        =      -0.9251444878288930 [Eh]
	 Total Energy              =    -229.9404263994074142 [Eh]

	 ================> DF-SCS-MP2 Energies <==================
	-----------------------------------------------------------
	 SCS Same-Spin Scale       =       0.3333333333333333 [-]
	 SCS Opposite-Spin Scale   =       1.2000000000000000 [-]
	 SCS Same-Spin Energy      =      -0.0726706515670430 [Eh]
	 SCS Opposite-Spin Energy  =      -0.8485590397533168 [Eh]
	 SCS Correlation Energy    =      -0.9212296913203598 [Eh]
	 SCS Total Energy          =    -229.9365116028988609 [Eh]
	-----------------------------------------------------------

  Dipole Moment: [D]
     X:     1.5215      Y:     1.5624      Z:     1.4371     Total:     2.6118

*** Psi4 exiting successfully. Buy a developer a beer!
