                               Psi4 1.4a3.dev225

  ==> Input File <==

--------------------------------------------------------------------------
#psi4
#
memory 32 gb

molecule  {
0 1
  O        1.3524417    -0.5753655     0.1503627
  O       -1.4102950    -0.5835890    -0.1635680
  C        0.6753190     0.6118990    -0.2881280
  C       -0.7297860     0.5791870     0.2830810
  H        1.2295620     1.4983740     0.0482790
  H        0.6301520     0.6189470    -1.3788980
  H       -1.3096140     1.4447800    -0.0505840
  H       -0.6789700     0.6132250     1.3845490
  H        1.5826490    -0.5504470     1.0004920
  H       -0.7479790    -1.2966940    -0.0970910
units angstrom
no_reorient  #important for SAPT in psi4, default
symmetry c1  #important for SAPT in psi4, default
}

set PROPERTIES_ORIGIN ["COM"]
properties('MP2/aug-cc-pvtz', properties = ['dipole'])
--------------------------------------------------------------------------

    Molecular point group: c1
  Charge       = 0
  Multiplicity = 1
  Basis Set: AUG-CC-PVTZ
    Blend: AUG-CC-PVTZ
  Basis Set: (AUG-CC-PVTZ AUX)
    Blend: AUG-CC-PVTZ-JKFIT

    Orbital Energies [Eh]
    ---------------------

    Doubly Occupied:

       1A    -20.563634     2A    -20.554893     3A    -11.289090
       4A    -11.279345     5A     -1.395422     6A     -1.351323
       7A     -1.007693     8A     -0.859310     9A     -0.714210
      10A     -0.695424    11A     -0.652544    12A     -0.613867
      13A     -0.577059    14A     -0.529040    15A     -0.507264
      16A     -0.472765    17A     -0.438559

  @DF-RHF Final Energy:  -229.02378992817836

   => Energetics <=

    Nuclear Repulsion Energy =            134.1649036681081952
    One-Electron Energy =                -579.3745078151900998
    Two-Electron Energy =                 216.1858142189035448
    Total Energy =                       -229.0237899281783598
  Basis Set: (AUG-CC-PVTZ AUX)
    Blend: AUG-CC-PVTZ-RI
    Molecular point group: c1

    Geometry (in Angstrom), charge = 0, multiplicity = 1:

       Center              X                  Y                   Z               Mass
    ------------   -----------------  -----------------  -----------------  -----------------
         O            1.366427591823    -0.544771662438     0.140013022206    15.994914619570
         O           -1.396309108177    -0.552995162438    -0.173917677794    15.994914619570
         C            0.689304891823     0.642492837562    -0.298477677794    12.000000000000
         C           -0.715800108177     0.609780837562     0.272731322206    12.000000000000
         H            1.243547891823     1.528967837562     0.037929322206     1.007825032230
         H            0.644137891823     0.649540837562    -1.389247677794     1.007825032230
         H           -1.295628108177     1.475373837562    -0.060933677794     1.007825032230
         H           -0.664984108177     0.643818837562     1.374199322206     1.007825032230
         H            1.596634891823    -0.519853162438     0.990142322206     1.007825032230
         H           -0.733993108177    -1.266100162438    -0.107440677794     1.007825032230

  Basis Set: AUG-CC-PVTZ
    Blend: AUG-CC-PVTZ
  Basis Set: (AUG-CC-PVTZ AUX)
    Blend: AUG-CC-PVTZ-JKFIT
	 Reference Energy          =    -229.0237899281783598 [Eh]
	 Singles Energy            =      -0.0000000000000000 [Eh]
	 Same-Spin Energy          =      -0.2156048297514878 [Eh]
	 Opposite-Spin Energy      =      -0.7020441148721202 [Eh]
	 Correlation Energy        =      -0.9176489446236079 [Eh]
	 Total Energy              =    -229.9414388728019674 [Eh]

	 ================> DF-SCS-MP2 Energies <==================
	-----------------------------------------------------------
	 SCS Same-Spin Scale       =       0.3333333333333333 [-]
	 SCS Opposite-Spin Scale   =       1.2000000000000000 [-]
	 SCS Same-Spin Energy      =      -0.0718682765838292 [Eh]
	 SCS Opposite-Spin Energy  =      -0.8424529378465442 [Eh]
	 SCS Correlation Energy    =      -0.9143212144303734 [Eh]
	 SCS Total Energy          =    -229.9381111426087330 [Eh]
	-----------------------------------------------------------

  Dipole Moment: [D]
     X:     1.4346      Y:     1.4949      Z:     1.3238     Total:     2.4587

*** Psi4 exiting successfully. Buy a developer a beer!
