                               Psi4 1.4a3.dev225

  ==> Input File <==

--------------------------------------------------------------------------
#psi4
#
memory 32 gb

molecule  {
0 1
  O        1.3629200    -0.6007480     0.0540100
  O       -1.4102950    -0.5835890    -0.1635680
  C        0.6753190     0.6118990    -0.2881280
  C       -0.7297860     0.5791870     0.2830810
  H        1.2295620     1.4983740     0.0482790
  H        0.6309794     0.6188179    -1.3589155
  H       -1.3096140     1.4447800    -0.0505840
  H       -0.6789700     0.6132250     1.3845490
  H        1.5826490    -0.5504470     1.0004920
  H       -0.7479790    -1.2966940    -0.0970910
units angstrom
no_reorient  #important for SAPT in psi4, default
symmetry c1  #important for SAPT in psi4, default
}

set PROPERTIES_ORIGIN ["COM"]
properties('MP2/aug-cc-pvtz', properties = ['dipole'])
--------------------------------------------------------------------------

    Molecular point group: c1
  Charge       = 0
  Multiplicity = 1
  Basis Set: AUG-CC-PVTZ
    Blend: AUG-CC-PVTZ
  Basis Set: (AUG-CC-PVTZ AUX)
    Blend: AUG-CC-PVTZ-JKFIT

    Orbital Energies [Eh]
    ---------------------

    Doubly Occupied:

       1A    -20.576456     2A    -20.555071     3A    -11.284177
       4A    -11.280123     5A     -1.380618     6A     -1.347289
       7A     -1.002694     8A     -0.852662     9A     -0.706136
      10A     -0.690646    11A     -0.645368    12A     -0.616339
      13A     -0.573112    14A     -0.527267    15A     -0.511823
      16A     -0.473543    17A     -0.438516

  @DF-RHF Final Energy:  -229.02811580560183

   => Energetics <=

    Nuclear Repulsion Energy =            133.6595852833128788
    One-Electron Energy =                -578.4517222142740138
    Two-Electron Energy =                 215.7640211253593066
    Total Energy =                       -229.0281158056018285
  Basis Set: (AUG-CC-PVTZ AUX)
    Blend: AUG-CC-PVTZ-RI
    Molecular point group: c1

    Geometry (in Angstrom), charge = 0, multiplicity = 1:

       Center              X                  Y                   Z               Mass
    ------------   -----------------  -----------------  -----------------  -----------------
         O            1.374190834887    -0.563607706703     0.068178267207    15.994914619570
         O           -1.399024165113    -0.546448706703    -0.149399732793    15.994914619570
         C            0.686589834887     0.649039293297    -0.273959732793    12.000000000000
         C           -0.718515165113     0.616327293297     0.297249267207    12.000000000000
         H            1.240832834887     1.535514293297     0.062447267207     1.007825032230
         H            0.642250234887     0.655958193297    -1.344747232793     1.007825032230
         H           -1.298343165113     1.481920293297    -0.036415732793     1.007825032230
         H           -0.667699165113     0.650365293297     1.398717267207     1.007825032230
         H            1.593919834887    -0.513306706703     1.014660267207     1.007825032230
         H           -0.736708165113    -1.259553706703    -0.082922732793     1.007825032230

  Basis Set: AUG-CC-PVTZ
    Blend: AUG-CC-PVTZ
  Basis Set: (AUG-CC-PVTZ AUX)
    Blend: AUG-CC-PVTZ-JKFIT
	 Reference Energy          =    -229.0281158056018285 [Eh]
	 Singles Energy            =      -0.0000000000000000 [Eh]
	 Same-Spin Energy          =      -0.2168233029746040 [Eh]
	 Opposite-Spin Energy      =      -0.7050439320420102 [Eh]
	 Correlation Energy        =      -0.9218672350166142 [Eh]
	 Total Energy              =    -229.9499830406184344 [Eh]

	 ================> DF-SCS-MP2 Energies <==================
	-----------------------------------------------------------
	 SCS Same-Spin Scale       =       0.3333333333333333 [-]
	 SCS Opposite-Spin Scale   =       1.2000000000000000 [-]
	 SCS Same-Spin Energy      =      -0.0722744343248680 [Eh]
	 SCS Opposite-Spin Energy  =      -0.8460527184504122 [Eh]
	 SCS Correlation Energy    =      -0.9183271527752802 [Eh]
	 SCS Total Energy          =    -229.9464429583771050 [Eh]
	-----------------------------------------------------------

  Dipole Moment: [D]
     X:     1.4153      Y:     1.4916      Z:     1.4657     Total:     2.5251

*** Psi4 exiting successfully. Buy a developer a beer!
