                               Psi4 1.4a3.dev225

  ==> Input File <==

--------------------------------------------------------------------------
#psi4
#
memory 32 gb

molecule  {
0 1
  O        1.3629200    -0.6007480     0.0540100
  O       -1.4102950    -0.5835890    -0.1635680
  C        0.6848996     0.5950027    -0.2833608
  C       -0.7297860     0.5791870     0.2830810
  H        1.2295620     1.4983740     0.0482790
  H        0.6301520     0.6189470    -1.3788980
  H       -1.3096140     1.4447800    -0.0505840
  H       -0.6789700     0.6132250     1.3845490
  H        1.5826490    -0.5504470     1.0004920
  H       -0.7479790    -1.2966940    -0.0970910
units angstrom
no_reorient  #important for SAPT in psi4, default
symmetry c1  #important for SAPT in psi4, default
}

set PROPERTIES_ORIGIN ["COM"]
properties('MP2/aug-cc-pvtz', properties = ['dipole'])
--------------------------------------------------------------------------

    Molecular point group: c1
  Charge       = 0
  Multiplicity = 1
  Basis Set: AUG-CC-PVTZ
    Blend: AUG-CC-PVTZ
  Basis Set: (AUG-CC-PVTZ AUX)
    Blend: AUG-CC-PVTZ-JKFIT

    Orbital Energies [Eh]
    ---------------------

    Doubly Occupied:

       1A    -20.578931     2A    -20.554635     3A    -11.286649
       4A    -11.279779     5A     -1.386780     6A     -1.348997
       7A     -0.998808     8A     -0.851213     9A     -0.708084
      10A     -0.691432    11A     -0.646379    12A     -0.618113
      13A     -0.573496    14A     -0.528105    15A     -0.508701
      16A     -0.472922    17A     -0.435796

  @DF-RHF Final Energy:  -229.02806648890146

   => Energetics <=

    Nuclear Repulsion Energy =            133.7367792540426308
    One-Electron Energy =                -578.5920490455947629
    Two-Electron Energy =                 215.8272033026506733
    Total Energy =                       -229.0280664889014588
  Basis Set: (AUG-CC-PVTZ AUX)
    Blend: AUG-CC-PVTZ-RI
    Molecular point group: c1

    Geometry (in Angstrom), charge = 0, multiplicity = 1:

       Center              X                  Y                   Z               Mass
    ------------   -----------------  -----------------  -----------------  -----------------
         O            1.372351066179    -0.560341491215     0.067580758171    15.994914619570
         O           -1.400863933821    -0.543182491215    -0.149997241829    15.994914619570
         C            0.694330666179     0.635409208785    -0.269790041829    12.000000000000
         C           -0.720354933821     0.619593508785     0.296651758171    12.000000000000
         H            1.238993066179     1.538780508785     0.061849758171     1.007825032230
         H            0.639583066179     0.659353508785    -1.365327241829     1.007825032230
         H           -1.300182933821     1.485186508785    -0.037013241829     1.007825032230
         H           -0.669538933821     0.653631508785     1.398119758171     1.007825032230
         H            1.592080066179    -0.510040491215     1.014062758171     1.007825032230
         H           -0.738547933821    -1.256287491215    -0.083520241829     1.007825032230

  Basis Set: AUG-CC-PVTZ
    Blend: AUG-CC-PVTZ
  Basis Set: (AUG-CC-PVTZ AUX)
    Blend: AUG-CC-PVTZ-JKFIT
	 Reference Energy          =    -229.0280664889014588 [Eh]
	 Singles Energy            =      -0.0000000000000000 [Eh]
	 Same-Spin Energy          =      -0.2167924531493958 [Eh]
	 Opposite-Spin Energy      =      -0.7048674107865166 [Eh]
	 Correlation Energy        =      -0.9216598639359124 [Eh]
	 Total Energy              =    -229.9497263528373594 [Eh]

	 ================> DF-SCS-MP2 Energies <==================
	-----------------------------------------------------------
	 SCS Same-Spin Scale       =       0.3333333333333333 [-]
	 SCS Opposite-Spin Scale   =       1.2000000000000000 [-]
	 SCS Same-Spin Energy      =      -0.0722641510497986 [Eh]
	 SCS Opposite-Spin Energy  =      -0.8458408929438199 [Eh]
	 SCS Correlation Energy    =      -0.9181050439936185 [Eh]
	 SCS Total Energy          =    -229.9461715328950788 [Eh]
	-----------------------------------------------------------

  Dipole Moment: [D]
     X:     1.4527      Y:     1.4298      Z:     1.4918     Total:     2.5259

*** Psi4 exiting successfully. Buy a developer a beer!
