                               Psi4 1.4a3.dev225

  ==> Input File <==

--------------------------------------------------------------------------
#psi4
#
memory 32 gb

molecule  {
0 1
  O        1.3629200    -0.6007480     0.0540100
  O       -1.4102950    -0.5835890    -0.1635680
  C        0.6753190     0.6118990    -0.2881280
  C       -0.7297860     0.5791870     0.2830810
  H        1.2295620     1.4983740     0.0482790
  H        0.6301520     0.6189470    -1.3788980
  H       -1.3096140     1.4447800    -0.0505840
  H       -0.6789700     0.6132250     1.3845490
  H        1.5826490    -0.5504470     1.0004920
  H       -0.7615580    -1.2820737    -0.0984539
units angstrom
no_reorient  #important for SAPT in psi4, default
symmetry c1  #important for SAPT in psi4, default
}

set PROPERTIES_ORIGIN ["COM"]
properties('MP2/aug-cc-pvtz', properties = ['dipole'])
--------------------------------------------------------------------------

    Molecular point group: c1
  Charge       = 0
  Multiplicity = 1
  Basis Set: AUG-CC-PVTZ
    Blend: AUG-CC-PVTZ
  Basis Set: (AUG-CC-PVTZ AUX)
    Blend: AUG-CC-PVTZ-JKFIT

    Orbital Energies [Eh]
    ---------------------

    Doubly Occupied:

       1A    -20.576530     2A    -20.553654     3A    -11.286679
       4A    -11.280602     5A     -1.381952     6A     -1.350690
       7A     -1.002625     8A     -0.852345     9A     -0.707683
      10A     -0.691531    11A     -0.645262    12A     -0.617596
      13A     -0.572314    14A     -0.527959    15A     -0.511081
      16A     -0.473921    17A     -0.439054

  @DF-RHF Final Energy:  -229.02897908348078

   => Energetics <=

    Nuclear Repulsion Energy =            133.6680417919171759
    One-Electron Energy =                -578.4510883949910749
    Two-Electron Energy =                 215.7540675195931215
    Total Energy =                       -229.0289790834807775
  Basis Set: (AUG-CC-PVTZ AUX)
    Blend: AUG-CC-PVTZ-RI
    Molecular point group: c1

    Geometry (in Angstrom), charge = 0, multiplicity = 1:

       Center              X                  Y                   Z               Mass
    ------------   -----------------  -----------------  -----------------  -----------------
         O            1.374424875575    -0.563847319633     0.068525036151    15.994914619570
         O           -1.398790124425    -0.546688319633    -0.149052963849    15.994914619570
         C            0.686823875575     0.648799680367    -0.273612963849    12.000000000000
         C           -0.718281124425     0.616087680367     0.297596036151    12.000000000000
         H            1.241066875575     1.535274680367     0.062794036151     1.007825032230
         H            0.641656875575     0.655847680367    -1.364382963849     1.007825032230
         H           -1.298109124425     1.481680680367    -0.036068963849     1.007825032230
         H           -0.667465124425     0.650125680367     1.399064036151     1.007825032230
         H            1.594153875575    -0.513546319633     1.015007036151     1.007825032230
         H           -0.750053124425    -1.245173019633    -0.083938863849     1.007825032230

  Basis Set: AUG-CC-PVTZ
    Blend: AUG-CC-PVTZ
  Basis Set: (AUG-CC-PVTZ AUX)
    Blend: AUG-CC-PVTZ-JKFIT
	 Reference Energy          =    -229.0289790834807775 [Eh]
	 Singles Energy            =      -0.0000000000000000 [Eh]
	 Same-Spin Energy          =      -0.2165770733888061 [Eh]
	 Opposite-Spin Energy      =      -0.7045541772382879 [Eh]
	 Correlation Energy        =      -0.9211312506270940 [Eh]
	 Total Energy              =    -229.9501103341078760 [Eh]

	 ================> DF-SCS-MP2 Energies <==================
	-----------------------------------------------------------
	 SCS Same-Spin Scale       =       0.3333333333333333 [-]
	 SCS Opposite-Spin Scale   =       1.2000000000000000 [-]
	 SCS Same-Spin Energy      =      -0.0721923577962687 [Eh]
	 SCS Opposite-Spin Energy  =      -0.8454650126859455 [Eh]
	 SCS Correlation Energy    =      -0.9176573704822142 [Eh]
	 SCS Total Energy          =    -229.9466364539629808 [Eh]
	-----------------------------------------------------------

  Dipole Moment: [D]
     X:     1.4002      Y:     1.5037      Z:     1.4745     Total:     2.5290

*** Psi4 exiting successfully. Buy a developer a beer!
