                               Psi4 1.3.2 release

  ==> Input File <==

--------------------------------------------------------------------------
#psi4
#
memory 32 gb

molecule  {
0 1
  O        1.2542850     1.5918540    -0.0000040
  N       -1.4703060     0.9792780     0.0000030
  N        1.7567070    -0.6653920     0.0000000
  N       -1.0359320    -1.2074830     0.0000000
  C       -0.5082200     0.0183690     0.0000050
  C        0.9183560     0.3972400     0.0000000
  C       -2.6868100     0.3502900    -0.0000010
  C       -2.3919160    -1.0020460    -0.0000030
  C        3.1975750    -0.5187580     0.0000000
  H       -1.2617080     1.9724600     0.0000090
  H        1.3219030    -1.5822740     0.0000070
  H       -3.6212916     0.8920514    -0.2000010
  H       -3.0881120    -1.8301820    -0.0000070
  H        3.4134050     0.5495780    -0.0000070
  H        3.6371680    -0.9759340    -0.8910250
  H        3.6371640    -0.9759210     0.8910330
units angstrom
no_reorient  #important for SAPT in psi4, default
symmetry c1  #important for SAPT in psi4, default
}

set PROPERTIES_ORIGIN ["COM"]
properties('MP2/aug-cc-pvtz', properties = ['dipole'])
--------------------------------------------------------------------------

    Molecular point group: c1
  Charge       = 0
  Multiplicity = 1
  Basis Set: AUG-CC-PVTZ
    Blend: AUG-CC-PVTZ
  Basis Set: (AUG-CC-PVTZ AUX)
    Blend: AUG-CC-PVTZ-JKFIT

    Orbital Energies [Eh]
    ---------------------

    Doubly Occupied:

       1A    -20.527955     2A    -15.635582     3A    -15.592815
       4A    -15.571201     5A    -11.366756     6A    -11.310962
       7A    -11.280766     8A    -11.263146     9A    -11.261276
      10A     -1.387106    11A     -1.348099    12A     -1.240152
      13A     -1.180431    14A     -1.038341    15A     -0.961957
      16A     -0.858589    17A     -0.824800    18A     -0.796315
      19A     -0.772024    20A     -0.667777    21A     -0.650791
      22A     -0.639088    23A     -0.614109    24A     -0.607352
      25A     -0.594027    26A     -0.586526    27A     -0.550705
      28A     -0.536664    29A     -0.464535    30A     -0.442684
      31A     -0.418207    32A     -0.395529    33A     -0.328907

  @DF-RHF Final Energy:  -431.79464942643619

   => Energetics <=

    Nuclear Repulsion Energy =            432.5201545864858304
    One-Electron Energy =               -1445.1992577726998661
    Two-Electron Energy =                 580.8844537597777844
    Total Energy =                       -431.7946494264361945
  Basis Set: (AUG-CC-PVTZ AUX)
    Blend: AUG-CC-PVTZ-RI
    Molecular point group: c1

    Geometry (in Angstrom), charge = 0, multiplicity = 1:

       Center              X                  Y                   Z               Mass
    ------------   -----------------  -----------------  -----------------  -----------------
         O            1.286394719359     1.576468277222     0.001607767634    15.994914619570
         N           -1.438196280641     0.963892277222     0.001614767634    14.003074004430
         N            1.788816719359    -0.680777722778     0.001611767634    14.003074004430
         N           -1.003822280641    -1.222868722778     0.001611767634    14.003074004430
         C           -0.476110280641     0.002983277222     0.001616767634    12.000000000000
         C            0.950465719359     0.381854277222     0.001611767634    12.000000000000
         C           -2.654700280641     0.334904277222     0.001610767634    12.000000000000
         C           -2.359806280641    -1.017431722778     0.001608767634    12.000000000000
         C            3.229684719359    -0.534143722778     0.001611767634    12.000000000000
         H           -1.229598280641     1.957074277222     0.001620767634     1.007825032230
         H            1.354012719359    -1.597659722778     0.001618767634     1.007825032230
         H           -3.589181880641     0.876665677222    -0.198389232366     1.007825032230
         H           -3.056002280641    -1.845567722778     0.001604767634     1.007825032230
         H            3.445514719359     0.534192277222     0.001604767634     1.007825032230
         H            3.669277719359    -0.991319722778    -0.889413232366     1.007825032230
         H            3.669273719359    -0.991306722778     0.892644767634     1.007825032230

  Basis Set: AUG-CC-PVTZ
    Blend: AUG-CC-PVTZ
  Basis Set: (AUG-CC-PVTZ AUX)
    Blend: AUG-CC-PVTZ-JKFIT
	 Reference Energy          =    -431.7946494264361945 [Eh]
	 Singles Energy            =      -0.0000000000000000 [Eh]
	 Same-Spin Energy          =      -0.4558488512207818 [Eh]
	 Opposite-Spin Energy      =      -1.3799131365931472 [Eh]
	 Correlation Energy        =      -1.8357619878139291 [Eh]
	 Total Energy              =    -433.6304114142501476 [Eh]

	 ================> DF-SCS-MP2 Energies <==================
	-----------------------------------------------------------
	 SCS Same-Spin Scale       =       0.3333333333333333 [-]
	 SCS Opposite-Spin Scale   =       1.2000000000000000 [-]
	 SCS Same-Spin Energy      =      -0.1519496170735939 [Eh]
	 SCS Opposite-Spin Energy  =      -1.6558957639117766 [Eh]
	 SCS Correlation Energy    =      -1.8078453809853705 [Eh]
	 SCS Total Energy          =    -433.6024948074215786 [Eh]
	-----------------------------------------------------------

  Dipole Moment: [D]
     X:    -0.9397      Y:    -0.4210      Z:    -0.1768     Total:     1.0448

*** Psi4 exiting successfully. Buy a developer a beer!
