                               Psi4 1.3.2 release

  ==> Input File <==

--------------------------------------------------------------------------
#psi4
#
memory 32 gb

molecule  {
0 1
  O        1.2542850     1.5918540    -0.0000040
  N       -1.4703060     0.9792780     0.0000030
  N        1.7567070    -0.6653920     0.0000000
  N       -1.0359320    -1.2074830     0.0000000
  C       -0.5082200     0.0183690     0.0000050
  C        0.9183561     0.3972399     0.1000000
  C       -2.6868100     0.3502900    -0.0000010
  C       -2.3919160    -1.0020460    -0.0000030
  C        3.1975750    -0.5187580     0.0000000
  H       -1.2617080     1.9724600     0.0000090
  H        1.3219030    -1.5822740     0.0000070
  H       -3.6212920     0.8920510    -0.0000010
  H       -3.0881120    -1.8301820    -0.0000070
  H        3.4134050     0.5495780    -0.0000070
  H        3.6371680    -0.9759340    -0.8910250
  H        3.6371640    -0.9759210     0.8910330
units angstrom
no_reorient  #important for SAPT in psi4, default
symmetry c1  #important for SAPT in psi4, default
}

set PROPERTIES_ORIGIN ["COM"]
properties('MP2/aug-cc-pvtz', properties = ['dipole'])
--------------------------------------------------------------------------

    Molecular point group: c1
  Charge       = 0
  Multiplicity = 1
  Basis Set: AUG-CC-PVTZ
    Blend: AUG-CC-PVTZ
  Basis Set: (AUG-CC-PVTZ AUX)
    Blend: AUG-CC-PVTZ-JKFIT

    Orbital Energies [Eh]
    ---------------------

    Doubly Occupied:

       1A    -20.528444     2A    -15.635482     3A    -15.592918
       4A    -15.570795     5A    -11.367939     6A    -11.310939
       7A    -11.279623     8A    -11.262872     9A    -11.260651
      10A     -1.385389    11A     -1.347455    12A     -1.238700
      13A     -1.180157    14A     -1.037995    15A     -0.961602
      16A     -0.858148    17A     -0.824759    18A     -0.797285
      19A     -0.771789    20A     -0.668663    21A     -0.650298
      22A     -0.638220    23A     -0.613722    24A     -0.608330
      25A     -0.596125    26A     -0.585344    27A     -0.550318
      28A     -0.535764    29A     -0.464332    30A     -0.442111
      31A     -0.417918    32A     -0.394756    33A     -0.328485

  @DF-RHF Final Energy:  -431.79211120687057

   => Energetics <=

    Nuclear Repulsion Energy =            432.4192689947906842
    One-Electron Energy =               -1445.0081073385345007
    Two-Electron Energy =                 580.7967271368733009
    Total Energy =                       -431.7921112068705725
  Basis Set: (AUG-CC-PVTZ AUX)
    Blend: AUG-CC-PVTZ-RI
    Molecular point group: c1

    Geometry (in Angstrom), charge = 0, multiplicity = 1:

       Center              X                  Y                   Z               Mass
    ------------   -----------------  -----------------  -----------------  -----------------
         O            1.286394712987     1.576468290041    -0.009599470504    15.994914619570
         N           -1.438196287013     0.963892290041    -0.009592470504    14.003074004430
         N            1.788816712987    -0.680777709959    -0.009595470504    14.003074004430
         N           -1.003822287013    -1.222868709959    -0.009595470504    14.003074004430
         C           -0.476110287013     0.002983290041    -0.009590470504    12.000000000000
         C            0.950465812987     0.381854190041     0.090404529496    12.000000000000
         C           -2.654700287013     0.334904290041    -0.009596470504    12.000000000000
         C           -2.359806287013    -1.017431709959    -0.009598470504    12.000000000000
         C            3.229684712987    -0.534143709959    -0.009595470504    12.000000000000
         H           -1.229598287013     1.957074290041    -0.009586470504     1.007825032230
         H            1.354012712987    -1.597659709959    -0.009588470504     1.007825032230
         H           -3.589182287013     0.876665290041    -0.009596470504     1.007825032230
         H           -3.056002287013    -1.845567709959    -0.009602470504     1.007825032230
         H            3.445514712987     0.534192290041    -0.009602470504     1.007825032230
         H            3.669277712987    -0.991319709959    -0.900620470504     1.007825032230
         H            3.669273712987    -0.991306709959     0.881437529496     1.007825032230

  Basis Set: AUG-CC-PVTZ
    Blend: AUG-CC-PVTZ
  Basis Set: (AUG-CC-PVTZ AUX)
    Blend: AUG-CC-PVTZ-JKFIT
	 Reference Energy          =    -431.7921112068705725 [Eh]
	 Singles Energy            =      -0.0000000000000000 [Eh]
	 Same-Spin Energy          =      -0.4560121093242965 [Eh]
	 Opposite-Spin Energy      =      -1.3802883910397261 [Eh]
	 Correlation Energy        =      -1.8363005003640227 [Eh]
	 Total Energy              =    -433.6284117072345907 [Eh]

	 ================> DF-SCS-MP2 Energies <==================
	-----------------------------------------------------------
	 SCS Same-Spin Scale       =       0.3333333333333333 [-]
	 SCS Opposite-Spin Scale   =       1.2000000000000000 [-]
	 SCS Same-Spin Energy      =      -0.1520040364414321 [Eh]
	 SCS Opposite-Spin Energy  =      -1.6563460692476712 [Eh]
	 SCS Correlation Energy    =      -1.8083501056891034 [Eh]
	 SCS Total Energy          =    -433.6004613125596734 [Eh]
	-----------------------------------------------------------

  Dipole Moment: [D]
     X:    -0.9678      Y:    -0.3939      Z:     0.0950     Total:     1.0492

*** Psi4 exiting successfully. Buy a developer a beer!
