                               Psi4 1.3.2 release

  ==> Input File <==

--------------------------------------------------------------------------
#psi4
#
memory 32 gb

molecule  {
0 1
  O        1.2542850     1.5918540    -0.0000040
  N       -1.4703060     0.9792780     0.0000030
  N        1.7567070    -0.6653920     0.0000000
  N       -1.0359320    -1.2074830     0.0000000
  C       -0.5082200     0.0183690     0.0000050
  C        0.9183560     0.3972400     0.0000000
  C       -2.6868100     0.3502900    -0.0000010
  C       -2.3919160    -1.0020460    -0.0000030
  C        3.1975750    -0.5187580     0.0000000
  H       -1.2617080     1.9724600     0.0000090
  H        1.3219030    -1.5822740     0.0000070
  H       -3.6212919     0.8920511    -0.0500010
  H       -3.0881120    -1.8301820    -0.0000070
  H        3.4134050     0.5495780    -0.0000070
  H        3.6371680    -0.9759340    -0.8910250
  H        3.6371640    -0.9759210     0.8910330
units angstrom
no_reorient  #important for SAPT in psi4, default
symmetry c1  #important for SAPT in psi4, default
}

set PROPERTIES_ORIGIN ["COM"]
properties('MP2/aug-cc-pvtz', properties = ['dipole'])
--------------------------------------------------------------------------

    Molecular point group: c1
  Charge       = 0
  Multiplicity = 1
  Basis Set: AUG-CC-PVTZ
    Blend: AUG-CC-PVTZ
  Basis Set: (AUG-CC-PVTZ AUX)
    Blend: AUG-CC-PVTZ-JKFIT

    Orbital Energies [Eh]
    ---------------------

    Doubly Occupied:

       1A    -20.527719     2A    -15.635631     3A    -15.592567
       4A    -15.570983     5A    -11.366521     6A    -11.310455
       7A    -11.279764     8A    -11.262985     9A    -11.260724
      10A     -1.386889    11A     -1.347932    12A     -1.239930
      13A     -1.180278    14A     -1.038493    15A     -0.962063
      16A     -0.858617    17A     -0.824885    18A     -0.797323
      19A     -0.772731    20A     -0.668689    21A     -0.651001
      22A     -0.638897    23A     -0.613870    24A     -0.608065
      25A     -0.596293    26A     -0.586359    27A     -0.550551
      28A     -0.536672    29A     -0.464467    30A     -0.442452
      31A     -0.418093    32A     -0.395348    33A     -0.328764

  @DF-RHF Final Energy:  -431.79675239912029

   => Energetics <=

    Nuclear Repulsion Energy =            432.5848377289981386
    One-Electron Energy =               -1445.3311551226408938
    Two-Electron Energy =                 580.9495649945225750
    Total Energy =                       -431.7967523991202370
  Basis Set: (AUG-CC-PVTZ AUX)
    Blend: AUG-CC-PVTZ-RI
    Molecular point group: c1

    Geometry (in Angstrom), charge = 0, multiplicity = 1:

       Center              X                  Y                   Z               Mass
    ------------   -----------------  -----------------  -----------------  -----------------
         O            1.286394721777     1.576468279639     0.000398947306    15.994914619570
         N           -1.438196278223     0.963892279639     0.000405947306    14.003074004430
         N            1.788816721777    -0.680777720361     0.000402947306    14.003074004430
         N           -1.003822278223    -1.222868720361     0.000402947306    14.003074004430
         C           -0.476110278223     0.002983279639     0.000407947306    12.000000000000
         C            0.950465721777     0.381854279639     0.000402947306    12.000000000000
         C           -2.654700278223     0.334904279639     0.000401947306    12.000000000000
         C           -2.359806278223    -1.017431720361     0.000399947306    12.000000000000
         C            3.229684721777    -0.534143720361     0.000402947306    12.000000000000
         H           -1.229598278223     1.957074279639     0.000411947306     1.007825032230
         H            1.354012721777    -1.597659720361     0.000409947306     1.007825032230
         H           -3.589182178223     0.876665379639    -0.049598052694     1.007825032230
         H           -3.056002278223    -1.845567720361     0.000395947306     1.007825032230
         H            3.445514721777     0.534192279639     0.000395947306     1.007825032230
         H            3.669277721777    -0.991319720361    -0.890622052694     1.007825032230
         H            3.669273721777    -0.991306720361     0.891435947306     1.007825032230

  Basis Set: AUG-CC-PVTZ
    Blend: AUG-CC-PVTZ
  Basis Set: (AUG-CC-PVTZ AUX)
    Blend: AUG-CC-PVTZ-JKFIT
	 Reference Energy          =    -431.7967523991202938 [Eh]
	 Singles Energy            =      -0.0000000000000000 [Eh]
	 Same-Spin Energy          =      -0.4557246209283941 [Eh]
	 Opposite-Spin Energy      =      -1.3796392139398364 [Eh]
	 Correlation Energy        =      -1.8353638348682304 [Eh]
	 Total Energy              =    -433.6321162339885404 [Eh]

	 ================> DF-SCS-MP2 Energies <==================
	-----------------------------------------------------------
	 SCS Same-Spin Scale       =       0.3333333333333333 [-]
	 SCS Opposite-Spin Scale   =       1.2000000000000000 [-]
	 SCS Same-Spin Energy      =      -0.1519082069761313 [Eh]
	 SCS Opposite-Spin Energy  =      -1.6555670567278036 [Eh]
	 SCS Correlation Energy    =      -1.8074752637039349 [Eh]
	 SCS Total Energy          =    -433.6042276628242007 [Eh]
	-----------------------------------------------------------

  Dipole Moment: [D]
     X:    -0.9742      Y:    -0.4006      Z:    -0.0447     Total:     1.0543

*** Psi4 exiting successfully. Buy a developer a beer!
