                               Psi4 1.3.2 release

  ==> Input File <==

--------------------------------------------------------------------------
#psi4
#
memory 32 gb

molecule  {
0 1
  O        1.2542850     1.5918540    -0.0000040
  N       -1.4703060     0.9792780     0.0000030
  N        1.7567070    -0.6653920     0.0000000
  N       -1.0359320    -1.2074830     0.0000000
  C       -0.5082206     0.0183685    -0.1999950
  C        0.9183560     0.3972400     0.0000000
  C       -2.6868100     0.3502900    -0.0000010
  C       -2.3919160    -1.0020460    -0.0000030
  C        3.1975750    -0.5187580     0.0000000
  H       -1.2617080     1.9724600     0.0000090
  H        1.3219030    -1.5822740     0.0000070
  H       -3.6212920     0.8920510    -0.0000010
  H       -3.0881120    -1.8301820    -0.0000070
  H        3.4134050     0.5495780    -0.0000070
  H        3.6371680    -0.9759340    -0.8910250
  H        3.6371640    -0.9759210     0.8910330
units angstrom
no_reorient  #important for SAPT in psi4, default
symmetry c1  #important for SAPT in psi4, default
}

set PROPERTIES_ORIGIN ["COM"]
properties('MP2/aug-cc-pvtz', properties = ['dipole'])
--------------------------------------------------------------------------

    Molecular point group: c1
  Charge       = 0
  Multiplicity = 1
  Basis Set: AUG-CC-PVTZ
    Blend: AUG-CC-PVTZ
  Basis Set: (AUG-CC-PVTZ AUX)
    Blend: AUG-CC-PVTZ-JKFIT

    Orbital Energies [Eh]
    ---------------------

    Doubly Occupied:

       1A    -20.526571     2A    -15.636585     3A    -15.591231
       4A    -15.575018     5A    -11.366192     6A    -11.311828
       7A    -11.282380     8A    -11.262214     9A    -11.261791
      10A     -1.384734    11A     -1.344650    12A     -1.238458
      13A     -1.177485    14A     -1.036486    15A     -0.960793
      16A     -0.856857    17A     -0.822321    18A     -0.793606
      19A     -0.770765    20A     -0.668527    21A     -0.649985
      22A     -0.636865    23A     -0.614899    24A     -0.605069
      25A     -0.595607    26A     -0.583794    27A     -0.549779
      28A     -0.533951    29A     -0.465983    30A     -0.440804
      31A     -0.414580    32A     -0.394107    33A     -0.329413

  @DF-RHF Final Energy:  -431.78270461632434

   => Energetics <=

    Nuclear Repulsion Energy =            431.9442076297788162
    One-Electron Energy =               -1444.0871695303972047
    Two-Electron Energy =                 580.3602572842941072
    Total Energy =                       -431.7827046163242812
  Basis Set: (AUG-CC-PVTZ AUX)
    Blend: AUG-CC-PVTZ-RI
    Molecular point group: c1

    Geometry (in Angstrom), charge = 0, multiplicity = 1:

       Center              X                  Y                   Z               Mass
    ------------   -----------------  -----------------  -----------------  -----------------
         O            1.286394780155     1.576468328423     0.019186962598    15.994914619570
         N           -1.438196219845     0.963892328423     0.019193962598    14.003074004430
         N            1.788816780155    -0.680777671577     0.019190962598    14.003074004430
         N           -1.003822219845    -1.222868671577     0.019190962598    14.003074004430
         C           -0.476110819845     0.002982828423    -0.180804037402    12.000000000000
         C            0.950465780155     0.381854328423     0.019190962598    12.000000000000
         C           -2.654700219845     0.334904328423     0.019189962598    12.000000000000
         C           -2.359806219845    -1.017431671577     0.019187962598    12.000000000000
         C            3.229684780155    -0.534143671577     0.019190962598    12.000000000000
         H           -1.229598219845     1.957074328423     0.019199962598     1.007825032230
         H            1.354012780155    -1.597659671577     0.019197962598     1.007825032230
         H           -3.589182219845     0.876665328423     0.019189962598     1.007825032230
         H           -3.056002219845    -1.845567671577     0.019183962598     1.007825032230
         H            3.445514780155     0.534192328423     0.019183962598     1.007825032230
         H            3.669277780155    -0.991319671577    -0.871834037402     1.007825032230
         H            3.669273780155    -0.991306671577     0.910223962598     1.007825032230

  Basis Set: AUG-CC-PVTZ
    Blend: AUG-CC-PVTZ
  Basis Set: (AUG-CC-PVTZ AUX)
    Blend: AUG-CC-PVTZ-JKFIT
	 Reference Energy          =    -431.7827046163243381 [Eh]
	 Singles Energy            =      -0.0000000000000000 [Eh]
	 Same-Spin Energy          =      -0.4566711931325187 [Eh]
	 Opposite-Spin Energy      =      -1.3817075597942414 [Eh]
	 Correlation Energy        =      -1.8383787529267601 [Eh]
	 Total Energy              =    -433.6210833692510960 [Eh]

	 ================> DF-SCS-MP2 Energies <==================
	-----------------------------------------------------------
	 SCS Same-Spin Scale       =       0.3333333333333333 [-]
	 SCS Opposite-Spin Scale   =       1.2000000000000000 [-]
	 SCS Same-Spin Energy      =      -0.1522237310441729 [Eh]
	 SCS Opposite-Spin Energy  =      -1.6580490717530896 [Eh]
	 SCS Correlation Energy    =      -1.8102728027972625 [Eh]
	 SCS Total Energy          =    -433.5929774191216097 [Eh]
	-----------------------------------------------------------

  Dipole Moment: [D]
     X:    -1.0773      Y:    -0.4214      Z:    -0.0512     Total:     1.1579

*** Psi4 exiting successfully. Buy a developer a beer!
