                               Psi4 1.3.2 release

  ==> Input File <==

--------------------------------------------------------------------------
#psi4
#
memory 32 gb

molecule  {
0 1
  O        1.2542850     1.5918540    -0.0000040
  N       -1.4703060     0.9792780     0.0000030
  N        1.7567070    -0.6653920     0.0000000
  N       -1.0359320    -1.2074830     0.0000000
  C       -0.5082200     0.0183690     0.0000050
  C        0.9183560     0.3972400     0.0000000
  C       -2.6868100     0.3502900    -0.0000010
  C       -2.3919160    -1.0020460    -0.0000030
  C        3.1975750    -0.5187580     0.0000000
  H       -1.2617080     1.9724600     0.0000090
  H        1.3219030    -1.5822740     0.0000070
  H       -3.6212916     0.8920516    -0.2500010
  H       -3.0881120    -1.8301820    -0.0000070
  H        3.4134050     0.5495780    -0.0000070
  H        3.6371680    -0.9759340    -0.8910250
  H        3.6371640    -0.9759210     0.8910330
units angstrom
no_reorient  #important for SAPT in psi4, default
symmetry c1  #important for SAPT in psi4, default
}

set PROPERTIES_ORIGIN ["COM"]
properties('MP2/aug-cc-pvtz', properties = ['dipole'])
--------------------------------------------------------------------------

    Molecular point group: c1
  Charge       = 0
  Multiplicity = 1
  Basis Set: AUG-CC-PVTZ
    Blend: AUG-CC-PVTZ
  Basis Set: (AUG-CC-PVTZ AUX)
    Blend: AUG-CC-PVTZ-JKFIT

    Orbital Energies [Eh]
    ---------------------

    Doubly Occupied:

       1A    -20.528095     2A    -15.635559     3A    -15.592962
       4A    -15.571332     5A    -11.366895     6A    -11.311261
       7A    -11.281358     8A    -11.263240     9A    -11.261600
      10A     -1.387234    11A     -1.348200    12A     -1.240283
      13A     -1.180525    14A     -1.038263    15A     -0.961902
      16A     -0.858584    17A     -0.824772    18A     -0.795785
      19A     -0.771595    20A     -0.667297    21A     -0.650654
      22A     -0.639202    23A     -0.614196    24A     -0.607102
      25A     -0.592569    26A     -0.586570    27A     -0.550794
      28A     -0.536653    29A     -0.464572    30A     -0.442821
      31A     -0.418276    32A     -0.395636    33A     -0.328994

  @DF-RHF Final Energy:  -431.79326088057024

   => Energetics <=

    Nuclear Repulsion Energy =            432.4824413266912870
    One-Electron Energy =               -1445.1218392525242962
    Two-Electron Energy =                 580.8461370452628216
    Total Energy =                       -431.7932608805701875
  Basis Set: (AUG-CC-PVTZ AUX)
    Blend: AUG-CC-PVTZ-RI
    Molecular point group: c1

    Geometry (in Angstrom), charge = 0, multiplicity = 1:

       Center              X                  Y                   Z               Mass
    ------------   -----------------  -----------------  -----------------  -----------------
         O            1.286394719359     1.576468275610     0.002010707743    15.994914619570
         N           -1.438196280641     0.963892275610     0.002017707743    14.003074004430
         N            1.788816719359    -0.680777724390     0.002014707743    14.003074004430
         N           -1.003822280641    -1.222868724390     0.002014707743    14.003074004430
         C           -0.476110280641     0.002983275610     0.002019707743    12.000000000000
         C            0.950465719359     0.381854275610     0.002014707743    12.000000000000
         C           -2.654700280641     0.334904275610     0.002013707743    12.000000000000
         C           -2.359806280641    -1.017431724390     0.002011707743    12.000000000000
         C            3.229684719359    -0.534143724390     0.002014707743    12.000000000000
         H           -1.229598280641     1.957074275610     0.002023707743     1.007825032230
         H            1.354012719359    -1.597659724390     0.002021707743     1.007825032230
         H           -3.589181880641     0.876665875610    -0.247986292257     1.007825032230
         H           -3.056002280641    -1.845567724390     0.002007707743     1.007825032230
         H            3.445514719359     0.534192275610     0.002007707743     1.007825032230
         H            3.669277719359    -0.991319724390    -0.889010292257     1.007825032230
         H            3.669273719359    -0.991306724390     0.893047707743     1.007825032230

  Basis Set: AUG-CC-PVTZ
    Blend: AUG-CC-PVTZ
  Basis Set: (AUG-CC-PVTZ AUX)
    Blend: AUG-CC-PVTZ-JKFIT
	 Reference Energy          =    -431.7932608805702444 [Eh]
	 Singles Energy            =      -0.0000000000000000 [Eh]
	 Same-Spin Energy          =      -0.4559223243635345 [Eh]
	 Opposite-Spin Energy      =      -1.3800957336799287 [Eh]
	 Correlation Energy        =      -1.8360180580434631 [Eh]
	 Total Energy              =    -433.6292789386137088 [Eh]

	 ================> DF-SCS-MP2 Energies <==================
	-----------------------------------------------------------
	 SCS Same-Spin Scale       =       0.3333333333333333 [-]
	 SCS Opposite-Spin Scale   =       1.2000000000000000 [-]
	 SCS Same-Spin Energy      =      -0.1519741081211781 [Eh]
	 SCS Opposite-Spin Energy  =      -1.6561148804159143 [Eh]
	 SCS Correlation Energy    =      -1.8080889885370923 [Eh]
	 SCS Total Energy          =    -433.6013498691073096 [Eh]
	-----------------------------------------------------------

  Dipole Moment: [D]
     X:    -0.9195      Y:    -0.4329      Z:    -0.2197     Total:     1.0398

*** Psi4 exiting successfully. Buy a developer a beer!
