                               Psi4 1.3.2 release

  ==> Input File <==

--------------------------------------------------------------------------
#psi4
#
memory 32 gb

molecule  {
0 1
  O        1.2542850     1.5918540    -0.0000040
  N       -1.4703060     0.9792780     0.0000030
  N        1.7567070    -0.6653920     0.0000000
  N       -1.0359320    -1.2074830     0.0000000
  C       -0.5082200     0.0183690     0.0000050
  C        0.9183561     0.3972398     0.1500000
  C       -2.6868100     0.3502900    -0.0000010
  C       -2.3919160    -1.0020460    -0.0000030
  C        3.1975750    -0.5187580     0.0000000
  H       -1.2617080     1.9724600     0.0000090
  H        1.3219030    -1.5822740     0.0000070
  H       -3.6212920     0.8920510    -0.0000010
  H       -3.0881120    -1.8301820    -0.0000070
  H        3.4134050     0.5495780    -0.0000070
  H        3.6371680    -0.9759340    -0.8910250
  H        3.6371640    -0.9759210     0.8910330
units angstrom
no_reorient  #important for SAPT in psi4, default
symmetry c1  #important for SAPT in psi4, default
}

set PROPERTIES_ORIGIN ["COM"]
properties('MP2/aug-cc-pvtz', properties = ['dipole'])
--------------------------------------------------------------------------

    Molecular point group: c1
  Charge       = 0
  Multiplicity = 1
  Basis Set: AUG-CC-PVTZ
    Blend: AUG-CC-PVTZ
  Basis Set: (AUG-CC-PVTZ AUX)
    Blend: AUG-CC-PVTZ-JKFIT

    Orbital Energies [Eh]
    ---------------------

    Doubly Occupied:

       1A    -20.529374     2A    -15.635295     3A    -15.593374
       4A    -15.570583     5A    -11.369692     6A    -11.311582
       7A    -11.279533     8A    -11.262747     9A    -11.260606
      10A     -1.383589    11A     -1.346844    12A     -1.237212
      13A     -1.180020    14A     -1.037371    15A     -0.961021
      16A     -0.857574    17A     -0.824594    18A     -0.797149
      19A     -0.770563    20A     -0.668548    21A     -0.649412
      22A     -0.637409    23A     -0.613569    24A     -0.608530
      25A     -0.595775    26A     -0.584100    27A     -0.550035
      28A     -0.534652    29A     -0.464173    30A     -0.441722
      31A     -0.417719    32A     -0.394041    33A     -0.328153

  @DF-RHF Final Energy:  -431.78613304343736

   => Energetics <=

    Nuclear Repulsion Energy =            432.2085940958488663
    One-Electron Energy =               -1444.5963282733421238
    Two-Electron Energy =                 580.6016011340558407
    Total Energy =                       -431.7861330434374167
  Basis Set: (AUG-CC-PVTZ AUX)
    Blend: AUG-CC-PVTZ-RI
    Molecular point group: c1

    Geometry (in Angstrom), charge = 0, multiplicity = 1:

       Center              X                  Y                   Z               Mass
    ------------   -----------------  -----------------  -----------------  -----------------
         O            1.286394712987     1.576468299636    -0.014397209354    15.994914619570
         N           -1.438196287013     0.963892299636    -0.014390209354    14.003074004430
         N            1.788816712987    -0.680777700364    -0.014393209354    14.003074004430
         N           -1.003822287013    -1.222868700364    -0.014393209354    14.003074004430
         C           -0.476110287013     0.002983299636    -0.014388209354    12.000000000000
         C            0.950465812987     0.381854099636     0.135606790646    12.000000000000
         C           -2.654700287013     0.334904299636    -0.014394209354    12.000000000000
         C           -2.359806287013    -1.017431700364    -0.014396209354    12.000000000000
         C            3.229684712987    -0.534143700364    -0.014393209354    12.000000000000
         H           -1.229598287013     1.957074299636    -0.014384209354     1.007825032230
         H            1.354012712987    -1.597659700364    -0.014386209354     1.007825032230
         H           -3.589182287013     0.876665299636    -0.014394209354     1.007825032230
         H           -3.056002287013    -1.845567700364    -0.014400209354     1.007825032230
         H            3.445514712987     0.534192299636    -0.014400209354     1.007825032230
         H            3.669277712987    -0.991319700364    -0.905418209354     1.007825032230
         H            3.669273712987    -0.991306700364     0.876639790646     1.007825032230

  Basis Set: AUG-CC-PVTZ
    Blend: AUG-CC-PVTZ
  Basis Set: (AUG-CC-PVTZ AUX)
    Blend: AUG-CC-PVTZ-JKFIT
	 Reference Energy          =    -431.7861330434373599 [Eh]
	 Singles Energy            =      -0.0000000000000000 [Eh]
	 Same-Spin Energy          =      -0.4563794775530675 [Eh]
	 Opposite-Spin Energy      =      -1.3812059459610289 [Eh]
	 Correlation Energy        =      -1.8375854235140965 [Eh]
	 Total Energy              =    -433.6237184669514590 [Eh]

	 ================> DF-SCS-MP2 Energies <==================
	-----------------------------------------------------------
	 SCS Same-Spin Scale       =       0.3333333333333333 [-]
	 SCS Opposite-Spin Scale   =       1.2000000000000000 [-]
	 SCS Same-Spin Energy      =      -0.1521264925176892 [Eh]
	 SCS Opposite-Spin Energy  =      -1.6574471351532345 [Eh]
	 SCS Correlation Energy    =      -1.8095736276709236 [Eh]
	 SCS Total Energy          =    -433.5957066711083030 [Eh]
	-----------------------------------------------------------

  Dipole Moment: [D]
     X:    -0.9567      Y:    -0.3872      Z:     0.1402     Total:     1.0415

*** Psi4 exiting successfully. Buy a developer a beer!
