                               Psi4 1.3.2 release

  ==> Input File <==

--------------------------------------------------------------------------
#psi4
#
memory 32 gb

molecule  {
0 1
  O        1.2542850     1.5918540    -0.0000040
  N       -1.4703060     0.9792780     0.0000030
  N        1.7567070    -0.6653920     0.0000000
  N       -1.0359320    -1.2074830     0.0000000
  C       -0.5082200     0.0183690     0.0000050
  C        0.9183560     0.3972400     0.0000000
  C       -2.6868100     0.3502900    -0.0000010
  C       -2.3919160    -1.0020460    -0.0000030
  C        3.1975750    -0.5187580     0.0000000
  H       -1.2617080     1.9724600     0.0000090
  H        1.3219030    -1.5822740     0.0000070
  H       -3.6212920     0.8920510    -0.0000010
  H       -3.0881123    -1.8301822     0.0999930
  H        3.4134050     0.5495780    -0.0000070
  H        3.6371680    -0.9759340    -0.8910250
  H        3.6371640    -0.9759210     0.8910330
units angstrom
no_reorient  #important for SAPT in psi4, default
symmetry c1  #important for SAPT in psi4, default
}

set PROPERTIES_ORIGIN ["COM"]
properties('MP2/aug-cc-pvtz', properties = ['dipole'])
--------------------------------------------------------------------------

    Molecular point group: c1
  Charge       = 0
  Multiplicity = 1
  Basis Set: AUG-CC-PVTZ
    Blend: AUG-CC-PVTZ
  Basis Set: (AUG-CC-PVTZ AUX)
    Blend: AUG-CC-PVTZ-JKFIT

    Orbital Energies [Eh]
    ---------------------

    Doubly Occupied:

       1A    -20.527746     2A    -15.635719     3A    -15.592581
       4A    -15.571009     5A    -11.366543     6A    -11.310486
       7A    -11.279833     8A    -11.262997     9A    -11.261049
      10A     -1.386922    11A     -1.347992    12A     -1.239948
      13A     -1.180310    14A     -1.038489    15A     -0.962081
      16A     -0.858664    17A     -0.824311    18A     -0.797464
      19A     -0.772793    20A     -0.668785    21A     -0.651028
      22A     -0.638988    23A     -0.613795    24A     -0.608289
      25A     -0.595593    26A     -0.585986    27A     -0.550562
      28A     -0.536674    29A     -0.464476    30A     -0.442478
      31A     -0.418047    32A     -0.395350    33A     -0.328764

  @DF-RHF Final Energy:  -431.79628386010444

   => Energetics <=

    Nuclear Repulsion Energy =            432.5716963850677530
    One-Electron Energy =               -1445.3044570274714715
    Two-Electron Energy =                 580.9364767822992235
    Total Energy =                       -431.7962838601044950
  Basis Set: (AUG-CC-PVTZ AUX)
    Blend: AUG-CC-PVTZ-RI
    Molecular point group: c1

    Geometry (in Angstrom), charge = 0, multiplicity = 1:

       Center              X                  Y                   Z               Mass
    ------------   -----------------  -----------------  -----------------  -----------------
         O            1.286394725000     1.576468282057    -0.000809873022    15.994914619570
         N           -1.438196275000     0.963892282057    -0.000802873022    14.003074004430
         N            1.788816725000    -0.680777717943    -0.000805873022    14.003074004430
         N           -1.003822275000    -1.222868717943    -0.000805873022    14.003074004430
         C           -0.476110275000     0.002983282057    -0.000800873022    12.000000000000
         C            0.950465725000     0.381854282057    -0.000805873022    12.000000000000
         C           -2.654700275000     0.334904282057    -0.000806873022    12.000000000000
         C           -2.359806275000    -1.017431717943    -0.000808873022    12.000000000000
         C            3.229684725000    -0.534143717943    -0.000805873022    12.000000000000
         H           -1.229598275000     1.957074282057    -0.000796873022     1.007825032230
         H            1.354012725000    -1.597659717943    -0.000798873022     1.007825032230
         H           -3.589182275000     0.876665282057    -0.000806873022     1.007825032230
         H           -3.056002575000    -1.845567917943     0.099187126978     1.007825032230
         H            3.445514725000     0.534192282057    -0.000812873022     1.007825032230
         H            3.669277725000    -0.991319717943    -0.891830873022     1.007825032230
         H            3.669273725000    -0.991306717943     0.890227126978     1.007825032230

  Basis Set: AUG-CC-PVTZ
    Blend: AUG-CC-PVTZ
  Basis Set: (AUG-CC-PVTZ AUX)
    Blend: AUG-CC-PVTZ-JKFIT
	 Reference Energy          =    -431.7962838601044382 [Eh]
	 Singles Energy            =      -0.0000000000000000 [Eh]
	 Same-Spin Energy          =      -0.4557474341066952 [Eh]
	 Opposite-Spin Energy      =      -1.3796849061166399 [Eh]
	 Correlation Energy        =      -1.8354323402233350 [Eh]
	 Total Energy              =    -433.6317162003277872 [Eh]

	 ================> DF-SCS-MP2 Energies <==================
	-----------------------------------------------------------
	 SCS Same-Spin Scale       =       0.3333333333333333 [-]
	 SCS Opposite-Spin Scale   =       1.2000000000000000 [-]
	 SCS Same-Spin Energy      =      -0.1519158113688984 [Eh]
	 SCS Opposite-Spin Energy  =      -1.6556218873399677 [Eh]
	 SCS Correlation Energy    =      -1.8075376987088660 [Eh]
	 SCS Total Energy          =    -433.6038215588133085 [Eh]
	-----------------------------------------------------------

  Dipole Moment: [D]
     X:    -0.9694      Y:    -0.3926      Z:     0.0724     Total:     1.0484

*** Psi4 exiting successfully. Buy a developer a beer!
