                               Psi4 1.3.2 release

  ==> Input File <==

--------------------------------------------------------------------------
#psi4
#
memory 32 gb

molecule  {
0 1
  O        1.2542850     1.5918540    -0.0000040
  N       -1.4703060     0.9792780     0.0000030
  N        1.7567070    -0.6653920     0.0000000
  N       -1.0359320    -1.2074830     0.0000000
  C       -0.5082200     0.0183690     0.0000050
  C        0.9183560     0.3972400     0.0000000
  C       -2.6868100     0.3502900    -0.0000010
  C       -2.3919160    -1.0020460    -0.0000030
  C        3.1975750    -0.5187580     0.0000000
  H       -1.2617080     1.9724600     0.0000090
  H        1.3219030    -1.5822740     0.0000070
  H       -3.6212915     0.8920517    -0.3000010
  H       -3.0881120    -1.8301820    -0.0000070
  H        3.4134050     0.5495780    -0.0000070
  H        3.6371680    -0.9759340    -0.8910250
  H        3.6371640    -0.9759210     0.8910330
units angstrom
no_reorient  #important for SAPT in psi4, default
symmetry c1  #important for SAPT in psi4, default
}

set PROPERTIES_ORIGIN ["COM"]
properties('MP2/aug-cc-pvtz', properties = ['dipole'])
--------------------------------------------------------------------------

    Molecular point group: c1
  Charge       = 0
  Multiplicity = 1
  Basis Set: AUG-CC-PVTZ
    Blend: AUG-CC-PVTZ
  Basis Set: (AUG-CC-PVTZ AUX)
    Blend: AUG-CC-PVTZ-JKFIT

    Orbital Energies [Eh]
    ---------------------

    Doubly Occupied:

       1A    -20.528263     2A    -15.635538     3A    -15.593138
       4A    -15.571490     5A    -11.367063     6A    -11.311620
       7A    -11.282073     8A    -11.263354     9A    -11.261992
      10A     -1.387390    11A     -1.348323    12A     -1.240442
      13A     -1.180640    14A     -1.038179    15A     -0.961844
      16A     -0.858587    17A     -0.824756    18A     -0.795206
      19A     -0.771071    20A     -0.666774    21A     -0.650479
      22A     -0.639339    23A     -0.614269    24A     -0.606915
      25A     -0.590817    26A     -0.586485    27A     -0.550900
      28A     -0.536633    29A     -0.464613    30A     -0.442986
      31A     -0.418361    32A     -0.395765    33A     -0.329102

  @DF-RHF Final Energy:  -431.79145087454037

   => Energetics <=

    Nuclear Repulsion Energy =            432.4374043822873546
    One-Electron Energy =               -1445.0288973645067472
    Two-Electron Energy =                 580.8000421076790190
    Total Energy =                       -431.7914508745403737
  Basis Set: (AUG-CC-PVTZ AUX)
    Blend: AUG-CC-PVTZ-RI
    Molecular point group: c1

    Geometry (in Angstrom), charge = 0, multiplicity = 1:

       Center              X                  Y                   Z               Mass
    ------------   -----------------  -----------------  -----------------  -----------------
         O            1.286394718553     1.576468274804     0.002413647852    15.994914619570
         N           -1.438196281447     0.963892274804     0.002420647852    14.003074004430
         N            1.788816718553    -0.680777725196     0.002417647852    14.003074004430
         N           -1.003822281447    -1.222868725196     0.002417647852    14.003074004430
         C           -0.476110281447     0.002983274804     0.002422647852    12.000000000000
         C            0.950465718553     0.381854274804     0.002417647852    12.000000000000
         C           -2.654700281447     0.334904274804     0.002416647852    12.000000000000
         C           -2.359806281447    -1.017431725196     0.002414647852    12.000000000000
         C            3.229684718553    -0.534143725196     0.002417647852    12.000000000000
         H           -1.229598281447     1.957074274804     0.002426647852     1.007825032230
         H            1.354012718553    -1.597659725196     0.002424647852     1.007825032230
         H           -3.589181781447     0.876665974804    -0.297583352148     1.007825032230
         H           -3.056002281447    -1.845567725196     0.002410647852     1.007825032230
         H            3.445514718553     0.534192274804     0.002410647852     1.007825032230
         H            3.669277718553    -0.991319725196    -0.888607352148     1.007825032230
         H            3.669273718553    -0.991306725196     0.893450647852     1.007825032230

  Basis Set: AUG-CC-PVTZ
    Blend: AUG-CC-PVTZ
  Basis Set: (AUG-CC-PVTZ AUX)
    Blend: AUG-CC-PVTZ-JKFIT
	 Reference Energy          =    -431.7914508745403737 [Eh]
	 Singles Energy            =      -0.0000000000000000 [Eh]
	 Same-Spin Energy          =      -0.4560106387835741 [Eh]
	 Opposite-Spin Energy      =      -1.3803275402809914 [Eh]
	 Correlation Energy        =      -1.8363381790645654 [Eh]
	 Total Energy              =    -433.6277890536049426 [Eh]

	 ================> DF-SCS-MP2 Energies <==================
	-----------------------------------------------------------
	 SCS Same-Spin Scale       =       0.3333333333333333 [-]
	 SCS Opposite-Spin Scale   =       1.2000000000000000 [-]
	 SCS Same-Spin Energy      =      -0.1520035462611913 [Eh]
	 SCS Opposite-Spin Energy  =      -1.6563930483371896 [Eh]
	 SCS Correlation Energy    =      -1.8083965945983809 [Eh]
	 SCS Total Energy          =    -433.5998474691387514 [Eh]
	-----------------------------------------------------------

  Dipole Moment: [D]
     X:    -0.8952      Y:    -0.4470      Z:    -0.2617     Total:     1.0343

*** Psi4 exiting successfully. Buy a developer a beer!
