                               Psi4 1.3.2 release

  ==> Input File <==

--------------------------------------------------------------------------
#psi4
#
memory 32 gb

molecule  {
0 1
  O        1.2542850     1.5918540    -0.0000040
  N       -1.4703060     0.9792780     0.0000030
  N        1.7567070    -0.6653920     0.0000000
  N       -1.0359320    -1.2074830     0.0000000
  C       -0.5082201     0.0183689    -0.0499950
  C        0.9183560     0.3972400     0.0000000
  C       -2.6868100     0.3502900    -0.0000010
  C       -2.3919160    -1.0020460    -0.0000030
  C        3.1975750    -0.5187580     0.0000000
  H       -1.2617080     1.9724600     0.0000090
  H        1.3219030    -1.5822740     0.0000070
  H       -3.6212920     0.8920510    -0.0000010
  H       -3.0881120    -1.8301820    -0.0000070
  H        3.4134050     0.5495780    -0.0000070
  H        3.6371680    -0.9759340    -0.8910250
  H        3.6371640    -0.9759210     0.8910330
units angstrom
no_reorient  #important for SAPT in psi4, default
symmetry c1  #important for SAPT in psi4, default
}

set PROPERTIES_ORIGIN ["COM"]
properties('MP2/aug-cc-pvtz', properties = ['dipole'])
--------------------------------------------------------------------------

    Molecular point group: c1
  Charge       = 0
  Multiplicity = 1
  Basis Set: AUG-CC-PVTZ
    Blend: AUG-CC-PVTZ
  Basis Set: (AUG-CC-PVTZ AUX)
    Blend: AUG-CC-PVTZ-JKFIT

    Orbital Energies [Eh]
    ---------------------

    Doubly Occupied:

       1A    -20.527631     2A    -15.635697     3A    -15.592466
       4A    -15.571225     5A    -11.366490     6A    -11.310516
       7A    -11.279858     8A    -11.262927     9A    -11.260752
      10A     -1.386737    11A     -1.347713    12A     -1.239822
      13A     -1.180086    14A     -1.038375    15A     -0.961988
      16A     -0.858502    17A     -0.824730    18A     -0.797145
      19A     -0.772653    20A     -0.668742    21A     -0.650951
      22A     -0.638750    23A     -0.613945    24A     -0.607906
      25A     -0.596381    26A     -0.586186    27A     -0.550493
      28A     -0.536500    29A     -0.464560    30A     -0.442343
      31A     -0.417849    32A     -0.395260    33A     -0.328792

  @DF-RHF Final Energy:  -431.79599339435708

   => Energetics <=

    Nuclear Repulsion Energy =            432.5484303860994828
    One-Electron Energy =               -1445.2609046161653623
    Two-Electron Energy =                 580.9164808357088532
    Total Energy =                       -431.7959933943570832
  Basis Set: (AUG-CC-PVTZ AUX)
    Blend: AUG-CC-PVTZ-RI
    Molecular point group: c1

    Geometry (in Angstrom), charge = 0, multiplicity = 1:

       Center              X                  Y                   Z               Mass
    ------------   -----------------  -----------------  -----------------  -----------------
         O            1.286394732178     1.576468290041     0.004793746047    15.994914619570
         N           -1.438196267822     0.963892290041     0.004800746047    14.003074004430
         N            1.788816732178    -0.680777709959     0.004797746047    14.003074004430
         N           -1.003822267822    -1.222868709959     0.004797746047    14.003074004430
         C           -0.476110367822     0.002983190041    -0.045197253953    12.000000000000
         C            0.950465732178     0.381854290041     0.004797746047    12.000000000000
         C           -2.654700267822     0.334904290041     0.004796746047    12.000000000000
         C           -2.359806267822    -1.017431709959     0.004794746047    12.000000000000
         C            3.229684732178    -0.534143709959     0.004797746047    12.000000000000
         H           -1.229598267822     1.957074290041     0.004806746047     1.007825032230
         H            1.354012732178    -1.597659709959     0.004804746047     1.007825032230
         H           -3.589182267822     0.876665290041     0.004796746047     1.007825032230
         H           -3.056002267822    -1.845567709959     0.004790746047     1.007825032230
         H            3.445514732178     0.534192290041     0.004790746047     1.007825032230
         H            3.669277732178    -0.991319709959    -0.886227253953     1.007825032230
         H            3.669273732178    -0.991306709959     0.895830746047     1.007825032230

  Basis Set: AUG-CC-PVTZ
    Blend: AUG-CC-PVTZ
  Basis Set: (AUG-CC-PVTZ AUX)
    Blend: AUG-CC-PVTZ-JKFIT
	 Reference Energy          =    -431.7959933943570832 [Eh]
	 Singles Energy            =      -0.0000000000000000 [Eh]
	 Same-Spin Energy          =      -0.4557770953167256 [Eh]
	 Opposite-Spin Energy      =      -1.3797289681126310 [Eh]
	 Correlation Energy        =      -1.8355060634293565 [Eh]
	 Total Energy              =    -433.6314994577864468 [Eh]

	 ================> DF-SCS-MP2 Energies <==================
	-----------------------------------------------------------
	 SCS Same-Spin Scale       =       0.3333333333333333 [-]
	 SCS Opposite-Spin Scale   =       1.2000000000000000 [-]
	 SCS Same-Spin Energy      =      -0.1519256984389085 [Eh]
	 SCS Opposite-Spin Energy  =      -1.6556747617351573 [Eh]
	 SCS Correlation Energy    =      -1.8076004601740658 [Eh]
	 SCS Total Energy          =    -433.6035938545311410 [Eh]
	-----------------------------------------------------------

  Dipole Moment: [D]
     X:    -0.9830      Y:    -0.4006      Z:    -0.0153     Total:     1.0616

*** Psi4 exiting successfully. Buy a developer a beer!
