                               Psi4 1.3.2 release

  ==> Input File <==

--------------------------------------------------------------------------
#psi4
#
memory 32 gb

molecule  {
0 1
  O        1.2542850     1.5918540    -0.0000040
  N       -1.4703060     0.9792780     0.0000030
  N        1.7567070    -0.6653920     0.0000000
  N       -1.0359320    -1.2074830     0.0000000
  C       -0.5082200     0.0183690     0.0000050
  C        0.9183562     0.3972397     0.2500000
  C       -2.6868100     0.3502900    -0.0000010
  C       -2.3919160    -1.0020460    -0.0000030
  C        3.1975750    -0.5187580     0.0000000
  H       -1.2617080     1.9724600     0.0000090
  H        1.3219030    -1.5822740     0.0000070
  H       -3.6212920     0.8920510    -0.0000010
  H       -3.0881120    -1.8301820    -0.0000070
  H        3.4134050     0.5495780    -0.0000070
  H        3.6371680    -0.9759340    -0.8910250
  H        3.6371640    -0.9759210     0.8910330
units angstrom
no_reorient  #important for SAPT in psi4, default
symmetry c1  #important for SAPT in psi4, default
}

set PROPERTIES_ORIGIN ["COM"]
properties('MP2/aug-cc-pvtz', properties = ['dipole'])
--------------------------------------------------------------------------

    Molecular point group: c1
  Charge       = 0
  Multiplicity = 1
  Basis Set: AUG-CC-PVTZ
    Blend: AUG-CC-PVTZ
  Basis Set: (AUG-CC-PVTZ AUX)
    Blend: AUG-CC-PVTZ-JKFIT

    Orbital Energies [Eh]
    ---------------------

    Doubly Occupied:

       1A    -20.532364     2A    -15.634713     3A    -15.594786
       4A    -15.569924     5A    -11.374998     6A    -11.313585
       7A    -11.279250     8A    -11.262361     9A    -11.260464
      10A     -1.378263    11A     -1.344644    12A     -1.232660
      13A     -1.179583    14A     -1.035444    15A     -0.959177
      16A     -0.855844    17A     -0.824082    18A     -0.796728
      19A     -0.766705    20A     -0.668170    21A     -0.646641
      22A     -0.634959    23A     -0.613107    24A     -0.608900
      25A     -0.594787    26A     -0.580173    27A     -0.549090
      28A     -0.531256    29A     -0.463691    30A     -0.440603
      31A     -0.417134    32A     -0.391820    33A     -0.327129

  @DF-RHF Final Energy:  -431.76692753103555

   => Energetics <=

    Nuclear Repulsion Energy =            431.5473512979900761
    One-Electron Energy =               -1443.3024894348463931
    Two-Electron Energy =                 579.9882106058207683
    Total Energy =                       -431.7669275310355488
  Basis Set: (AUG-CC-PVTZ AUX)
    Blend: AUG-CC-PVTZ-RI
    Molecular point group: c1

    Geometry (in Angstrom), charge = 0, multiplicity = 1:

       Center              X                  Y                   Z               Mass
    ------------   -----------------  -----------------  -----------------  -----------------
         O            1.286394703392     1.576468309232    -0.023992687055    15.994914619570
         N           -1.438196296608     0.963892309232    -0.023985687055    14.003074004430
         N            1.788816703392    -0.680777690768    -0.023988687055    14.003074004430
         N           -1.003822296608    -1.222868690768    -0.023988687055    14.003074004430
         C           -0.476110296608     0.002983309232    -0.023983687055    12.000000000000
         C            0.950465903392     0.381854009232     0.226011312945    12.000000000000
         C           -2.654700296608     0.334904309232    -0.023989687055    12.000000000000
         C           -2.359806296608    -1.017431690768    -0.023991687055    12.000000000000
         C            3.229684703392    -0.534143690768    -0.023988687055    12.000000000000
         H           -1.229598296608     1.957074309232    -0.023979687055     1.007825032230
         H            1.354012703392    -1.597659690768    -0.023981687055     1.007825032230
         H           -3.589182296608     0.876665309232    -0.023989687055     1.007825032230
         H           -3.056002296608    -1.845567690768    -0.023995687055     1.007825032230
         H            3.445514703392     0.534192309232    -0.023995687055     1.007825032230
         H            3.669277703392    -0.991319690768    -0.915013687055     1.007825032230
         H            3.669273703392    -0.991306690768     0.867044312945     1.007825032230

  Basis Set: AUG-CC-PVTZ
    Blend: AUG-CC-PVTZ
  Basis Set: (AUG-CC-PVTZ AUX)
    Blend: AUG-CC-PVTZ-JKFIT
	 Reference Energy          =    -431.7669275310355488 [Eh]
	 Singles Energy            =      -0.0000000000000000 [Eh]
	 Same-Spin Energy          =      -0.4575488299551014 [Eh]
	 Opposite-Spin Energy      =      -1.3843309632413443 [Eh]
	 Correlation Energy        =      -1.8418797931964457 [Eh]
	 Total Energy              =    -433.6088073242319751 [Eh]

	 ================> DF-SCS-MP2 Energies <==================
	-----------------------------------------------------------
	 SCS Same-Spin Scale       =       0.3333333333333333 [-]
	 SCS Opposite-Spin Scale   =       1.2000000000000000 [-]
	 SCS Same-Spin Energy      =      -0.1525162766517004 [Eh]
	 SCS Opposite-Spin Energy  =      -1.6611971558896130 [Eh]
	 SCS Correlation Energy    =      -1.8137134325413136 [Eh]
	 SCS Total Energy          =    -433.5806409635768546 [Eh]
	-----------------------------------------------------------

  Dipole Moment: [D]
     X:    -0.9202      Y:    -0.3655      Z:     0.2211     Total:     1.0145

*** Psi4 exiting successfully. Buy a developer a beer!
