                               Psi4 1.3.2 release

  ==> Input File <==

--------------------------------------------------------------------------
#psi4
#
memory 32 gb

molecule  {
0 1
  O        1.2542850     1.5918540    -0.0000040
  N       -1.4703060     0.9792780     0.0000030
  N        1.7567070    -0.6653920     0.0000000
  N       -1.0359320    -1.2074830     0.0000000
  C       -0.5082200     0.0183690     0.0000050
  C        0.9183560     0.3972400     0.0000000
  C       -2.6868100     0.3502900    -0.0000010
  C       -2.3919160    -1.0020460    -0.0000030
  C        3.1975750    -0.5187580     0.0000000
  H       -1.2617080     1.9724600     0.0000090
  H        1.3219030    -1.5822740     0.0000070
  H       -3.6212920     0.8920510    -0.0000010
  H       -3.0881128    -1.8301827     0.2999930
  H        3.4134050     0.5495780    -0.0000070
  H        3.6371680    -0.9759340    -0.8910250
  H        3.6371640    -0.9759210     0.8910330
units angstrom
no_reorient  #important for SAPT in psi4, default
symmetry c1  #important for SAPT in psi4, default
}

set PROPERTIES_ORIGIN ["COM"]
properties('MP2/aug-cc-pvtz', properties = ['dipole'])
--------------------------------------------------------------------------

    Molecular point group: c1
  Charge       = 0
  Multiplicity = 1
  Basis Set: AUG-CC-PVTZ
    Blend: AUG-CC-PVTZ
  Basis Set: (AUG-CC-PVTZ AUX)
    Blend: AUG-CC-PVTZ-JKFIT

    Orbital Energies [Eh]
    ---------------------

    Doubly Occupied:

       1A    -20.528092     2A    -15.636382     3A    -15.592829
       4A    -15.571350     5A    -11.366851     6A    -11.311008
       7A    -11.280908     8A    -11.263864     9A    -11.263173
      10A     -1.387304    11A     -1.348548    12A     -1.240209
      13A     -1.180649    14A     -1.038413    15A     -0.962181
      16A     -0.859025    17A     -0.820105    18A     -0.798006
      19A     -0.772918    20A     -0.669052    21A     -0.651153
      22A     -0.639681    23A     -0.613535    24A     -0.609197
      25A     -0.591950    26A     -0.580621    27A     -0.550720
      28A     -0.536659    29A     -0.464542    30A     -0.442807
      31A     -0.417764    32A     -0.395466    33A     -0.328849

  @DF-RHF Final Energy:  -431.79085194253116

   => Energetics <=

    Nuclear Repulsion Energy =            432.4372388927693009
    One-Electron Energy =               -1445.0285588506994827
    Two-Electron Energy =                 580.8004680153990194
    Total Energy =                       -431.7908519425311624
  Basis Set: (AUG-CC-PVTZ AUX)
    Blend: AUG-CC-PVTZ-RI
    Molecular point group: c1

    Geometry (in Angstrom), charge = 0, multiplicity = 1:

       Center              X                  Y                   Z               Mass
    ------------   -----------------  -----------------  -----------------  -----------------
         O            1.286394729030     1.576468286086    -0.002421633459    15.994914619570
         N           -1.438196270970     0.963892286086    -0.002414633459    14.003074004430
         N            1.788816729030    -0.680777713914    -0.002417633459    14.003074004430
         N           -1.003822270970    -1.222868713914    -0.002417633459    14.003074004430
         C           -0.476110270970     0.002983286086    -0.002412633459    12.000000000000
         C            0.950465729030     0.381854286086    -0.002417633459    12.000000000000
         C           -2.654700270970     0.334904286086    -0.002418633459    12.000000000000
         C           -2.359806270970    -1.017431713914    -0.002420633459    12.000000000000
         C            3.229684729030    -0.534143713914    -0.002417633459    12.000000000000
         H           -1.229598270970     1.957074286086    -0.002408633459     1.007825032230
         H            1.354012729030    -1.597659713914    -0.002410633459     1.007825032230
         H           -3.589182270970     0.876665286086    -0.002418633459     1.007825032230
         H           -3.056003070970    -1.845568413914     0.297575366541     1.007825032230
         H            3.445514729030     0.534192286086    -0.002424633459     1.007825032230
         H            3.669277729030    -0.991319713914    -0.893442633459     1.007825032230
         H            3.669273729030    -0.991306713914     0.888615366541     1.007825032230

  Basis Set: AUG-CC-PVTZ
    Blend: AUG-CC-PVTZ
  Basis Set: (AUG-CC-PVTZ AUX)
    Blend: AUG-CC-PVTZ-JKFIT
	 Reference Energy          =    -431.7908519425311624 [Eh]
	 Singles Energy            =      -0.0000000000000000 [Eh]
	 Same-Spin Energy          =      -0.4559927038782315 [Eh]
	 Opposite-Spin Energy      =      -1.3802969653224855 [Eh]
	 Correlation Energy        =      -1.8362896692007169 [Eh]
	 Total Energy              =    -433.6271416117318722 [Eh]

	 ================> DF-SCS-MP2 Energies <==================
	-----------------------------------------------------------
	 SCS Same-Spin Scale       =       0.3333333333333333 [-]
	 SCS Opposite-Spin Scale   =       1.2000000000000000 [-]
	 SCS Same-Spin Energy      =      -0.1519975679594105 [Eh]
	 SCS Opposite-Spin Energy  =      -1.6563563583869825 [Eh]
	 SCS Correlation Energy    =      -1.8083539263463930 [Eh]
	 SCS Total Energy          =    -433.5992058688775614 [Eh]
	-----------------------------------------------------------

  Dipole Moment: [D]
     X:    -0.9136      Y:    -0.3418      Z:     0.2132     Total:     0.9985

*** Psi4 exiting successfully. Buy a developer a beer!
