                               Psi4 1.3.2 release

  ==> Input File <==

--------------------------------------------------------------------------
#psi4
#
memory 32 gb

molecule  {
0 1
  O        1.2542850     1.5918540    -0.0000040
  N       -1.4703060     0.9792780     0.0000030
  N        1.7567070    -0.6653920     0.0000000
  N       -1.0359320    -1.2074830     0.0000000
  C       -0.5082200     0.0183690     0.0000050
  C        0.9183560     0.3972400     0.0000000
  C       -2.6868100     0.3502900    -0.0000010
  C       -2.3919160    -1.0020460    -0.0000030
  C        3.1975750    -0.5187580     0.0000000
  H       -1.2617080     1.9724600     0.0000090
  H        1.3219030    -1.5822740     0.0000070
  H       -3.6212920     0.8920510    -0.0000010
  H       -3.0881127    -1.8301826     0.2499930
  H        3.4134050     0.5495780    -0.0000070
  H        3.6371680    -0.9759340    -0.8910250
  H        3.6371640    -0.9759210     0.8910330
units angstrom
no_reorient  #important for SAPT in psi4, default
symmetry c1  #important for SAPT in psi4, default
}

set PROPERTIES_ORIGIN ["COM"]
properties('MP2/aug-cc-pvtz', properties = ['dipole'])
--------------------------------------------------------------------------

    Molecular point group: c1
  Charge       = 0
  Multiplicity = 1
  Basis Set: AUG-CC-PVTZ
    Blend: AUG-CC-PVTZ
  Basis Set: (AUG-CC-PVTZ AUX)
    Blend: AUG-CC-PVTZ-JKFIT

    Orbital Energies [Eh]
    ---------------------

    Doubly Occupied:

       1A    -20.527974     2A    -15.636157     3A    -15.592744
       4A    -15.571230     5A    -11.366746     6A    -11.310829
       7A    -11.280541     8A    -11.263112     9A    -11.262913
      10A     -1.387173    11A     -1.348359    12A     -1.240119
      13A     -1.180531    14A     -1.038431    15A     -0.962143
      16A     -0.858899    17A     -0.821465    18A     -0.797821
      19A     -0.772876    20A     -0.668955    21A     -0.651106
      22A     -0.639465    23A     -0.613600    24A     -0.608930
      25A     -0.592668    26A     -0.582904    27A     -0.550668
      28A     -0.536671    29A     -0.464527    30A     -0.442694
      31A     -0.417856    32A     -0.395426    33A     -0.328816

  @DF-RHF Final Energy:  -431.79283622381195

   => Energetics <=

    Nuclear Repulsion Energy =            432.4823327418164354
    One-Electron Energy =               -1445.1216320630769587
    Two-Electron Energy =                 580.8464630974485772
    Total Energy =                       -431.7928362238119462
  Basis Set: (AUG-CC-PVTZ AUX)
    Blend: AUG-CC-PVTZ-RI
    Molecular point group: c1

    Geometry (in Angstrom), charge = 0, multiplicity = 1:

       Center              X                  Y                   Z               Mass
    ------------   -----------------  -----------------  -----------------  -----------------
         O            1.286394728224     1.576468285281    -0.002018693350    15.994914619570
         N           -1.438196271776     0.963892285281    -0.002011693350    14.003074004430
         N            1.788816728224    -0.680777714719    -0.002014693350    14.003074004430
         N           -1.003822271776    -1.222868714719    -0.002014693350    14.003074004430
         C           -0.476110271776     0.002983285281    -0.002009693350    12.000000000000
         C            0.950465728224     0.381854285281    -0.002014693350    12.000000000000
         C           -2.654700271776     0.334904285281    -0.002015693350    12.000000000000
         C           -2.359806271776    -1.017431714719    -0.002017693350    12.000000000000
         C            3.229684728224    -0.534143714719    -0.002014693350    12.000000000000
         H           -1.229598271776     1.957074285281    -0.002005693350     1.007825032230
         H            1.354012728224    -1.597659714719    -0.002007693350     1.007825032230
         H           -3.589182271776     0.876665285281    -0.002015693350     1.007825032230
         H           -3.056002971776    -1.845568314719     0.247978306650     1.007825032230
         H            3.445514728224     0.534192285281    -0.002021693350     1.007825032230
         H            3.669277728224    -0.991319714719    -0.893039693350     1.007825032230
         H            3.669273728224    -0.991306714719     0.889018306650     1.007825032230

  Basis Set: AUG-CC-PVTZ
    Blend: AUG-CC-PVTZ
  Basis Set: (AUG-CC-PVTZ AUX)
    Blend: AUG-CC-PVTZ-JKFIT
	 Reference Energy          =    -431.7928362238119462 [Eh]
	 Singles Energy            =      -0.0000000000000000 [Eh]
	 Same-Spin Energy          =      -0.4559095312149946 [Eh]
	 Opposite-Spin Energy      =      -1.3800726866481894 [Eh]
	 Correlation Energy        =      -1.8359822178631839 [Eh]
	 Total Energy              =    -433.6288184416751506 [Eh]

	 ================> DF-SCS-MP2 Energies <==================
	-----------------------------------------------------------
	 SCS Same-Spin Scale       =       0.3333333333333333 [-]
	 SCS Opposite-Spin Scale   =       1.2000000000000000 [-]
	 SCS Same-Spin Energy      =      -0.1519698437383315 [Eh]
	 SCS Opposite-Spin Energy  =      -1.6560872239778273 [Eh]
	 SCS Correlation Energy    =      -1.8080570677161587 [Eh]
	 SCS Total Energy          =    -433.6008932915281093 [Eh]
	-----------------------------------------------------------

  Dipole Moment: [D]
     X:    -0.9325      Y:    -0.3590      Z:     0.1788     Total:     1.0151

*** Psi4 exiting successfully. Buy a developer a beer!
