                               Psi4 1.3.2 release

  ==> Input File <==

--------------------------------------------------------------------------
#psi4
#
memory 32 gb

molecule  {
0 1
  O        1.2542850     1.5918540    -0.0000040
  N       -1.4703060     0.9792780     0.0000030
  N        1.7567070    -0.6653920     0.0000000
  N       -1.0359320    -1.2074830     0.0000000
  C       -0.5082200     0.0183690     0.0000050
  C        0.9183560     0.3972400     0.0000000
  C       -2.6868100     0.3502900    -0.0000010
  C       -2.3919160    -1.0020460    -0.0000030
  C        3.1975750    -0.5187580     0.0000000
  H       -1.2617080     1.9724600     0.0000090
  H        1.3219030    -1.5822740     0.0000070
  H       -3.6212920     0.8920510    -0.0000010
  H       -3.0881125    -1.8301824     0.1999930
  H        3.4134050     0.5495780    -0.0000070
  H        3.6371680    -0.9759340    -0.8910250
  H        3.6371640    -0.9759210     0.8910330
units angstrom
no_reorient  #important for SAPT in psi4, default
symmetry c1  #important for SAPT in psi4, default
}

set PROPERTIES_ORIGIN ["COM"]
properties('MP2/aug-cc-pvtz', properties = ['dipole'])
--------------------------------------------------------------------------

    Molecular point group: c1
  Charge       = 0
  Multiplicity = 1
  Basis Set: AUG-CC-PVTZ
    Blend: AUG-CC-PVTZ
  Basis Set: (AUG-CC-PVTZ AUX)
    Blend: AUG-CC-PVTZ-JKFIT

    Orbital Energies [Eh]
    ---------------------

    Doubly Occupied:

       1A    -20.527877     2A    -15.635970     3A    -15.592675
       4A    -15.571134     5A    -11.366659     6A    -11.310682
       7A    -11.280239     8A    -11.263063     9A    -11.262121
      10A     -1.387066    11A     -1.348202    12A     -1.240046
      13A     -1.180436    14A     -1.038452    15A     -0.962115
      16A     -0.858798    17A     -0.822643    18A     -0.797669
      19A     -0.772841    20A     -0.668880    21A     -0.651071
      22A     -0.639273    23A     -0.613670    24A     -0.608684
      25A     -0.593626    26A     -0.584470    27A     -0.550623
      28A     -0.536676    29A     -0.464509    30A     -0.442602
      31A     -0.417936    32A     -0.395393    33A     -0.328792

  @DF-RHF Final Energy:  -431.79437289222943

   => Energetics <=

    Nuclear Repulsion Energy =            432.5200885914421747
    One-Electron Energy =               -1445.1991403288234324
    Two-Electron Energy =                 580.8846788451519387
    Total Energy =                       -431.7943728922293758
  Basis Set: (AUG-CC-PVTZ AUX)
    Blend: AUG-CC-PVTZ-RI
    Molecular point group: c1

    Geometry (in Angstrom), charge = 0, multiplicity = 1:

       Center              X                  Y                   Z               Mass
    ------------   -----------------  -----------------  -----------------  -----------------
         O            1.286394726612     1.576468283669    -0.001615753240    15.994914619570
         N           -1.438196273388     0.963892283669    -0.001608753240    14.003074004430
         N            1.788816726612    -0.680777716331    -0.001611753240    14.003074004430
         N           -1.003822273388    -1.222868716331    -0.001611753240    14.003074004430
         C           -0.476110273388     0.002983283669    -0.001606753240    12.000000000000
         C            0.950465726612     0.381854283669    -0.001611753240    12.000000000000
         C           -2.654700273388     0.334904283669    -0.001612753240    12.000000000000
         C           -2.359806273388    -1.017431716331    -0.001614753240    12.000000000000
         C            3.229684726612    -0.534143716331    -0.001611753240    12.000000000000
         H           -1.229598273388     1.957074283669    -0.001602753240     1.007825032230
         H            1.354012726612    -1.597659716331    -0.001604753240     1.007825032230
         H           -3.589182273388     0.876665283669    -0.001612753240     1.007825032230
         H           -3.056002773388    -1.845568116331     0.198381246760     1.007825032230
         H            3.445514726612     0.534192283669    -0.001618753240     1.007825032230
         H            3.669277726612    -0.991319716331    -0.892636753240     1.007825032230
         H            3.669273726612    -0.991306716331     0.889421246760     1.007825032230

  Basis Set: AUG-CC-PVTZ
    Blend: AUG-CC-PVTZ
  Basis Set: (AUG-CC-PVTZ AUX)
    Blend: AUG-CC-PVTZ-JKFIT
	 Reference Energy          =    -431.7943728922294326 [Eh]
	 Singles Energy            =      -0.0000000000000000 [Eh]
	 Same-Spin Energy          =      -0.4558405038488981 [Eh]
	 Opposite-Spin Energy      =      -1.3798974124087655 [Eh]
	 Correlation Energy        =      -1.8357379162576635 [Eh]
	 Total Energy              =    -433.6301108084870748 [Eh]

	 ================> DF-SCS-MP2 Energies <==================
	-----------------------------------------------------------
	 SCS Same-Spin Scale       =       0.3333333333333333 [-]
	 SCS Opposite-Spin Scale   =       1.2000000000000000 [-]
	 SCS Same-Spin Energy      =      -0.1519468346162993 [Eh]
	 SCS Opposite-Spin Energy  =      -1.6558768948905185 [Eh]
	 SCS Correlation Energy    =      -1.8078237295068178 [Eh]
	 SCS Total Energy          =    -433.6021966217362547 [Eh]
	-----------------------------------------------------------

  Dipole Moment: [D]
     X:    -0.9482      Y:    -0.3732      Z:     0.1438     Total:     1.0291

*** Psi4 exiting successfully. Buy a developer a beer!
