                               Psi4 1.3.2 release

  ==> Input File <==

--------------------------------------------------------------------------
#psi4
#
memory 32 gb

molecule  {
0 1
  O        1.2542850     1.5918540    -0.0000040
  N       -1.4703060     0.9792780     0.0000030
  N        1.7567070    -0.6653920     0.0000000
  N       -1.0359320    -1.2074830     0.0000000
  C       -0.5082203     0.0183688    -0.0999950
  C        0.9183560     0.3972400     0.0000000
  C       -2.6868100     0.3502900    -0.0000010
  C       -2.3919160    -1.0020460    -0.0000030
  C        3.1975750    -0.5187580     0.0000000
  H       -1.2617080     1.9724600     0.0000090
  H        1.3219030    -1.5822740     0.0000070
  H       -3.6212920     0.8920510    -0.0000010
  H       -3.0881120    -1.8301820    -0.0000070
  H        3.4134050     0.5495780    -0.0000070
  H        3.6371680    -0.9759340    -0.8910250
  H        3.6371640    -0.9759210     0.8910330
units angstrom
no_reorient  #important for SAPT in psi4, default
symmetry c1  #important for SAPT in psi4, default
}

set PROPERTIES_ORIGIN ["COM"]
properties('MP2/aug-cc-pvtz', properties = ['dipole'])
--------------------------------------------------------------------------

    Molecular point group: c1
  Charge       = 0
  Multiplicity = 1
  Basis Set: AUG-CC-PVTZ
    Blend: AUG-CC-PVTZ
  Basis Set: (AUG-CC-PVTZ AUX)
    Blend: AUG-CC-PVTZ-JKFIT

    Orbital Energies [Eh]
    ---------------------

    Doubly Occupied:

       1A    -20.527417     2A    -15.635881     3A    -15.592216
       4A    -15.571994     5A    -11.366441     6A    -11.310798
       7A    -11.280349     8A    -11.262784     9A    -11.260951
      10A     -1.386330    11A     -1.347094    12A     -1.239546
      13A     -1.179546    14A     -1.037991    15A     -0.961744
      16A     -0.858153    17A     -0.824244    18A     -0.796406
      19A     -0.772279    20A     -0.668703    21A     -0.650759
      22A     -0.638353    23A     -0.614201    24A     -0.607271
      25A     -0.596230    26A     -0.585710    27A     -0.550351
      28A     -0.535984    29A     -0.464853    30A     -0.442055
      31A     -0.417154    32A     -0.395031    33A     -0.328907

  @DF-RHF Final Energy:  -431.79332884088609

   => Energetics <=

    Nuclear Repulsion Energy =            432.4264042167839079
    One-Electron Energy =               -1445.0240152569178917
    Two-Electron Energy =                 580.8042821992479503
    Total Energy =                       -431.7933288408860335
  Basis Set: (AUG-CC-PVTZ AUX)
    Blend: AUG-CC-PVTZ-RI
    Molecular point group: c1

    Geometry (in Angstrom), charge = 0, multiplicity = 1:

       Center              X                  Y                   Z               Mass
    ------------   -----------------  -----------------  -----------------  -----------------
         O            1.286394751369     1.576468299636     0.009591484897    15.994914619570
         N           -1.438196248631     0.963892299636     0.009598484897    14.003074004430
         N            1.788816751369    -0.680777700364     0.009595484897    14.003074004430
         N           -1.003822248631    -1.222868700364     0.009595484897    14.003074004430
         C           -0.476110548631     0.002983099636    -0.090399515103    12.000000000000
         C            0.950465751369     0.381854299636     0.009595484897    12.000000000000
         C           -2.654700248631     0.334904299636     0.009594484897    12.000000000000
         C           -2.359806248631    -1.017431700364     0.009592484897    12.000000000000
         C            3.229684751369    -0.534143700364     0.009595484897    12.000000000000
         H           -1.229598248631     1.957074299636     0.009604484897     1.007825032230
         H            1.354012751369    -1.597659700364     0.009602484897     1.007825032230
         H           -3.589182248631     0.876665299636     0.009594484897     1.007825032230
         H           -3.056002248631    -1.845567700364     0.009588484897     1.007825032230
         H            3.445514751369     0.534192299636     0.009588484897     1.007825032230
         H            3.669277751369    -0.991319700364    -0.881429515103     1.007825032230
         H            3.669273751369    -0.991306700364     0.900628484897     1.007825032230

  Basis Set: AUG-CC-PVTZ
    Blend: AUG-CC-PVTZ
  Basis Set: (AUG-CC-PVTZ AUX)
    Blend: AUG-CC-PVTZ-JKFIT
	 Reference Energy          =    -431.7933288408860903 [Eh]
	 Singles Energy            =      -0.0000000000000000 [Eh]
	 Same-Spin Energy          =      -0.4559585853232074 [Eh]
	 Opposite-Spin Energy      =      -1.3800846045641855 [Eh]
	 Correlation Energy        =      -1.8360431898873930 [Eh]
	 Total Energy              =    -433.6293720307734816 [Eh]

	 ================> DF-SCS-MP2 Energies <==================
	-----------------------------------------------------------
	 SCS Same-Spin Scale       =       0.3333333333333333 [-]
	 SCS Opposite-Spin Scale   =       1.2000000000000000 [-]
	 SCS Same-Spin Energy      =      -0.1519861951077358 [Eh]
	 SCS Opposite-Spin Energy  =      -1.6561015254770226 [Eh]
	 SCS Correlation Energy    =      -1.8080877205847585 [Eh]
	 SCS Total Energy          =    -433.6014165614708418 [Eh]
	-----------------------------------------------------------

  Dipole Moment: [D]
     X:    -1.0023      Y:    -0.4049      Z:    -0.0296     Total:     1.0814

*** Psi4 exiting successfully. Buy a developer a beer!
