                               Psi4 1.3.2 release

  ==> Input File <==

--------------------------------------------------------------------------
#psi4
#
memory 32 gb

molecule  {
0 1
  O        1.2542850     1.5918540    -0.0000040
  N       -1.4703060     0.9792780     0.0000030
  N        1.7567070    -0.6653920     0.0000000
  N       -1.0359320    -1.2074830     0.0000000
  C       -0.5082207     0.0183684    -0.2499950
  C        0.9183560     0.3972400     0.0000000
  C       -2.6868100     0.3502900    -0.0000010
  C       -2.3919160    -1.0020460    -0.0000030
  C        3.1975750    -0.5187580     0.0000000
  H       -1.2617080     1.9724600     0.0000090
  H        1.3219030    -1.5822740     0.0000070
  H       -3.6212920     0.8920510    -0.0000010
  H       -3.0881120    -1.8301820    -0.0000070
  H        3.4134050     0.5495780    -0.0000070
  H        3.6371680    -0.9759340    -0.8910250
  H        3.6371640    -0.9759210     0.8910330
units angstrom
no_reorient  #important for SAPT in psi4, default
symmetry c1  #important for SAPT in psi4, default
}

set PROPERTIES_ORIGIN ["COM"]
properties('MP2/aug-cc-pvtz', properties = ['dipole'])
--------------------------------------------------------------------------

    Molecular point group: c1
  Charge       = 0
  Multiplicity = 1
  Basis Set: AUG-CC-PVTZ
    Blend: AUG-CC-PVTZ
  Basis Set: (AUG-CC-PVTZ AUX)
    Blend: AUG-CC-PVTZ-JKFIT

    Orbital Energies [Eh]
    ---------------------

    Doubly Occupied:

       1A    -20.525944     2A    -15.637072     3A    -15.590506
       4A    -15.577228     5A    -11.365949     6A    -11.312492
       7A    -11.283963     8A    -11.262458     9A    -11.261788
      10A     -1.383566    11A     -1.342851    12A     -1.237656
      13A     -1.176034    14A     -1.035381    15A     -0.960100
      16A     -0.855972    17A     -0.820900    18A     -0.791666
      19A     -0.769614    20A     -0.668370    21A     -0.649394
      22A     -0.635846    23A     -0.615252    24A     -0.603612
      25A     -0.595093    26A     -0.582354    27A     -0.549346
      28A     -0.532456    29A     -0.466779    30A     -0.439788
      31A     -0.412827    32A     -0.393406    33A     -0.329837

  @DF-RHF Final Energy:  -431.77477846942315

   => Energetics <=

    Nuclear Repulsion Energy =            431.5886280824808523
    One-Electron Energy =               -1443.3958094291024281
    Two-Electron Energy =                 580.0324028771983649
    Total Energy =                       -431.7747784694231541
  Basis Set: (AUG-CC-PVTZ AUX)
    Blend: AUG-CC-PVTZ-RI
    Molecular point group: c1

    Geometry (in Angstrom), charge = 0, multiplicity = 1:

       Center              X                  Y                   Z               Mass
    ------------   -----------------  -----------------  -----------------  -----------------
         O            1.286394789751     1.576468338018     0.023984701448    15.994914619570
         N           -1.438196210249     0.963892338018     0.023991701448    14.003074004430
         N            1.788816789751    -0.680777661982     0.023988701448    14.003074004430
         N           -1.003822210249    -1.222868661982     0.023988701448    14.003074004430
         C           -0.476110910249     0.002982738018    -0.226006298552    12.000000000000
         C            0.950465789751     0.381854338018     0.023988701448    12.000000000000
         C           -2.654700210249     0.334904338018     0.023987701448    12.000000000000
         C           -2.359806210249    -1.017431661982     0.023985701448    12.000000000000
         C            3.229684789751    -0.534143661982     0.023988701448    12.000000000000
         H           -1.229598210249     1.957074338018     0.023997701448     1.007825032230
         H            1.354012789751    -1.597659661982     0.023995701448     1.007825032230
         H           -3.589182210249     0.876665338018     0.023987701448     1.007825032230
         H           -3.056002210249    -1.845567661982     0.023981701448     1.007825032230
         H            3.445514789751     0.534192338018     0.023981701448     1.007825032230
         H            3.669277789751    -0.991319661982    -0.867036298552     1.007825032230
         H            3.669273789751    -0.991306661982     0.915021701448     1.007825032230

  Basis Set: AUG-CC-PVTZ
    Blend: AUG-CC-PVTZ
  Basis Set: (AUG-CC-PVTZ AUX)
    Blend: AUG-CC-PVTZ-JKFIT
	 Reference Energy          =    -431.7747784694231541 [Eh]
	 Singles Energy            =      -0.0000000000000000 [Eh]
	 Same-Spin Energy          =      -0.4571895599304633 [Eh]
	 Opposite-Spin Energy      =      -1.3829823688114002 [Eh]
	 Correlation Energy        =      -1.8401719287418636 [Eh]
	 Total Energy              =    -433.6149503981650355 [Eh]

	 ================> DF-SCS-MP2 Energies <==================
	-----------------------------------------------------------
	 SCS Same-Spin Scale       =       0.3333333333333333 [-]
	 SCS Opposite-Spin Scale   =       1.2000000000000000 [-]
	 SCS Same-Spin Energy      =      -0.1523965199768211 [Eh]
	 SCS Opposite-Spin Energy  =      -1.6595788425736802 [Eh]
	 SCS Correlation Energy    =      -1.8119753625505013 [Eh]
	 SCS Total Energy          =    -433.5867538319736809 [Eh]
	-----------------------------------------------------------

  Dipole Moment: [D]
     X:    -1.1304      Y:    -0.4329      Z:    -0.0572     Total:     1.2118

*** Psi4 exiting successfully. Buy a developer a beer!
