                               Psi4 1.3.2 release

  ==> Input File <==

--------------------------------------------------------------------------
#psi4
#
memory 32 gb

molecule  {
0 1
  O        1.2542850     1.5918540    -0.0000040
  N       -1.4703060     0.9792780     0.0000030
  N        1.7567070    -0.6653920     0.0000000
  N       -1.0359320    -1.2074830     0.0000000
  C       -0.5082200     0.0183690     0.0000050
  C        0.9183562     0.3972398     0.2000000
  C       -2.6868100     0.3502900    -0.0000010
  C       -2.3919160    -1.0020460    -0.0000030
  C        3.1975750    -0.5187580     0.0000000
  H       -1.2617080     1.9724600     0.0000090
  H        1.3219030    -1.5822740     0.0000070
  H       -3.6212920     0.8920510    -0.0000010
  H       -3.0881120    -1.8301820    -0.0000070
  H        3.4134050     0.5495780    -0.0000070
  H        3.6371680    -0.9759340    -0.8910250
  H        3.6371640    -0.9759210     0.8910330
units angstrom
no_reorient  #important for SAPT in psi4, default
symmetry c1  #important for SAPT in psi4, default
}

set PROPERTIES_ORIGIN ["COM"]
properties('MP2/aug-cc-pvtz', properties = ['dipole'])
--------------------------------------------------------------------------

    Molecular point group: c1
  Charge       = 0
  Multiplicity = 1
  Basis Set: AUG-CC-PVTZ
    Blend: AUG-CC-PVTZ
  Basis Set: (AUG-CC-PVTZ AUX)
    Blend: AUG-CC-PVTZ-JKFIT

    Orbital Energies [Eh]
    ---------------------

    Doubly Occupied:

       1A    -20.530679     2A    -15.635037     3A    -15.594002
       4A    -15.570291     5A    -11.372069     6A    -11.312469
       7A    -11.279409     8A    -11.262575     9A    -11.260544
      10A     -1.381176    11A     -1.345931    12A     -1.235182
      13A     -1.179829    14A     -1.036515    15A     -0.960211
      16A     -0.856798    17A     -0.824368    18A     -0.796963
      19A     -0.768862    20A     -0.668384    21A     -0.648187
      22A     -0.636311    23A     -0.613362    24A     -0.608737
      25A     -0.595325    26A     -0.582372    27A     -0.549629
      28A     -0.533137    29A     -0.463958    30A     -0.441210
      31A     -0.417454    32A     -0.393057    33A     -0.327698

  @DF-RHF Final Energy:  -431.77774196990333

   => Energetics <=

    Nuclear Repulsion Energy =            431.9169117147246197
    One-Electron Energy =               -1444.0258422036963566
    Two-Electron Energy =                 580.3311885190684052
    Total Energy =                       -431.7777419699033317
  Basis Set: (AUG-CC-PVTZ AUX)
    Blend: AUG-CC-PVTZ-RI
    Molecular point group: c1

    Geometry (in Angstrom), charge = 0, multiplicity = 1:

       Center              X                  Y                   Z               Mass
    ------------   -----------------  -----------------  -----------------  -----------------
         O            1.286394703392     1.576468299636    -0.019194948205    15.994914619570
         N           -1.438196296608     0.963892299636    -0.019187948205    14.003074004430
         N            1.788816703392    -0.680777700364    -0.019190948205    14.003074004430
         N           -1.003822296608    -1.222868700364    -0.019190948205    14.003074004430
         C           -0.476110296608     0.002983299636    -0.019185948205    12.000000000000
         C            0.950465903392     0.381854099636     0.180809051795    12.000000000000
         C           -2.654700296608     0.334904299636    -0.019191948205    12.000000000000
         C           -2.359806296608    -1.017431700364    -0.019193948205    12.000000000000
         C            3.229684703392    -0.534143700364    -0.019190948205    12.000000000000
         H           -1.229598296608     1.957074299636    -0.019181948205     1.007825032230
         H            1.354012703392    -1.597659700364    -0.019183948205     1.007825032230
         H           -3.589182296608     0.876665299636    -0.019191948205     1.007825032230
         H           -3.056002296608    -1.845567700364    -0.019197948205     1.007825032230
         H            3.445514703392     0.534192299636    -0.019197948205     1.007825032230
         H            3.669277703392    -0.991319700364    -0.910215948205     1.007825032230
         H            3.669273703392    -0.991306700364     0.871842051795     1.007825032230

  Basis Set: AUG-CC-PVTZ
    Blend: AUG-CC-PVTZ
  Basis Set: (AUG-CC-PVTZ AUX)
    Blend: AUG-CC-PVTZ-JKFIT
	 Reference Energy          =    -431.7777419699033317 [Eh]
	 Singles Energy            =      -0.0000000000000000 [Eh]
	 Same-Spin Energy          =      -0.4568921678515397 [Eh]
	 Opposite-Spin Energy      =      -1.3825502566646080 [Eh]
	 Correlation Energy        =      -1.8394424245161476 [Eh]
	 Total Energy              =    -433.6171843944194961 [Eh]

	 ================> DF-SCS-MP2 Energies <==================
	-----------------------------------------------------------
	 SCS Same-Spin Scale       =       0.3333333333333333 [-]
	 SCS Opposite-Spin Scale   =       1.2000000000000000 [-]
	 SCS Same-Spin Energy      =      -0.1522973892838466 [Eh]
	 SCS Opposite-Spin Energy  =      -1.6590603079975295 [Eh]
	 SCS Correlation Energy    =      -1.8113576972813761 [Eh]
	 SCS Total Energy          =    -433.5890996671847120 [Eh]
	-----------------------------------------------------------

  Dipole Moment: [D]
     X:    -0.9409      Y:    -0.3778      Z:     0.1825     Total:     1.0302

*** Psi4 exiting successfully. Buy a developer a beer!
