                               Psi4 1.3.2 release

  ==> Input File <==

--------------------------------------------------------------------------
#psi4
#
memory 32 gb

molecule  {
0 1
  O        1.2542850     1.5918540    -0.0000040
  N       -1.4703060     0.9792780     0.0000030
  N        1.7567070    -0.6653920     0.0000000
  N       -1.0359320    -1.2074830     0.0000000
  C       -0.5082200     0.0183690     0.0000050
  C        0.9183560     0.3972400     0.0000000
  C       -2.6868100     0.3502900    -0.0000010
  C       -2.3919160    -1.0020460    -0.0000030
  C        3.1975750    -0.5187580     0.0000000
  H       -1.2617080     1.9724600     0.0000090
  H        1.3219030    -1.5822740     0.0000070
  H       -3.6212920     0.8920510    -0.0000010
  H       -3.0881120    -1.8301820    -0.0000070
  H        3.4134050     0.5495780    -0.0000070
  H        3.6371680    -0.9759340    -0.8910250
  H        3.6371640    -0.9759210     0.8910330
units angstrom
no_reorient  #important for SAPT in psi4, default
symmetry c1  #important for SAPT in psi4, default
}

set PROPERTIES_ORIGIN ["COM"]
properties('MP2/aug-cc-pvtz', properties = ['dipole'])
--------------------------------------------------------------------------

    Molecular point group: c1
  Charge       = 0
  Multiplicity = 1
  Basis Set: AUG-CC-PVTZ
    Blend: AUG-CC-PVTZ
  Basis Set: (AUG-CC-PVTZ AUX)
    Blend: AUG-CC-PVTZ-JKFIT

    Orbital Energies [Eh]
    ---------------------

    Doubly Occupied:

       1A    -20.527703     2A    -15.635635     3A    -15.592550
       4A    -15.570969     5A    -11.366505     6A    -11.310420
       7A    -11.279697     8A    -11.262975     9A    -11.260687
      10A     -1.386874    11A     -1.347921    12A     -1.239915
      13A     -1.180268    14A     -1.038504    15A     -0.962070
      16A     -0.858620    17A     -0.824893    18A     -0.797396
      19A     -0.772778    20A     -0.668755    21A     -0.651015
      22A     -0.638885    23A     -0.613847    24A     -0.608131
      25A     -0.596432    26A     -0.586345    27A     -0.550541
      28A     -0.536672    29A     -0.464462    30A     -0.442437
      31A     -0.418086    32A     -0.395336    33A     -0.328755

  @DF-RHF Final Energy:  -431.79688228276513

   => Energetics <=

    Nuclear Repulsion Energy =            432.5892345072546732
    One-Electron Energy =               -1445.3400793527287078
    Two-Electron Energy =                 580.9539625627088526
    Total Energy =                       -431.7968822827651820
  Basis Set: (AUG-CC-PVTZ AUX)
    Blend: AUG-CC-PVTZ-RI
    Molecular point group: c1

    Geometry (in Angstrom), charge = 0, multiplicity = 1:

       Center              X                  Y                   Z               Mass
    ------------   -----------------  -----------------  -----------------  -----------------
         O            1.286394722583     1.576468280445    -0.000003992803    15.994914619570
         N           -1.438196277417     0.963892280445     0.000003007197    14.003074004430
         N            1.788816722583    -0.680777719555     0.000000007197    14.003074004430
         N           -1.003822277417    -1.222868719555     0.000000007197    14.003074004430
         C           -0.476110277417     0.002983280445     0.000005007197    12.000000000000
         C            0.950465722583     0.381854280445     0.000000007197    12.000000000000
         C           -2.654700277417     0.334904280445    -0.000000992803    12.000000000000
         C           -2.359806277417    -1.017431719555    -0.000002992803    12.000000000000
         C            3.229684722583    -0.534143719555     0.000000007197    12.000000000000
         H           -1.229598277417     1.957074280445     0.000009007197     1.007825032230
         H            1.354012722583    -1.597659719555     0.000007007197     1.007825032230
         H           -3.589182277417     0.876665280445    -0.000000992803     1.007825032230
         H           -3.056002277417    -1.845567719555    -0.000006992803     1.007825032230
         H            3.445514722583     0.534192280445    -0.000006992803     1.007825032230
         H            3.669277722583    -0.991319719555    -0.891024992803     1.007825032230
         H            3.669273722583    -0.991306719555     0.891033007197     1.007825032230

  Basis Set: AUG-CC-PVTZ
    Blend: AUG-CC-PVTZ
  Basis Set: (AUG-CC-PVTZ AUX)
    Blend: AUG-CC-PVTZ-JKFIT
	 Reference Energy          =    -431.7968822827651252 [Eh]
	 Singles Energy            =      -0.0000000000000000 [Eh]
	 Same-Spin Energy          =      -0.4557163158015198 [Eh]
	 Opposite-Spin Energy      =      -1.3796234555695532 [Eh]
	 Correlation Energy        =      -1.8353397713710731 [Eh]
	 Total Energy              =    -433.6322220541362071 [Eh]

	 ================> DF-SCS-MP2 Energies <==================
	-----------------------------------------------------------
	 SCS Same-Spin Scale       =       0.3333333333333333 [-]
	 SCS Opposite-Spin Scale   =       1.2000000000000000 [-]
	 SCS Same-Spin Energy      =      -0.1519054386005066 [Eh]
	 SCS Opposite-Spin Energy  =      -1.6555481466834638 [Eh]
	 SCS Correlation Energy    =      -1.8074535852839704 [Eh]
	 SCS Total Energy          =    -433.6043358680490769 [Eh]
	-----------------------------------------------------------

  Dipole Moment: [D]
     X:    -0.9766      Y:    -0.3992      Z:     0.0000     Total:     1.0550

*** Psi4 exiting successfully. Buy a developer a beer!
