                               Psi4 1.3.2 release

  ==> Input File <==

--------------------------------------------------------------------------
#psi4
#
memory 32 gb

molecule  {
0 1
  O        1.2542850     1.5918540    -0.0000040
  N       -1.4703060     0.9792780     0.0000030
  N        1.7567070    -0.6653920     0.0000000
  N       -1.0359320    -1.2074830     0.0000000
  C       -0.5082200     0.0183690     0.0000050
  C        0.9183560     0.3972400     0.0000000
  C       -2.6868100     0.3502900    -0.0000010
  C       -2.3919160    -1.0020460    -0.0000030
  C        3.1975750    -0.5187580     0.0000000
  H       -1.2617080     1.9724600     0.0000090
  H        1.3219030    -1.5822740     0.0000070
  H       -3.6212917     0.8920513    -0.1500010
  H       -3.0881120    -1.8301820    -0.0000070
  H        3.4134050     0.5495780    -0.0000070
  H        3.6371680    -0.9759340    -0.8910250
  H        3.6371640    -0.9759210     0.8910330
units angstrom
no_reorient  #important for SAPT in psi4, default
symmetry c1  #important for SAPT in psi4, default
}

set PROPERTIES_ORIGIN ["COM"]
properties('MP2/aug-cc-pvtz', properties = ['dipole'])
--------------------------------------------------------------------------

    Molecular point group: c1
  Charge       = 0
  Multiplicity = 1
  Basis Set: AUG-CC-PVTZ
    Blend: AUG-CC-PVTZ
  Basis Set: (AUG-CC-PVTZ AUX)
    Blend: AUG-CC-PVTZ-JKFIT

    Orbital Energies [Eh]
    ---------------------

    Doubly Occupied:

       1A    -20.527845     2A    -15.635603     3A    -15.592700
       4A    -15.571100     5A    -11.366647     6A    -11.310727
       7A    -11.280301     8A    -11.263071     9A    -11.261020
      10A     -1.387005    11A     -1.348021    12A     -1.240049
      13A     -1.180360    14A     -1.038409    15A     -0.962004
      16A     -0.858599    17A     -0.824833    18A     -0.796765
      19A     -0.772355    20A     -0.668185    21A     -0.650892
      22A     -0.638999    23A     -0.614016    24A     -0.607629
      25A     -0.595121    26A     -0.586458    27A     -0.550634
      28A     -0.536669    29A     -0.464505    30A     -0.442577
      31A     -0.418154    32A     -0.395445    33A     -0.328840

  @DF-RHF Final Energy:  -431.79566569104537

   => Energetics <=

    Nuclear Repulsion Energy =            432.5500480993292740
    One-Electron Energy =               -1445.2603550437688682
    Two-Electron Energy =                 580.9146412533941657
    Total Energy =                       -431.7956656910454285
  Basis Set: (AUG-CC-PVTZ AUX)
    Blend: AUG-CC-PVTZ-RI
    Molecular point group: c1

    Geometry (in Angstrom), charge = 0, multiplicity = 1:

       Center              X                  Y                   Z               Mass
    ------------   -----------------  -----------------  -----------------  -----------------
         O            1.286394720165     1.576468278028     0.001204827525    15.994914619570
         N           -1.438196279835     0.963892278028     0.001211827525    14.003074004430
         N            1.788816720165    -0.680777721972     0.001208827525    14.003074004430
         N           -1.003822279835    -1.222868721972     0.001208827525    14.003074004430
         C           -0.476110279835     0.002983278028     0.001213827525    12.000000000000
         C            0.950465720165     0.381854278028     0.001208827525    12.000000000000
         C           -2.654700279835     0.334904278028     0.001207827525    12.000000000000
         C           -2.359806279835    -1.017431721972     0.001205827525    12.000000000000
         C            3.229684720165    -0.534143721972     0.001208827525    12.000000000000
         H           -1.229598279835     1.957074278028     0.001217827525     1.007825032230
         H            1.354012720165    -1.597659721972     0.001215827525     1.007825032230
         H           -3.589181979835     0.876665578028    -0.148792172475     1.007825032230
         H           -3.056002279835    -1.845567721972     0.001201827525     1.007825032230
         H            3.445514720165     0.534192278028     0.001201827525     1.007825032230
         H            3.669277720165    -0.991319721972    -0.889816172475     1.007825032230
         H            3.669273720165    -0.991306721972     0.892241827525     1.007825032230

  Basis Set: AUG-CC-PVTZ
    Blend: AUG-CC-PVTZ
  Basis Set: (AUG-CC-PVTZ AUX)
    Blend: AUG-CC-PVTZ-JKFIT
	 Reference Energy          =    -431.7956656910453717 [Eh]
	 Singles Energy            =      -0.0000000000000000 [Eh]
	 Same-Spin Energy          =      -0.4557910640765151 [Eh]
	 Opposite-Spin Energy      =      -1.3797786224717803 [Eh]
	 Correlation Energy        =      -1.8355696865482953 [Eh]
	 Total Energy              =    -433.6312353775936685 [Eh]

	 ================> DF-SCS-MP2 Energies <==================
	-----------------------------------------------------------
	 SCS Same-Spin Scale       =       0.3333333333333333 [-]
	 SCS Opposite-Spin Scale   =       1.2000000000000000 [-]
	 SCS Same-Spin Energy      =      -0.1519303546921717 [Eh]
	 SCS Opposite-Spin Energy  =      -1.6557343469661363 [Eh]
	 SCS Correlation Energy    =      -1.8076647016583081 [Eh]
	 SCS Total Energy          =    -433.6033303927036968 [Eh]
	-----------------------------------------------------------

  Dipole Moment: [D]
     X:    -0.9557      Y:    -0.4116      Z:    -0.1333     Total:     1.0491

*** Psi4 exiting successfully. Buy a developer a beer!
