                               Psi4 1.3.2 release

  ==> Input File <==

--------------------------------------------------------------------------
#psi4
#
memory 32 gb

molecule  {
0 1
  O        1.2542850     1.5918540    -0.0000040
  N       -1.4703060     0.9792780     0.0000030
  N        1.7567070    -0.6653920     0.0000000
  N       -1.0359320    -1.2074830     0.0000000
  C       -0.5082200     0.0183690     0.0000050
  C        0.9183560     0.3972400     0.0000000
  C       -2.6868100     0.3502900    -0.0000010
  C       -2.3919160    -1.0020460    -0.0000030
  C        3.1975750    -0.5187580     0.0000000
  H       -1.2617080     1.9724600     0.0000090
  H        1.3219030    -1.5822740     0.0000070
  H       -3.6212920     0.8920510    -0.0000010
  H       -3.0881121    -1.8301821     0.0499930
  H        3.4134050     0.5495780    -0.0000070
  H        3.6371680    -0.9759340    -0.8910250
  H        3.6371640    -0.9759210     0.8910330
units angstrom
no_reorient  #important for SAPT in psi4, default
symmetry c1  #important for SAPT in psi4, default
}

set PROPERTIES_ORIGIN ["COM"]
properties('MP2/aug-cc-pvtz', properties = ['dipole'])
--------------------------------------------------------------------------

    Molecular point group: c1
  Charge       = 0
  Multiplicity = 1
  Basis Set: AUG-CC-PVTZ
    Blend: AUG-CC-PVTZ
  Basis Set: (AUG-CC-PVTZ AUX)
    Blend: AUG-CC-PVTZ-JKFIT

    Orbital Energies [Eh]
    ---------------------

    Doubly Occupied:

       1A    -20.527714     2A    -15.635656     3A    -15.592558
       4A    -15.570979     5A    -11.366515     6A    -11.310437
       7A    -11.279731     8A    -11.262980     9A    -11.260778
      10A     -1.386886    11A     -1.347939    12A     -1.239923
      13A     -1.180279    14A     -1.038500    15A     -0.962073
      16A     -0.858631    17A     -0.824746    18A     -0.797413
      19A     -0.772782    20A     -0.668762    21A     -0.651018
      22A     -0.638911    23A     -0.613833    24A     -0.608172
      25A     -0.596214    26A     -0.586261    27A     -0.550546
      28A     -0.536673    29A     -0.464466    30A     -0.442447
      31A     -0.418076    32A     -0.395340    33A     -0.328757

  @DF-RHF Final Energy:  -431.79673459507126

   => Energetics <=

    Nuclear Repulsion Energy =            432.5848340268376546
    One-Electron Energy =               -1445.3311494888273501
    Two-Electron Energy =                 580.9495808669184953
    Total Energy =                       -431.7967345950712570
  Basis Set: (AUG-CC-PVTZ AUX)
    Blend: AUG-CC-PVTZ-RI
    Molecular point group: c1

    Geometry (in Angstrom), charge = 0, multiplicity = 1:

       Center              X                  Y                   Z               Mass
    ------------   -----------------  -----------------  -----------------  -----------------
         O            1.286394723388     1.576468281251    -0.000406932913    15.994914619570
         N           -1.438196276612     0.963892281251    -0.000399932913    14.003074004430
         N            1.788816723388    -0.680777718749    -0.000402932913    14.003074004430
         N           -1.003822276612    -1.222868718749    -0.000402932913    14.003074004430
         C           -0.476110276612     0.002983281251    -0.000397932913    12.000000000000
         C            0.950465723388     0.381854281251    -0.000402932913    12.000000000000
         C           -2.654700276612     0.334904281251    -0.000403932913    12.000000000000
         C           -2.359806276612    -1.017431718749    -0.000405932913    12.000000000000
         C            3.229684723388    -0.534143718749    -0.000402932913    12.000000000000
         H           -1.229598276612     1.957074281251    -0.000393932913     1.007825032230
         H            1.354012723388    -1.597659718749    -0.000395932913     1.007825032230
         H           -3.589182276612     0.876665281251    -0.000403932913     1.007825032230
         H           -3.056002376612    -1.845567818749     0.049590067087     1.007825032230
         H            3.445514723388     0.534192281251    -0.000409932913     1.007825032230
         H            3.669277723388    -0.991319718749    -0.891427932913     1.007825032230
         H            3.669273723388    -0.991306718749     0.890630067087     1.007825032230

  Basis Set: AUG-CC-PVTZ
    Blend: AUG-CC-PVTZ
  Basis Set: (AUG-CC-PVTZ AUX)
    Blend: AUG-CC-PVTZ-JKFIT
	 Reference Energy          =    -431.7967345950712570 [Eh]
	 Singles Energy            =      -0.0000000000000000 [Eh]
	 Same-Spin Energy          =      -0.4557240905942670 [Eh]
	 Opposite-Spin Energy      =      -1.3796381813323713 [Eh]
	 Correlation Energy        =      -1.8353622719266383 [Eh]
	 Total Energy              =    -433.6320968669978697 [Eh]

	 ================> DF-SCS-MP2 Energies <==================
	-----------------------------------------------------------
	 SCS Same-Spin Scale       =       0.3333333333333333 [-]
	 SCS Opposite-Spin Scale   =       1.2000000000000000 [-]
	 SCS Same-Spin Energy      =      -0.1519080301980890 [Eh]
	 SCS Opposite-Spin Energy  =      -1.6555658175988455 [Eh]
	 SCS Correlation Energy    =      -1.8074738477969345 [Eh]
	 SCS Total Energy          =    -433.6042084428681846 [Eh]
	-----------------------------------------------------------

  Dipole Moment: [D]
     X:    -0.9748      Y:    -0.3975      Z:     0.0363     Total:     1.0533

*** Psi4 exiting successfully. Buy a developer a beer!
