                               Psi4 1.3.2 release

  ==> Input File <==

--------------------------------------------------------------------------
#psi4
#
memory 32 gb

molecule  {
0 1
  O        1.2542850     1.5918540    -0.0000040
  N       -1.4703060     0.9792780     0.0000030
  N        1.7567070    -0.6653920     0.0000000
  N       -1.0359320    -1.2074830     0.0000000
  C       -0.5082200     0.0183690     0.0000050
  C        0.9183560     0.3972400     0.0000000
  C       -2.6868100     0.3502900    -0.0000010
  C       -2.3919160    -1.0020460    -0.0000030
  C        3.1975750    -0.5187580     0.0000000
  H       -1.2617080     1.9724600     0.0000090
  H        1.3219030    -1.5822740     0.0000070
  H       -3.6212918     0.8920512    -0.1000010
  H       -3.0881120    -1.8301820    -0.0000070
  H        3.4134050     0.5495780    -0.0000070
  H        3.6371680    -0.9759340    -0.8910250
  H        3.6371640    -0.9759210     0.8910330
units angstrom
no_reorient  #important for SAPT in psi4, default
symmetry c1  #important for SAPT in psi4, default
}

set PROPERTIES_ORIGIN ["COM"]
properties('MP2/aug-cc-pvtz', properties = ['dipole'])
--------------------------------------------------------------------------

    Molecular point group: c1
  Charge       = 0
  Multiplicity = 1
  Basis Set: AUG-CC-PVTZ
    Blend: AUG-CC-PVTZ
  Basis Set: (AUG-CC-PVTZ AUX)
    Blend: AUG-CC-PVTZ-JKFIT

    Orbital Energies [Eh]
    ---------------------

    Doubly Occupied:

       1A    -20.527766     2A    -15.635620     3A    -15.592617
       4A    -15.571027     5A    -11.366568     6A    -11.310557
       7A    -11.279966     8A    -11.263018     9A    -11.260836
      10A     -1.386932    11A     -1.347966    12A     -1.239975
      13A     -1.180309    14A     -1.038460    15A     -0.962040
      16A     -0.858610    17A     -0.824864    18A     -0.797108
      19A     -0.772591    20A     -0.668495    21A     -0.650961
      22A     -0.638936    23A     -0.613931    24A     -0.607884
      25A     -0.595865    26A     -0.586398    27A     -0.550582
      28A     -0.536672    29A     -0.464481    30A     -0.442499
      31A     -0.418116    32A     -0.395385    33A     -0.328793

  @DF-RHF Final Energy:  -431.79635464981698

   => Energetics <=

    Nuclear Repulsion Energy =            432.5717118733708162
    One-Electron Energy =               -1445.3044816091228313
    Two-Electron Energy =                 580.9364150859350957
    Total Energy =                       -431.7963546498169762
  Basis Set: (AUG-CC-PVTZ AUX)
    Blend: AUG-CC-PVTZ-RI
    Molecular point group: c1

    Geometry (in Angstrom), charge = 0, multiplicity = 1:

       Center              X                  Y                   Z               Mass
    ------------   -----------------  -----------------  -----------------  -----------------
         O            1.286394720971     1.576468278833     0.000801887415    15.994914619570
         N           -1.438196279029     0.963892278833     0.000808887415    14.003074004430
         N            1.788816720971    -0.680777721167     0.000805887415    14.003074004430
         N           -1.003822279029    -1.222868721167     0.000805887415    14.003074004430
         C           -0.476110279029     0.002983278833     0.000810887415    12.000000000000
         C            0.950465720971     0.381854278833     0.000805887415    12.000000000000
         C           -2.654700279029     0.334904278833     0.000804887415    12.000000000000
         C           -2.359806279029    -1.017431721167     0.000802887415    12.000000000000
         C            3.229684720971    -0.534143721167     0.000805887415    12.000000000000
         H           -1.229598279029     1.957074278833     0.000814887415     1.007825032230
         H            1.354012720971    -1.597659721167     0.000812887415     1.007825032230
         H           -3.589182079029     0.876665478833    -0.099195112585     1.007825032230
         H           -3.056002279029    -1.845567721167     0.000798887415     1.007825032230
         H            3.445514720971     0.534192278833     0.000798887415     1.007825032230
         H            3.669277720971    -0.991319721167    -0.890219112585     1.007825032230
         H            3.669273720971    -0.991306721167     0.891838887415     1.007825032230

  Basis Set: AUG-CC-PVTZ
    Blend: AUG-CC-PVTZ
  Basis Set: (AUG-CC-PVTZ AUX)
    Blend: AUG-CC-PVTZ-JKFIT
	 Reference Energy          =    -431.7963546498169762 [Eh]
	 Singles Energy            =      -0.0000000000000000 [Eh]
	 Same-Spin Energy          =      -0.4557495550450076 [Eh]
	 Opposite-Spin Energy      =      -1.3796890552207799 [Eh]
	 Correlation Energy        =      -1.8354386102657876 [Eh]
	 Total Energy              =    -433.6317932600827589 [Eh]

	 ================> DF-SCS-MP2 Energies <==================
	-----------------------------------------------------------
	 SCS Same-Spin Scale       =       0.3333333333333333 [-]
	 SCS Opposite-Spin Scale   =       1.2000000000000000 [-]
	 SCS Same-Spin Energy      =      -0.1519165183483359 [Eh]
	 SCS Opposite-Spin Energy  =      -1.6556268662649358 [Eh]
	 SCS Correlation Energy    =      -1.8075433846132718 [Eh]
	 SCS Total Energy          =    -433.6038980344302445 [Eh]
	-----------------------------------------------------------

  Dipole Moment: [D]
     X:    -0.9672      Y:    -0.4047      Z:    -0.0891     Total:     1.0523

*** Psi4 exiting successfully. Buy a developer a beer!
