                               Psi4 1.3.2 release

  ==> Input File <==

--------------------------------------------------------------------------
#psi4
#
memory 32 gb

molecule  {
0 1
  O        1.2542850     1.5918540    -0.0000040
  N       -1.4703060     0.9792780     0.0000030
  N        1.7567070    -0.6653920     0.0000000
  N       -1.0359320    -1.2074830     0.0000000
  C       -0.5082209     0.0183683    -0.2999950
  C        0.9183560     0.3972400     0.0000000
  C       -2.6868100     0.3502900    -0.0000010
  C       -2.3919160    -1.0020460    -0.0000030
  C        3.1975750    -0.5187580     0.0000000
  H       -1.2617080     1.9724600     0.0000090
  H        1.3219030    -1.5822740     0.0000070
  H       -3.6212920     0.8920510    -0.0000010
  H       -3.0881120    -1.8301820    -0.0000070
  H        3.4134050     0.5495780    -0.0000070
  H        3.6371680    -0.9759340    -0.8910250
  H        3.6371640    -0.9759210     0.8910330
units angstrom
no_reorient  #important for SAPT in psi4, default
symmetry c1  #important for SAPT in psi4, default
}

set PROPERTIES_ORIGIN ["COM"]
properties('MP2/aug-cc-pvtz', properties = ['dipole'])
--------------------------------------------------------------------------

    Molecular point group: c1
  Charge       = 0
  Multiplicity = 1
  Basis Set: AUG-CC-PVTZ
    Blend: AUG-CC-PVTZ
  Basis Set: (AUG-CC-PVTZ AUX)
    Blend: AUG-CC-PVTZ-JKFIT

    Orbital Energies [Eh]
    ---------------------

    Doubly Occupied:

       1A    -20.525188     2A    -15.637617     3A    -15.589636
       4A    -15.579856     5A    -11.365590     6A    -11.313193
       7A    -11.285958     8A    -11.263313     9A    -11.261268
      10A     -1.382171    11A     -1.340694    12A     -1.236692
      13A     -1.174364    14A     -1.034058    15A     -0.959277
      16A     -0.854978    17A     -0.819196    18A     -0.789479
      19A     -0.768201    20A     -0.668148    21A     -0.648661
      22A     -0.634703    23A     -0.615590    24A     -0.601973
      25A     -0.594378    26A     -0.580598    27A     -0.548815
      28A     -0.530661    29A     -0.467692    30A     -0.438483
      31A     -0.410851    32A     -0.392541    33A     -0.330402

  @DF-RHF Final Energy:  -431.76515154819742

   => Energetics <=

    Nuclear Repulsion Energy =            431.1608749037758912
    One-Electron Energy =               -1442.5636035507639008
    Two-Electron Energy =                 579.6375770987905298
    Total Energy =                       -431.7651515481974229
  Basis Set: (AUG-CC-PVTZ AUX)
    Blend: AUG-CC-PVTZ-RI
    Molecular point group: c1

    Geometry (in Angstrom), charge = 0, multiplicity = 1:

       Center              X                  Y                   Z               Mass
    ------------   -----------------  -----------------  -----------------  -----------------
         O            1.286394808942     1.576468347614     0.028782440299    15.994914619570
         N           -1.438196191058     0.963892347614     0.028789440299    14.003074004430
         N            1.788816808942    -0.680777652386     0.028786440299    14.003074004430
         N           -1.003822191058    -1.222868652386     0.028786440299    14.003074004430
         C           -0.476111091058     0.002982647614    -0.271208559701    12.000000000000
         C            0.950465808942     0.381854347614     0.028786440299    12.000000000000
         C           -2.654700191058     0.334904347614     0.028785440299    12.000000000000
         C           -2.359806191058    -1.017431652386     0.028783440299    12.000000000000
         C            3.229684808942    -0.534143652386     0.028786440299    12.000000000000
         H           -1.229598191058     1.957074347614     0.028795440299     1.007825032230
         H            1.354012808942    -1.597659652386     0.028793440299     1.007825032230
         H           -3.589182191058     0.876665347614     0.028785440299     1.007825032230
         H           -3.056002191058    -1.845567652386     0.028779440299     1.007825032230
         H            3.445514808942     0.534192347614     0.028779440299     1.007825032230
         H            3.669277808942    -0.991319652386    -0.862238559701     1.007825032230
         H            3.669273808942    -0.991306652386     0.919819440299     1.007825032230

  Basis Set: AUG-CC-PVTZ
    Blend: AUG-CC-PVTZ
  Basis Set: (AUG-CC-PVTZ AUX)
    Blend: AUG-CC-PVTZ-JKFIT
	 Reference Energy          =    -431.7651515481974229 [Eh]
	 Singles Energy            =      -0.0000000000000000 [Eh]
	 Same-Spin Energy          =      -0.4578017100912075 [Eh]
	 Opposite-Spin Energy      =      -1.3845385222964985 [Eh]
	 Correlation Energy        =      -1.8423402323877061 [Eh]
	 Total Energy              =    -433.6074917805851214 [Eh]

	 ================> DF-SCS-MP2 Energies <==================
	-----------------------------------------------------------
	 SCS Same-Spin Scale       =       0.3333333333333333 [-]
	 SCS Opposite-Spin Scale   =       1.2000000000000000 [-]
	 SCS Same-Spin Energy      =      -0.1526005700304025 [Eh]
	 SCS Opposite-Spin Energy  =      -1.6614462267557981 [Eh]
	 SCS Correlation Energy    =      -1.8140467967862006 [Eh]
	 SCS Total Energy          =    -433.5791983449836380 [Eh]
	-----------------------------------------------------------

  Dipole Moment: [D]
     X:    -1.1911      Y:    -0.4459      Z:    -0.0598     Total:     1.2733

*** Psi4 exiting successfully. Buy a developer a beer!
