                               Psi4 1.3.2 release

  ==> Input File <==

--------------------------------------------------------------------------
#psi4
#
memory 32 gb

molecule  {
0 1
  O        1.2542850     1.5918540    -0.0000040
  N       -1.4703060     0.9792780     0.0000030
  N        1.7567070    -0.6653920     0.0000000
  N       -1.0359320    -1.2074830     0.0000000
  C       -0.5082200     0.0183690     0.0000050
  C        0.9183563     0.3972396     0.3000000
  C       -2.6868100     0.3502900    -0.0000010
  C       -2.3919160    -1.0020460    -0.0000030
  C        3.1975750    -0.5187580     0.0000000
  H       -1.2617080     1.9724600     0.0000090
  H        1.3219030    -1.5822740     0.0000070
  H       -3.6212920     0.8920510    -0.0000010
  H       -3.0881120    -1.8301820    -0.0000070
  H        3.4134050     0.5495780    -0.0000070
  H        3.6371680    -0.9759340    -0.8910250
  H        3.6371640    -0.9759210     0.8910330
units angstrom
no_reorient  #important for SAPT in psi4, default
symmetry c1  #important for SAPT in psi4, default
}

set PROPERTIES_ORIGIN ["COM"]
properties('MP2/aug-cc-pvtz', properties = ['dipole'])
--------------------------------------------------------------------------

    Molecular point group: c1
  Charge       = 0
  Multiplicity = 1
  Basis Set: AUG-CC-PVTZ
    Blend: AUG-CC-PVTZ
  Basis Set: (AUG-CC-PVTZ AUX)
    Blend: AUG-CC-PVTZ-JKFIT

    Orbital Energies [Eh]
    ---------------------

    Doubly Occupied:

       1A    -20.534434     2A    -15.634326     3A    -15.595711
       4A    -15.569486     5A    -11.378390     6A    -11.314912
       7A    -11.279056     8A    -11.262108     9A    -11.260365
      10A     -1.375008    11A     -1.342883    12A     -1.229708
      13A     -1.179283    14A     -1.034179    15A     -0.957922
      16A     -0.854739    17A     -0.823739    18A     -0.796446
      19A     -0.764118    20A     -0.667900    21A     -0.644800
      22A     -0.633393    23A     -0.612815    24A     -0.608974
      25A     -0.594160    26A     -0.577515    27A     -0.548405
      28A     -0.529057    29A     -0.463378    30A     -0.439938
      31A     -0.416769    32A     -0.390353    33A     -0.326456

  @DF-RHF Final Energy:  -431.75369110608329

   => Energetics <=

    Nuclear Repulsion Energy =            431.1037552505312078
    One-Electron Energy =               -1442.4334437842760508
    Two-Electron Energy =                 579.5759974276616049
    Total Energy =                       -431.7536911060832381
  Basis Set: (AUG-CC-PVTZ AUX)
    Blend: AUG-CC-PVTZ-RI
    Molecular point group: c1

    Geometry (in Angstrom), charge = 0, multiplicity = 1:

       Center              X                  Y                   Z               Mass
    ------------   -----------------  -----------------  -----------------  -----------------
         O            1.286394693796     1.576468318827    -0.028790425905    15.994914619570
         N           -1.438196306204     0.963892318827    -0.028783425905    14.003074004430
         N            1.788816693796    -0.680777681173    -0.028786425905    14.003074004430
         N           -1.003822306204    -1.222868681173    -0.028786425905    14.003074004430
         C           -0.476110306204     0.002983318827    -0.028781425905    12.000000000000
         C            0.950465993796     0.381853918827     0.271213574095    12.000000000000
         C           -2.654700306204     0.334904318827    -0.028787425905    12.000000000000
         C           -2.359806306204    -1.017431681173    -0.028789425905    12.000000000000
         C            3.229684693796    -0.534143681173    -0.028786425905    12.000000000000
         H           -1.229598306204     1.957074318827    -0.028777425905     1.007825032230
         H            1.354012693796    -1.597659681173    -0.028779425905     1.007825032230
         H           -3.589182306204     0.876665318827    -0.028787425905     1.007825032230
         H           -3.056002306204    -1.845567681173    -0.028793425905     1.007825032230
         H            3.445514693796     0.534192318827    -0.028793425905     1.007825032230
         H            3.669277693796    -0.991319681173    -0.919811425905     1.007825032230
         H            3.669273693796    -0.991306681173     0.862246574095     1.007825032230

  Basis Set: AUG-CC-PVTZ
    Blend: AUG-CC-PVTZ
  Basis Set: (AUG-CC-PVTZ AUX)
    Blend: AUG-CC-PVTZ-JKFIT
	 Reference Energy          =    -431.7536911060832949 [Eh]
	 Singles Energy            =      -0.0000000000000000 [Eh]
	 Same-Spin Energy          =      -0.4583467307645473 [Eh]
	 Opposite-Spin Energy      =      -1.3865547697423199 [Eh]
	 Correlation Energy        =      -1.8449015005068672 [Eh]
	 Total Energy              =    -433.5985926065901594 [Eh]

	 ================> DF-SCS-MP2 Energies <==================
	-----------------------------------------------------------
	 SCS Same-Spin Scale       =       0.3333333333333333 [-]
	 SCS Opposite-Spin Scale   =       1.2000000000000000 [-]
	 SCS Same-Spin Energy      =      -0.1527822435881824 [Eh]
	 SCS Opposite-Spin Energy  =      -1.6638657236907839 [Eh]
	 SCS Correlation Energy    =      -1.8166479672789664 [Eh]
	 SCS Total Energy          =    -433.5703390733622768 [Eh]
	-----------------------------------------------------------

  Dipole Moment: [D]
     X:    -0.8944      Y:    -0.3502      Z:     0.2552     Total:     0.9938

*** Psi4 exiting successfully. Buy a developer a beer!
