                               Psi4 1.3.2 release

  ==> Input File <==

--------------------------------------------------------------------------
#psi4
#
memory 32 gb

molecule  {
0 1
  O        1.2542850     1.5918540    -0.0000040
  N       -1.4703060     0.9792780     0.0000030
  N        1.7567070    -0.6653920     0.0000000
  N       -1.0359320    -1.2074830     0.0000000
  C       -0.5082204     0.0183686    -0.1499950
  C        0.9183560     0.3972400     0.0000000
  C       -2.6868100     0.3502900    -0.0000010
  C       -2.3919160    -1.0020460    -0.0000030
  C        3.1975750    -0.5187580     0.0000000
  H       -1.2617080     1.9724600     0.0000090
  H        1.3219030    -1.5822740     0.0000070
  H       -3.6212920     0.8920510    -0.0000010
  H       -3.0881120    -1.8301820    -0.0000070
  H        3.4134050     0.5495780    -0.0000070
  H        3.6371680    -0.9759340    -0.8910250
  H        3.6371640    -0.9759210     0.8910330
units angstrom
no_reorient  #important for SAPT in psi4, default
symmetry c1  #important for SAPT in psi4, default
}

set PROPERTIES_ORIGIN ["COM"]
properties('MP2/aug-cc-pvtz', properties = ['dipole'])
--------------------------------------------------------------------------

    Molecular point group: c1
  Charge       = 0
  Multiplicity = 1
  Basis Set: AUG-CC-PVTZ
    Blend: AUG-CC-PVTZ
  Basis Set: (AUG-CC-PVTZ AUX)
    Blend: AUG-CC-PVTZ-JKFIT

    Orbital Energies [Eh]
    ---------------------

    Doubly Occupied:

       1A    -20.527063     2A    -15.636181     3A    -15.591803
       4A    -15.573264     5A    -11.366348     6A    -11.311248
       7A    -11.281184     8A    -11.262547     9A    -11.261293
      10A     -1.385659    11A     -1.346069    12A     -1.239090
      13A     -1.178669    14A     -1.037359    15A     -0.961344
      16A     -0.857595    17A     -0.823439    18A     -0.795209
      19A     -0.771651    20A     -0.668634    21A     -0.650438
      22A     -0.637714    23A     -0.614539    24A     -0.606304
      25A     -0.595976    26A     -0.584913    27A     -0.550114
      28A     -0.535131    29A     -0.465333    30A     -0.441552
      31A     -0.416045    32A     -0.394647    33A     -0.329109

  @DF-RHF Final Energy:  -431.78889518521856

   => Energetics <=

    Nuclear Repulsion Energy =            432.2243474347521897
    One-Electron Energy =               -1444.6315579255260673
    Two-Electron Energy =                 580.6183153055552566
    Total Energy =                       -431.7888951852186210
  Basis Set: (AUG-CC-PVTZ AUX)
    Blend: AUG-CC-PVTZ-RI
    Molecular point group: c1

    Geometry (in Angstrom), charge = 0, multiplicity = 1:

       Center              X                  Y                   Z               Mass
    ------------   -----------------  -----------------  -----------------  -----------------
         O            1.286394760964     1.576468318827     0.014389223748    15.994914619570
         N           -1.438196239036     0.963892318827     0.014396223748    14.003074004430
         N            1.788816760964    -0.680777681173     0.014393223748    14.003074004430
         N           -1.003822239036    -1.222868681173     0.014393223748    14.003074004430
         C           -0.476110639036     0.002982918827    -0.135601776252    12.000000000000
         C            0.950465760964     0.381854318827     0.014393223748    12.000000000000
         C           -2.654700239036     0.334904318827     0.014392223748    12.000000000000
         C           -2.359806239036    -1.017431681173     0.014390223748    12.000000000000
         C            3.229684760964    -0.534143681173     0.014393223748    12.000000000000
         H           -1.229598239036     1.957074318827     0.014402223748     1.007825032230
         H            1.354012760964    -1.597659681173     0.014400223748     1.007825032230
         H           -3.589182239036     0.876665318827     0.014392223748     1.007825032230
         H           -3.056002239036    -1.845567681173     0.014386223748     1.007825032230
         H            3.445514760964     0.534192318827     0.014386223748     1.007825032230
         H            3.669277760964    -0.991319681173    -0.876631776252     1.007825032230
         H            3.669273760964    -0.991306681173     0.905426223748     1.007825032230

  Basis Set: AUG-CC-PVTZ
    Blend: AUG-CC-PVTZ
  Basis Set: (AUG-CC-PVTZ AUX)
    Blend: AUG-CC-PVTZ-JKFIT
	 Reference Energy          =    -431.7888951852185642 [Eh]
	 Singles Energy            =      -0.0000000000000000 [Eh]
	 Same-Spin Energy          =      -0.4562582435412645 [Eh]
	 Opposite-Spin Energy      =      -1.3807388564530891 [Eh]
	 Correlation Energy        =      -1.8369970999943537 [Eh]
	 Total Energy              =    -433.6258922852128990 [Eh]

	 ================> DF-SCS-MP2 Energies <==================
	-----------------------------------------------------------
	 SCS Same-Spin Scale       =       0.3333333333333333 [-]
	 SCS Opposite-Spin Scale   =       1.2000000000000000 [-]
	 SCS Same-Spin Energy      =      -0.1520860811804215 [Eh]
	 SCS Opposite-Spin Energy  =      -1.6568866277437069 [Eh]
	 SCS Correlation Energy    =      -1.8089727089241283 [Eh]
	 SCS Total Energy          =    -433.5978678941426665 [Eh]
	-----------------------------------------------------------

  Dipole Moment: [D]
     X:    -1.0341      Y:    -0.4119      Z:    -0.0418     Total:     1.1139

*** Psi4 exiting successfully. Buy a developer a beer!
