                               Psi4 1.3.2 release

  ==> Input File <==

--------------------------------------------------------------------------
#psi4
#
memory 32 gb

molecule  {
0 1
  O        1.2542850     1.5918540    -0.0000040
  N       -1.4703060     0.9792780     0.0000030
  N        1.7567070    -0.6653920     0.0000000
  N       -1.0359320    -1.2074830     0.0000000
  C       -0.5082200     0.0183690     0.0000050
  C        0.9183560     0.3972400     0.0000000
  C       -2.6868100     0.3502900    -0.0000010
  C       -2.3919160    -1.0020460    -0.0000030
  C        3.1975750    -0.5187580     0.0000000
  H       -1.2617080     1.9724600     0.0000090
  H        1.3219030    -1.5822740     0.0000070
  H       -3.6212920     0.8920510    -0.0000010
  H       -3.0881124    -1.8301823     0.1499930
  H        3.4134050     0.5495780    -0.0000070
  H        3.6371680    -0.9759340    -0.8910250
  H        3.6371640    -0.9759210     0.8910330
units angstrom
no_reorient  #important for SAPT in psi4, default
symmetry c1  #important for SAPT in psi4, default
}

set PROPERTIES_ORIGIN ["COM"]
properties('MP2/aug-cc-pvtz', properties = ['dipole'])
--------------------------------------------------------------------------

    Molecular point group: c1
  Charge       = 0
  Multiplicity = 1
  Basis Set: AUG-CC-PVTZ
    Blend: AUG-CC-PVTZ
  Basis Set: (AUG-CC-PVTZ AUX)
    Blend: AUG-CC-PVTZ-JKFIT

    Orbital Energies [Eh]
    ---------------------

    Doubly Occupied:

       1A    -20.527801     2A    -15.635824     3A    -15.592620
       4A    -15.571061     5A    -11.366592     6A    -11.310568
       7A    -11.280003     8A    -11.263024     9A    -11.261498
      10A     -1.386982    11A     -1.348080    12A     -1.239989
      13A     -1.180362    14A     -1.038472    15A     -0.962094
      16A     -0.858720    17A     -0.823602    18A     -0.797550
      19A     -0.772813    20A     -0.668823    21A     -0.651045
      22A     -0.639111    23A     -0.613737    24A     -0.608465
      25A     -0.594672    26A     -0.585437    27A     -0.550588
      28A     -0.536676    29A     -0.464491    30A     -0.442530
      31A     -0.418000    32A     -0.395368    33A     -0.328775

  @DF-RHF Final Energy:  -431.79550799025753

   => Energetics <=

    Nuclear Repulsion Energy =            432.5500124760388303
    One-Electron Energy =               -1445.2602955896020376
    Two-Electron Energy =                 580.9147751233057306
    Total Energy =                       -431.7955079902575335
  Basis Set: (AUG-CC-PVTZ AUX)
    Blend: AUG-CC-PVTZ-RI
    Molecular point group: c1

    Geometry (in Angstrom), charge = 0, multiplicity = 1:

       Center              X                  Y                   Z               Mass
    ------------   -----------------  -----------------  -----------------  -----------------
         O            1.286394725806     1.576468282863    -0.001212813131    15.994914619570
         N           -1.438196274194     0.963892282863    -0.001205813131    14.003074004430
         N            1.788816725806    -0.680777717137    -0.001208813131    14.003074004430
         N           -1.003822274194    -1.222868717137    -0.001208813131    14.003074004430
         C           -0.476110274194     0.002983282863    -0.001203813131    12.000000000000
         C            0.950465725806     0.381854282863    -0.001208813131    12.000000000000
         C           -2.654700274194     0.334904282863    -0.001209813131    12.000000000000
         C           -2.359806274194    -1.017431717137    -0.001211813131    12.000000000000
         C            3.229684725806    -0.534143717137    -0.001208813131    12.000000000000
         H           -1.229598274194     1.957074282863    -0.001199813131     1.007825032230
         H            1.354012725806    -1.597659717137    -0.001201813131     1.007825032230
         H           -3.589182274194     0.876665282863    -0.001209813131     1.007825032230
         H           -3.056002674194    -1.845568017137     0.148784186869     1.007825032230
         H            3.445514725806     0.534192282863    -0.001215813131     1.007825032230
         H            3.669277725806    -0.991319717137    -0.892233813131     1.007825032230
         H            3.669273725806    -0.991306717137     0.889824186869     1.007825032230

  Basis Set: AUG-CC-PVTZ
    Blend: AUG-CC-PVTZ
  Basis Set: (AUG-CC-PVTZ AUX)
    Blend: AUG-CC-PVTZ-JKFIT
	 Reference Energy          =    -431.7955079902575335 [Eh]
	 Singles Energy            =      -0.0000000000000000 [Eh]
	 Same-Spin Energy          =      -0.4557863138524367 [Eh]
	 Opposite-Spin Energy      =      -1.3797694153762170 [Eh]
	 Correlation Energy        =      -1.8355557292286537 [Eh]
	 Total Energy              =    -433.6310637194861783 [Eh]

	 ================> DF-SCS-MP2 Energies <==================
	-----------------------------------------------------------
	 SCS Same-Spin Scale       =       0.3333333333333333 [-]
	 SCS Opposite-Spin Scale   =       1.2000000000000000 [-]
	 SCS Same-Spin Energy      =      -0.1519287712841456 [Eh]
	 SCS Opposite-Spin Energy  =      -1.6557232984514603 [Eh]
	 SCS Correlation Energy    =      -1.8076520697356058 [Eh]
	 SCS Total Energy          =    -433.6031600599931153 [Eh]
	-----------------------------------------------------------

  Dipole Moment: [D]
     X:    -0.9605      Y:    -0.3845      Z:     0.1083     Total:     1.0403

*** Psi4 exiting successfully. Buy a developer a beer!
