                               Psi4 1.3.2 release

  ==> Input File <==

--------------------------------------------------------------------------
#psi4
#
memory 32 gb

molecule  {
0 1
  O        1.2542850     1.5918540    -0.0000040
  N       -1.4703060     0.9792780     0.0000030
  N        1.7567070    -0.6653920     0.0000000
  N       -1.0359320    -1.2074830     0.0000000
  C       -0.5082200     0.0183690     0.0000050
  C        0.9183560     0.3972399     0.0500000
  C       -2.6868100     0.3502900    -0.0000010
  C       -2.3919160    -1.0020460    -0.0000030
  C        3.1975750    -0.5187580     0.0000000
  H       -1.2617080     1.9724600     0.0000090
  H        1.3219030    -1.5822740     0.0000070
  H       -3.6212920     0.8920510    -0.0000010
  H       -3.0881120    -1.8301820    -0.0000070
  H        3.4134050     0.5495780    -0.0000070
  H        3.6371680    -0.9759340    -0.8910250
  H        3.6371640    -0.9759210     0.8910330
units angstrom
no_reorient  #important for SAPT in psi4, default
symmetry c1  #important for SAPT in psi4, default
}

set PROPERTIES_ORIGIN ["COM"]
properties('MP2/aug-cc-pvtz', properties = ['dipole'])
--------------------------------------------------------------------------

    Molecular point group: c1
  Charge       = 0
  Multiplicity = 1
  Basis Set: AUG-CC-PVTZ
    Blend: AUG-CC-PVTZ
  Basis Set: (AUG-CC-PVTZ AUX)
    Blend: AUG-CC-PVTZ-JKFIT

    Orbital Energies [Eh]
    ---------------------

    Doubly Occupied:

       1A    -20.527888     2A    -15.635596     3A    -15.592642
       4A    -15.570925     5A    -11.366866     6A    -11.310550
       7A    -11.279678     8A    -11.262949     9A    -11.260678
      10A     -1.386499    11A     -1.347806    12A     -1.239609
      13A     -1.180240    14A     -1.038376    15A     -0.961953
      16A     -0.858501    17A     -0.824859    18A     -0.797367
      19A     -0.772530    20A     -0.668732    21A     -0.650835
      22A     -0.638717    23A     -0.613815    24A     -0.608184
      25A     -0.596352    26A     -0.586094    27A     -0.550485
      28A     -0.536444    29A     -0.464429    30A     -0.442354
      31A     -0.418043    32A     -0.395190    33A     -0.328687

  @DF-RHF Final Energy:  -431.79569055118822

   => Energetics <=

    Nuclear Repulsion Energy =            432.5466229338541666
    One-Electron Energy =               -1445.2568812421577604
    Two-Electron Energy =                 580.9145677571153783
    Total Energy =                       -431.7956905511881587
  Basis Set: (AUG-CC-PVTZ AUX)
    Blend: AUG-CC-PVTZ-RI
    Molecular point group: c1

    Geometry (in Angstrom), charge = 0, multiplicity = 1:

       Center              X                  Y                   Z               Mass
    ------------   -----------------  -----------------  -----------------  -----------------
         O            1.286394722583     1.576468290041    -0.004801731654    15.994914619570
         N           -1.438196277417     0.963892290041    -0.004794731654    14.003074004430
         N            1.788816722583    -0.680777709959    -0.004797731654    14.003074004430
         N           -1.003822277417    -1.222868709959    -0.004797731654    14.003074004430
         C           -0.476110277417     0.002983290041    -0.004792731654    12.000000000000
         C            0.950465722583     0.381854190041     0.045202268346    12.000000000000
         C           -2.654700277417     0.334904290041    -0.004798731654    12.000000000000
         C           -2.359806277417    -1.017431709959    -0.004800731654    12.000000000000
         C            3.229684722583    -0.534143709959    -0.004797731654    12.000000000000
         H           -1.229598277417     1.957074290041    -0.004788731654     1.007825032230
         H            1.354012722583    -1.597659709959    -0.004790731654     1.007825032230
         H           -3.589182277417     0.876665290041    -0.004798731654     1.007825032230
         H           -3.056002277417    -1.845567709959    -0.004804731654     1.007825032230
         H            3.445514722583     0.534192290041    -0.004804731654     1.007825032230
         H            3.669277722583    -0.991319709959    -0.895822731654     1.007825032230
         H            3.669273722583    -0.991306709959     0.886235268346     1.007825032230

  Basis Set: AUG-CC-PVTZ
    Blend: AUG-CC-PVTZ
  Basis Set: (AUG-CC-PVTZ AUX)
    Blend: AUG-CC-PVTZ-JKFIT
	 Reference Energy          =    -431.7956905511882155 [Eh]
	 Singles Energy            =      -0.0000000000000000 [Eh]
	 Same-Spin Energy          =      -0.4557906240434203 [Eh]
	 Opposite-Spin Energy      =      -1.3797781596761547 [Eh]
	 Correlation Energy        =      -1.8355687837195749 [Eh]
	 Total Energy              =    -433.6312593349077815 [Eh]

	 ================> DF-SCS-MP2 Energies <==================
	-----------------------------------------------------------
	 SCS Same-Spin Scale       =       0.3333333333333333 [-]
	 SCS Opposite-Spin Scale   =       1.2000000000000000 [-]
	 SCS Same-Spin Energy      =      -0.1519302080144734 [Eh]
	 SCS Opposite-Spin Energy  =      -1.6557337916113857 [Eh]
	 SCS Correlation Energy    =      -1.8076639996258592 [Eh]
	 SCS Total Energy          =    -433.6033545508140605 [Eh]
	-----------------------------------------------------------

  Dipole Moment: [D]
     X:    -0.9744      Y:    -0.3979      Z:     0.0480     Total:     1.0536

*** Psi4 exiting successfully. Buy a developer a beer!
