                               Psi4 1.4a3.dev225

  ==> Input File <==

--------------------------------------------------------------------------
#psi4
#
memory 32 gb

molecule  {
0 1
  F        0.8801740    -2.1570240    -0.2741980
  O        1.6528875     0.5250555    -0.4367127
  O       -0.2367630     2.4625430    -0.1451660
  C        0.3476580     0.1463710    -0.1857710
  C       -0.6195240     1.1555560    -0.0645140
  C       -0.0605370    -1.1855140    -0.1277800
  C       -1.9594950     0.8272070     0.1461580
  C       -1.3851280    -1.5362190     0.0940810
  C       -2.3313710    -0.5151580     0.2215980
  C        2.5704260     0.1676860     0.6054290
  H       -2.6878360     1.6271100     0.2387920
  H       -1.6577150    -2.5857400     0.1384780
  H       -3.3736110    -0.7729470     0.3882060
  H        2.6849170    -0.9163680     0.6377720
  H        2.2243420     0.5379400     1.5755890
  H        3.5186220     0.6362700     0.3424670
  H        0.7214210     2.4415090    -0.3472440
units angstrom
no_reorient  #important for SAPT in psi4, default
symmetry c1  #important for SAPT in psi4, default
}

set PROPERTIES_ORIGIN ["COM"]
properties('MP2/aug-cc-pvtz', properties = ['dipole'])
--------------------------------------------------------------------------

    Molecular point group: c1
  Charge       = 0
  Multiplicity = 1
  Basis Set: AUG-CC-PVTZ
    Blend: AUG-CC-PVTZ
  Basis Set: (AUG-CC-PVTZ AUX)
    Blend: AUG-CC-PVTZ-JKFIT

    Orbital Energies [Eh]
    ---------------------

    Doubly Occupied:

       1A    -26.318228     2A    -20.597930     3A    -20.596583
       4A    -11.339177     5A    -11.316214     6A    -11.303938
       7A    -11.290134     8A    -11.255471     9A    -11.243989
      10A    -11.240274    11A     -1.630456    12A     -1.427304
      13A     -1.396191    14A     -1.159300    15A     -1.030827
      16A     -1.022052    17A     -0.946399    18A     -0.854104
      19A     -0.849815    20A     -0.759877    21A     -0.747638
      22A     -0.711963    23A     -0.700302    24A     -0.676943
      25A     -0.653843    26A     -0.646502    27A     -0.635720
      28A     -0.623351    29A     -0.590614    30A     -0.574172
      31A     -0.553244    32A     -0.541176    33A     -0.519298
      34A     -0.490014    35A     -0.471688    36A     -0.343747
      37A     -0.325742

  @DF-RHF Final Energy:  -518.47953316631731

   => Energetics <=

    Nuclear Repulsion Energy =            529.0941161685074121
    One-Electron Energy =               -1760.3788597549362294
    Two-Electron Energy =                 712.8052104201113934
    Total Energy =                       -518.4795331663173101
  Basis Set: (AUG-CC-PVTZ AUX)
    Blend: AUG-CC-PVTZ-RI
    Molecular point group: c1

    Geometry (in Angstrom), charge = 0, multiplicity = 1:

       Center              X                  Y                   Z               Mass
    ------------   -----------------  -----------------  -----------------  -----------------
         F            0.883283129708    -2.132389673719    -0.251326897686    18.998403162730
         O            1.655996629708     0.549689826281    -0.413841597686    15.994914619570
         O           -0.233653870292     2.487177326281    -0.122294897686    15.994914619570
         C            0.350767129708     0.171005326281    -0.162899897686    12.000000000000
         C           -0.616414870292     1.180190326281    -0.041642897686    12.000000000000
         C           -0.057427870292    -1.160879673719    -0.104908897686    12.000000000000
         C           -1.956385870292     0.851841326281     0.169029102314    12.000000000000
         C           -1.382018870292    -1.511584673719     0.116952102314    12.000000000000
         C           -2.328261870292    -0.490523673719     0.244469102314    12.000000000000
         C            2.573535129708     0.192320326281     0.628300102314    12.000000000000
         H           -2.684726870292     1.651744326281     0.261663102314     1.007825032230
         H           -1.654605870292    -2.561105673719     0.161349102314     1.007825032230
         H           -3.370501870292    -0.748312673719     0.411077102314     1.007825032230
         H            2.688026129708    -0.891733673719     0.660643102314     1.007825032230
         H            2.227451129708     0.562574326281     1.598460102314     1.007825032230
         H            3.521731129708     0.660904326281     0.365338102314     1.007825032230
         H            0.724530129708     2.466143326281    -0.324372897686     1.007825032230

  Basis Set: AUG-CC-PVTZ
    Blend: AUG-CC-PVTZ
  Basis Set: (AUG-CC-PVTZ AUX)
    Blend: AUG-CC-PVTZ-JKFIT
	 Reference Energy          =    -518.4795331663173101 [Eh]
	 Singles Energy            =      -0.0000000000000000 [Eh]
	 Same-Spin Energy          =      -0.5087802482530912 [Eh]
	 Opposite-Spin Energy      =      -1.5380394855645854 [Eh]
	 Correlation Energy        =      -2.0468197338176766 [Eh]
	 Total Energy              =    -520.5263529001349525 [Eh]

	 ================> DF-SCS-MP2 Energies <==================
	-----------------------------------------------------------
	 SCS Same-Spin Scale       =       0.3333333333333333 [-]
	 SCS Opposite-Spin Scale   =       1.2000000000000000 [-]
	 SCS Same-Spin Energy      =      -0.1695934160843637 [Eh]
	 SCS Opposite-Spin Energy  =      -1.8456473826775024 [Eh]
	 SCS Correlation Energy    =      -2.0152407987618659 [Eh]
	 SCS Total Energy          =    -520.4947739650791618 [Eh]
	-----------------------------------------------------------

  Dipole Moment: [D]
     X:     0.5995      Y:    -0.1273      Z:     1.1620     Total:     1.3137

*** Psi4 exiting successfully. Buy a developer a beer!
