                               Psi4 1.4a3.dev225

  ==> Input File <==

--------------------------------------------------------------------------
#psi4
#
memory 32 gb

molecule  {
0 1
  F        0.8801740    -2.1570240    -0.2741980
  O        1.6462780     0.5481910    -0.4350190
  O       -0.2367630     2.4625430    -0.1451660
  C        0.3476580     0.1463710    -0.1857710
  C       -0.6195240     1.1555560    -0.0645140
  C       -0.0605370    -1.1855140    -0.1277800
  C       -1.9594950     0.8272070     0.1461580
  C       -1.3851280    -1.5362190     0.0940810
  C       -2.3313710    -0.5151580     0.2215980
  C        2.5704260     0.1676860     0.6054290
  H       -2.6878360     1.6271100     0.2387920
  H       -1.6577150    -2.5857400     0.1384780
  H       -3.3736110    -0.7729470     0.3882060
  H        2.6796678    -0.8666664     0.6362891
  H        2.2243420     0.5379400     1.5755890
  H        3.5186220     0.6362700     0.3424670
  H        0.7214210     2.4415090    -0.3472440
units angstrom
no_reorient  #important for SAPT in psi4, default
symmetry c1  #important for SAPT in psi4, default
}

set PROPERTIES_ORIGIN ["COM"]
properties('MP2/aug-cc-pvtz', properties = ['dipole'])
--------------------------------------------------------------------------

    Molecular point group: c1
  Charge       = 0
  Multiplicity = 1
  Basis Set: AUG-CC-PVTZ
    Blend: AUG-CC-PVTZ
  Basis Set: (AUG-CC-PVTZ AUX)
    Blend: AUG-CC-PVTZ-JKFIT

    Orbital Energies [Eh]
    ---------------------

    Doubly Occupied:

       1A    -26.318347     2A    -20.598177     3A    -20.595568
       4A    -11.339263     5A    -11.315259     6A    -11.303592
       7A    -11.285778     8A    -11.255044     9A    -11.243880
      10A    -11.239765    11A     -1.630562    12A     -1.426431
      13A     -1.394289    14A     -1.158892    15A     -1.030545
      16A     -1.021820    17A     -0.951697    18A     -0.853714
      19A     -0.850244    20A     -0.759546    21A     -0.747446
      22A     -0.712100    23A     -0.700531    24A     -0.676851
      25A     -0.656017    26A     -0.647913    27A     -0.635123
      28A     -0.623480    29A     -0.589739    30A     -0.573591
      31A     -0.554882    32A     -0.541048    33A     -0.519854
      34A     -0.491424    35A     -0.474806    36A     -0.343380
      37A     -0.325030

  @DF-RHF Final Energy:  -518.47831613167807

   => Energetics <=

    Nuclear Repulsion Energy =            529.1989415405359978
    One-Electron Energy =               -1760.5832591787054753
    Two-Electron Energy =                 712.9060015064914069
    Total Energy =                       -518.4783161316780706
  Basis Set: (AUG-CC-PVTZ AUX)
    Blend: AUG-CC-PVTZ-RI
    Molecular point group: c1

    Geometry (in Angstrom), charge = 0, multiplicity = 1:

       Center              X                  Y                   Z               Mass
    ------------   -----------------  -----------------  -----------------  -----------------
         F            0.884064644161    -2.135347516352    -0.251507097215    18.998403162730
         O            1.650168644161     0.569867483648    -0.412328097215    15.994914619570
         O           -0.232872355839     2.484219483648    -0.122475097215    15.994914619570
         C            0.351548644161     0.168047483648    -0.163080097215    12.000000000000
         C           -0.615633355839     1.177232483648    -0.041823097215    12.000000000000
         C           -0.056646355839    -1.163837516352    -0.105089097215    12.000000000000
         C           -1.955604355839     0.848883483648     0.168848902785    12.000000000000
         C           -1.381237355839    -1.514542516352     0.116771902785    12.000000000000
         C           -2.327480355839    -0.493481516352     0.244288902785    12.000000000000
         C            2.574316644161     0.189362483648     0.628119902785    12.000000000000
         H           -2.683945355839     1.648786483648     0.261482902785     1.007825032230
         H           -1.653824355839    -2.564063516352     0.161168902785     1.007825032230
         H           -3.369720355839    -0.751270516352     0.410896902785     1.007825032230
         H            2.683558444161    -0.844989916352     0.658980002785     1.007825032230
         H            2.228232644161     0.559616483648     1.598279902785     1.007825032230
         H            3.522512644161     0.657946483648     0.365157902785     1.007825032230
         H            0.725311644161     2.463185483648    -0.324553097215     1.007825032230

  Basis Set: AUG-CC-PVTZ
    Blend: AUG-CC-PVTZ
  Basis Set: (AUG-CC-PVTZ AUX)
    Blend: AUG-CC-PVTZ-JKFIT
	 Reference Energy          =    -518.4783161316780706 [Eh]
	 Singles Energy            =      -0.0000000000000000 [Eh]
	 Same-Spin Energy          =      -0.5088161613751239 [Eh]
	 Opposite-Spin Energy      =      -1.5379715896943911 [Eh]
	 Correlation Energy        =      -2.0467877510695152 [Eh]
	 Total Energy              =    -520.5251038827475440 [Eh]

	 ================> DF-SCS-MP2 Energies <==================
	-----------------------------------------------------------
	 SCS Same-Spin Scale       =       0.3333333333333333 [-]
	 SCS Opposite-Spin Scale   =       1.2000000000000000 [-]
	 SCS Same-Spin Energy      =      -0.1696053871250413 [Eh]
	 SCS Opposite-Spin Energy  =      -1.8455659076332691 [Eh]
	 SCS Correlation Energy    =      -2.0151712947583102 [Eh]
	 SCS Total Energy          =    -520.4934874264363316 [Eh]
	-----------------------------------------------------------

  Dipole Moment: [D]
     X:     0.6672      Y:    -0.1772      Z:     1.1783     Total:     1.3656

*** Psi4 exiting successfully. Buy a developer a beer!
