                               Psi4 1.4a3.dev225

  ==> Input File <==

--------------------------------------------------------------------------
#psi4
#
memory 32 gb

molecule  {
0 1
  F        0.8801740    -2.1570240    -0.2741980
  O        1.6462780     0.5481910    -0.4350190
  O       -0.2367630     2.4625430    -0.1451660
  C        0.3476580     0.1463710    -0.1857710
  C       -0.6195240     1.1555560    -0.0645140
  C       -0.0490775    -1.2325847    -0.1284790
  C       -1.9594950     0.8272070     0.1461580
  C       -1.3851280    -1.5362190     0.0940810
  C       -2.3313710    -0.5151580     0.2215980
  C        2.5704260     0.1676860     0.6054290
  H       -2.6878360     1.6271100     0.2387920
  H       -1.6577150    -2.5857400     0.1384780
  H       -3.3736110    -0.7729470     0.3882060
  H        2.6849170    -0.9163680     0.6377720
  H        2.2243420     0.5379400     1.5755890
  H        3.5186220     0.6362700     0.3424670
  H        0.7214210     2.4415090    -0.3472440
units angstrom
no_reorient  #important for SAPT in psi4, default
symmetry c1  #important for SAPT in psi4, default
}

set PROPERTIES_ORIGIN ["COM"]
properties('MP2/aug-cc-pvtz', properties = ['dipole'])
--------------------------------------------------------------------------

    Molecular point group: c1
  Charge       = 0
  Multiplicity = 1
  Basis Set: AUG-CC-PVTZ
    Blend: AUG-CC-PVTZ
  Basis Set: (AUG-CC-PVTZ AUX)
    Blend: AUG-CC-PVTZ-JKFIT

    Orbital Energies [Eh]
    ---------------------

    Doubly Occupied:

       1A    -26.330301     2A    -20.597173     3A    -20.593838
       4A    -11.343135     5A    -11.313072     6A    -11.304096
       7A    -11.291090     8A    -11.253980     9A    -11.242372
      10A    -11.238918    11A     -1.656276    12A     -1.424739
      13A     -1.392749    14A     -1.152910    15A     -1.024600
      16A     -1.021102    17A     -0.945408    18A     -0.856770
      19A     -0.850211    20A     -0.761049    21A     -0.758131
      22A     -0.720071    23A     -0.710272    24A     -0.680977
      25A     -0.653175    26A     -0.648457    27A     -0.632460
      28A     -0.619368    29A     -0.588099    30A     -0.572840
      31A     -0.551646    32A     -0.538315    33A     -0.517938
      34A     -0.486280    35A     -0.470183    36A     -0.336641
      37A     -0.324122

  @DF-RHF Final Energy:  -518.47691412247298

   => Energetics <=

    Nuclear Repulsion Energy =            528.6852635320858553
    One-Electron Energy =               -1759.5188236630488063
    Two-Electron Energy =                 712.3566460084899745
    Total Energy =                       -518.4769141224729765
  Basis Set: (AUG-CC-PVTZ AUX)
    Blend: AUG-CC-PVTZ-RI
    Molecular point group: c1

    Geometry (in Angstrom), charge = 0, multiplicity = 1:

       Center              X                  Y                   Z               Mass
    ------------   -----------------  -----------------  -----------------  -----------------
         F            0.883059284745    -2.131018271803    -0.251458566165    18.998403162730
         O            1.649163284745     0.574196728197    -0.412279566165    15.994914619570
         O           -0.233877715255     2.488548728197    -0.122426566165    15.994914619570
         C            0.350543284745     0.172376728197    -0.163031566165    12.000000000000
         C           -0.616638715255     1.181561728197    -0.041774566165    12.000000000000
         C           -0.046192215255    -1.206578971803    -0.105739566165    12.000000000000
         C           -1.956609715255     0.853212728197     0.168897433835    12.000000000000
         C           -1.382242715255    -1.510213271803     0.116820433835    12.000000000000
         C           -2.328485715255    -0.489152271803     0.244337433835    12.000000000000
         C            2.573311284745     0.193691728197     0.628168433835    12.000000000000
         H           -2.684950715255     1.653115728197     0.261531433835     1.007825032230
         H           -1.654829715255    -2.559734271803     0.161217433835     1.007825032230
         H           -3.370725715255    -0.746941271803     0.410945433835     1.007825032230
         H            2.687802284745    -0.890362271803     0.660511433835     1.007825032230
         H            2.227227284745     0.563945728197     1.598328433835     1.007825032230
         H            3.521507284745     0.662275728197     0.365206433835     1.007825032230
         H            0.724306284745     2.467514728197    -0.324504566165     1.007825032230

  Basis Set: AUG-CC-PVTZ
    Blend: AUG-CC-PVTZ
  Basis Set: (AUG-CC-PVTZ AUX)
    Blend: AUG-CC-PVTZ-JKFIT
	 Reference Energy          =    -518.4769141224729765 [Eh]
	 Singles Energy            =      -0.0000000000000000 [Eh]
	 Same-Spin Energy          =      -0.5089255118709055 [Eh]
	 Opposite-Spin Energy      =      -1.5379625175736593 [Eh]
	 Correlation Energy        =      -2.0468880294445650 [Eh]
	 Total Energy              =    -520.5238021519174936 [Eh]

	 ================> DF-SCS-MP2 Energies <==================
	-----------------------------------------------------------
	 SCS Same-Spin Scale       =       0.3333333333333333 [-]
	 SCS Opposite-Spin Scale   =       1.2000000000000000 [-]
	 SCS Same-Spin Energy      =      -0.1696418372903018 [Eh]
	 SCS Opposite-Spin Energy  =      -1.8455550210883911 [Eh]
	 SCS Correlation Energy    =      -2.0151968583786930 [Eh]
	 SCS Total Energy          =    -520.4921109808516348 [Eh]
	-----------------------------------------------------------

  Dipole Moment: [D]
     X:     0.7956      Y:    -0.3697      Z:     1.1365     Total:     1.4357

*** Psi4 exiting successfully. Buy a developer a beer!
