                               Psi4 1.4a3.dev225

  ==> Input File <==

--------------------------------------------------------------------------
#psi4
#
memory 32 gb

molecule  {
0 1
  F        0.8801740    -2.1570240    -0.2741980
  O        1.6103884     0.5217550    -0.4115905
  O       -0.2367630     2.4625430    -0.1451660
  C        0.3476580     0.1463710    -0.1857710
  C       -0.6195240     1.1555560    -0.0645140
  C       -0.0605370    -1.1855140    -0.1277800
  C       -1.9594950     0.8272070     0.1461580
  C       -1.3851280    -1.5362190     0.0940810
  C       -2.3313710    -0.5151580     0.2215980
  C        2.5704260     0.1676860     0.6054290
  H       -2.6878360     1.6271100     0.2387920
  H       -1.6577150    -2.5857400     0.1384780
  H       -3.3736110    -0.7729470     0.3882060
  H        2.6849170    -0.9163680     0.6377720
  H        2.2243420     0.5379400     1.5755890
  H        3.5186220     0.6362700     0.3424670
  H        0.7214210     2.4415090    -0.3472440
units angstrom
no_reorient  #important for SAPT in psi4, default
symmetry c1  #important for SAPT in psi4, default
}

set PROPERTIES_ORIGIN ["COM"]
properties('MP2/aug-cc-pvtz', properties = ['dipole'])
--------------------------------------------------------------------------

    Molecular point group: c1
  Charge       = 0
  Multiplicity = 1
  Basis Set: AUG-CC-PVTZ
    Blend: AUG-CC-PVTZ
  Basis Set: (AUG-CC-PVTZ AUX)
    Blend: AUG-CC-PVTZ-JKFIT

    Orbital Energies [Eh]
    ---------------------

    Doubly Occupied:

       1A    -26.316964     2A    -20.597201     3A    -20.595105
       4A    -11.335231     5A    -11.312108     6A    -11.301223
       7A    -11.294834     8A    -11.252325     9A    -11.242137
      10A    -11.238249    11A     -1.629324    12A     -1.437647
      13A     -1.399039    14A     -1.156549    15A     -1.030730
      16A     -1.020428    17A     -0.951614    18A     -0.853891
      19A     -0.847493    20A     -0.760221    21A     -0.747911
      22A     -0.716318    23A     -0.700534    24A     -0.675586
      25A     -0.659856    26A     -0.646582    27A     -0.635771
      28A     -0.623151    29A     -0.590205    30A     -0.572690
      31A     -0.552951    32A     -0.541220    33A     -0.523378
      34A     -0.487929    35A     -0.471902    36A     -0.339889
      37A     -0.321986

  @DF-RHF Final Energy:  -518.47975745173324

   => Energetics <=

    Nuclear Repulsion Energy =            530.4150064493412629
    One-Electron Energy =               -1763.0291796137098572
    Two-Electron Energy =                 714.1344157126353593
    Total Energy =                       -518.4797574517332350
  Basis Set: (AUG-CC-PVTZ AUX)
    Blend: AUG-CC-PVTZ-RI
    Molecular point group: c1

    Geometry (in Angstrom), charge = 0, multiplicity = 1:

       Center              X                  Y                   Z               Mass
    ------------   -----------------  -----------------  -----------------  -----------------
         F            0.888068789258    -2.132018017158    -0.254155811623    18.998403162730
         O            1.618283189258     0.546760982842    -0.391548311623    15.994914619570
         O           -0.228868210742     2.487548982842    -0.125123811623    15.994914619570
         C            0.355552789258     0.171376982842    -0.165728811623    12.000000000000
         C           -0.611629210742     1.180561982842    -0.044471811623    12.000000000000
         C           -0.052642210742    -1.160508017158    -0.107737811623    12.000000000000
         C           -1.951600210742     0.852212982842     0.166200188377    12.000000000000
         C           -1.377233210742    -1.511213017158     0.114123188377    12.000000000000
         C           -2.323476210742    -0.490152017158     0.241640188377    12.000000000000
         C            2.578320789258     0.192691982842     0.625471188377    12.000000000000
         H           -2.679941210742     1.652115982842     0.258834188377     1.007825032230
         H           -1.649820210742    -2.560734017158     0.158520188377     1.007825032230
         H           -3.365716210742    -0.747941017158     0.408248188377     1.007825032230
         H            2.692811789258    -0.891362017158     0.657814188377     1.007825032230
         H            2.232236789258     0.562945982842     1.595631188377     1.007825032230
         H            3.526516789258     0.661275982842     0.362509188377     1.007825032230
         H            0.729315789258     2.466514982842    -0.327201811623     1.007825032230

  Basis Set: AUG-CC-PVTZ
    Blend: AUG-CC-PVTZ
  Basis Set: (AUG-CC-PVTZ AUX)
    Blend: AUG-CC-PVTZ-JKFIT
	 Reference Energy          =    -518.4797574517332350 [Eh]
	 Singles Energy            =      -0.0000000000000000 [Eh]
	 Same-Spin Energy          =      -0.5088237765829389 [Eh]
	 Opposite-Spin Energy      =      -1.5372249435689458 [Eh]
	 Correlation Energy        =      -2.0460487201518847 [Eh]
	 Total Energy              =    -520.5258061718851650 [Eh]

	 ================> DF-SCS-MP2 Energies <==================
	-----------------------------------------------------------
	 SCS Same-Spin Scale       =       0.3333333333333333 [-]
	 SCS Opposite-Spin Scale   =       1.2000000000000000 [-]
	 SCS Same-Spin Energy      =      -0.1696079255276463 [Eh]
	 SCS Opposite-Spin Energy  =      -1.8446699322827349 [Eh]
	 SCS Correlation Energy    =      -2.0142778578103813 [Eh]
	 SCS Total Energy          =    -520.4940353095436194 [Eh]
	-----------------------------------------------------------

  Dipole Moment: [D]
     X:     0.9028      Y:    -0.0937      Z:     1.1433     Total:     1.4598

*** Psi4 exiting successfully. Buy a developer a beer!
