                               Psi4 1.4a3.dev225

  ==> Input File <==

--------------------------------------------------------------------------
#psi4
#
memory 32 gb

molecule  {
0 1
  F        0.8801740    -2.1570240    -0.2741980
  O        1.6462780     0.5481910    -0.4350190
  O       -0.2367630     2.4625430    -0.1451660
  C        0.3476580     0.1463710    -0.1857710
  C       -0.6195240     1.1555560    -0.0645140
  C       -0.0605370    -1.1855140    -0.1277800
  C       -1.9594950     0.8272070     0.1461580
  C       -1.3851280    -1.5362190     0.0940810
  C       -2.3313710    -0.5151580     0.2215980
  C        2.5704260     0.1676860     0.6054290
  H       -2.6878360     1.6271100     0.2387920
  H       -1.6577150    -2.5857400     0.1384780
  H       -3.3736110    -0.7729470     0.3882060
  H        2.6481331    -0.9193057     0.6471168
  H        2.2243420     0.5379400     1.5755890
  H        3.5186220     0.6362700     0.3424670
  H        0.7214210     2.4415090    -0.3472440
units angstrom
no_reorient  #important for SAPT in psi4, default
symmetry c1  #important for SAPT in psi4, default
}

set PROPERTIES_ORIGIN ["COM"]
properties('MP2/aug-cc-pvtz', properties = ['dipole'])
--------------------------------------------------------------------------

    Molecular point group: c1
  Charge       = 0
  Multiplicity = 1
  Basis Set: AUG-CC-PVTZ
    Blend: AUG-CC-PVTZ
  Basis Set: (AUG-CC-PVTZ AUX)
    Blend: AUG-CC-PVTZ-JKFIT

    Orbital Energies [Eh]
    ---------------------

    Doubly Occupied:

       1A    -26.318508     2A    -20.598389     3A    -20.595691
       4A    -11.339442     5A    -11.315400     6A    -11.303770
       7A    -11.291347     8A    -11.255164     9A    -11.244015
      10A    -11.239887    11A     -1.630840    12A     -1.426590
      13A     -1.394426    14A     -1.159007    15A     -1.030086
      16A     -1.021795    17A     -0.946938    18A     -0.853876
      19A     -0.849698    20A     -0.759645    21A     -0.747603
      22A     -0.711766    23A     -0.700346    24A     -0.676998
      25A     -0.652274    26A     -0.646284    27A     -0.635298
      28A     -0.622278    29A     -0.589620    30A     -0.573764
      31A     -0.554636    32A     -0.540574    33A     -0.520277
      34A     -0.490504    35A     -0.472415    36A     -0.343528
      37A     -0.325162

  @DF-RHF Final Energy:  -518.47899755497269

   => Energetics <=

    Nuclear Repulsion Energy =            529.0790835778004748
    One-Electron Energy =               -1760.3604807618112318
    Two-Electron Energy =                 712.8023996290380637
    Total Energy =                       -518.4789975549726933
  Basis Set: (AUG-CC-PVTZ AUX)
    Blend: AUG-CC-PVTZ-RI
    Molecular point group: c1

    Geometry (in Angstrom), charge = 0, multiplicity = 1:

       Center              X                  Y                   Z               Mass
    ------------   -----------------  -----------------  -----------------  -----------------
         F            0.884288389494    -2.134974029441    -0.251583922025    18.998403162730
         O            1.650392389494     0.570240970559    -0.412404922025    15.994914619570
         O           -0.232648610506     2.484592970559    -0.122551922025    15.994914619570
         C            0.351772389494     0.168420970559    -0.163156922025    12.000000000000
         C           -0.615409610506     1.177605970559    -0.041899922025    12.000000000000
         C           -0.056422610506    -1.163464029441    -0.105165922025    12.000000000000
         C           -1.955380610506     0.849256970559     0.168772077975    12.000000000000
         C           -1.381013610506    -1.514169029441     0.116695077975    12.000000000000
         C           -2.327256610506    -0.493108029441     0.244212077975    12.000000000000
         C            2.574540389494     0.189735970559     0.628043077975    12.000000000000
         H           -2.683721610506     1.649159970559     0.261406077975     1.007825032230
         H           -1.653600610506    -2.563690029441     0.161092077975     1.007825032230
         H           -3.369496610506    -0.750897029441     0.410820077975     1.007825032230
         H            2.652247489494    -0.897255729441     0.669730877975     1.007825032230
         H            2.228456389494     0.559989970559     1.598203077975     1.007825032230
         H            3.522736389494     0.658319970559     0.365081077975     1.007825032230
         H            0.725535389494     2.463558970559    -0.324629922025     1.007825032230

  Basis Set: AUG-CC-PVTZ
    Blend: AUG-CC-PVTZ
  Basis Set: (AUG-CC-PVTZ AUX)
    Blend: AUG-CC-PVTZ-JKFIT
	 Reference Energy          =    -518.4789975549726933 [Eh]
	 Singles Energy            =      -0.0000000000000000 [Eh]
	 Same-Spin Energy          =      -0.5089331286704741 [Eh]
	 Opposite-Spin Energy      =      -1.5383791561223432 [Eh]
	 Correlation Energy        =      -2.0473122847928176 [Eh]
	 Total Energy              =    -520.5263098397655313 [Eh]

	 ================> DF-SCS-MP2 Energies <==================
	-----------------------------------------------------------
	 SCS Same-Spin Scale       =       0.3333333333333333 [-]
	 SCS Opposite-Spin Scale   =       1.2000000000000000 [-]
	 SCS Same-Spin Energy      =      -0.1696443762234914 [Eh]
	 SCS Opposite-Spin Energy  =      -1.8460549873468117 [Eh]
	 SCS Correlation Energy    =      -2.0156993635703029 [Eh]
	 SCS Total Energy          =    -520.4946969185430135 [Eh]
	-----------------------------------------------------------

  Dipole Moment: [D]
     X:     0.6366      Y:    -0.1632      Z:     1.1724     Total:     1.3441

*** Psi4 exiting successfully. Buy a developer a beer!
