                               Psi4 1.4a3.dev225

  ==> Input File <==

--------------------------------------------------------------------------
#psi4
#
memory 32 gb

molecule  {
0 1
  F        0.8801740    -2.1570240    -0.2741980
  O        1.6462780     0.5481910    -0.4350190
  O       -0.2367630     2.4625430    -0.1451660
  C        0.3476580     0.1463710    -0.1857710
  C       -0.6254407     1.1791767    -0.0639239
  C       -0.0605370    -1.1855140    -0.1277800
  C       -1.9594950     0.8272070     0.1461580
  C       -1.3851280    -1.5362190     0.0940810
  C       -2.3313710    -0.5151580     0.2215980
  C        2.5704260     0.1676860     0.6054290
  H       -2.6878360     1.6271100     0.2387920
  H       -1.6577150    -2.5857400     0.1384780
  H       -3.3736110    -0.7729470     0.3882060
  H        2.6849170    -0.9163680     0.6377720
  H        2.2243420     0.5379400     1.5755890
  H        3.5186220     0.6362700     0.3424670
  H        0.7214210     2.4415090    -0.3472440
units angstrom
no_reorient  #important for SAPT in psi4, default
symmetry c1  #important for SAPT in psi4, default
}

set PROPERTIES_ORIGIN ["COM"]
properties('MP2/aug-cc-pvtz', properties = ['dipole'])
--------------------------------------------------------------------------

    Molecular point group: c1
  Charge       = 0
  Multiplicity = 1
  Basis Set: AUG-CC-PVTZ
    Blend: AUG-CC-PVTZ
  Basis Set: (AUG-CC-PVTZ AUX)
    Blend: AUG-CC-PVTZ-JKFIT

    Orbital Energies [Eh]
    ---------------------

    Doubly Occupied:

       1A    -26.317577     2A    -20.599359     3A    -20.598568
       4A    -11.338410     5A    -11.317771     6A    -11.304299
       7A    -11.291121     8A    -11.254681     9A    -11.242730
      10A    -11.238423    11A     -1.629835    12A     -1.432090
      13A     -1.399676    14A     -1.156149    15A     -1.028083
      16A     -1.020169    17A     -0.946552    18A     -0.854083
      19A     -0.847723    20A     -0.764422    21A     -0.746929
      22A     -0.710680    23A     -0.699480    24A     -0.679050
      25A     -0.653524    26A     -0.645722    27A     -0.635994
      28A     -0.622802    29A     -0.595192    30A     -0.573749
      31A     -0.554526    32A     -0.538979    33A     -0.518021
      34A     -0.489811    35A     -0.472049    36A     -0.342887
      37A     -0.321474

  @DF-RHF Final Energy:  -518.47853552059951

   => Energetics <=

    Nuclear Repulsion Energy =            528.7924080824461726
    One-Electron Energy =               -1759.7767051639336842
    Two-Electron Energy =                 712.5057615608880042
    Total Energy =                       -518.4785355205995074
  Basis Set: (AUG-CC-PVTZ AUX)
    Blend: AUG-CC-PVTZ-RI
    Molecular point group: c1

    Geometry (in Angstrom), charge = 0, multiplicity = 1:

       Center              X                  Y                   Z               Mass
    ------------   -----------------  -----------------  -----------------  -----------------
         F            0.884527251409    -2.136990384152    -0.251567471209    18.998403162730
         O            1.650631251409     0.568224615848    -0.412388471209    15.994914619570
         O           -0.232409748591     2.482576615848    -0.122535471209    15.994914619570
         C            0.352011251409     0.166404615848    -0.163140471209    12.000000000000
         C           -0.621087448591     1.199210315848    -0.041293371209    12.000000000000
         C           -0.056183748591    -1.165480384152    -0.105149471209    12.000000000000
         C           -1.955141748591     0.847240615848     0.168788528791    12.000000000000
         C           -1.380774748591    -1.516185384152     0.116711528791    12.000000000000
         C           -2.327017748591    -0.495124384152     0.244228528791    12.000000000000
         C            2.574779251409     0.187719615848     0.628059528791    12.000000000000
         H           -2.683482748591     1.647143615848     0.261422528791     1.007825032230
         H           -1.653361748591    -2.565706384152     0.161108528791     1.007825032230
         H           -3.369257748591    -0.752913384152     0.410836528791     1.007825032230
         H            2.689270251409    -0.896334384152     0.660402528791     1.007825032230
         H            2.228695251409     0.557973615848     1.598219528791     1.007825032230
         H            3.522975251409     0.656303615848     0.365097528791     1.007825032230
         H            0.725774251409     2.461542615848    -0.324613471209     1.007825032230

  Basis Set: AUG-CC-PVTZ
    Blend: AUG-CC-PVTZ
  Basis Set: (AUG-CC-PVTZ AUX)
    Blend: AUG-CC-PVTZ-JKFIT
	 Reference Energy          =    -518.4785355205995074 [Eh]
	 Singles Energy            =      -0.0000000000000000 [Eh]
	 Same-Spin Energy          =      -0.5089549182878296 [Eh]
	 Opposite-Spin Energy      =      -1.5382102365472674 [Eh]
	 Correlation Energy        =      -2.0471651548350969 [Eh]
	 Total Energy              =    -520.5257006754345639 [Eh]

	 ================> DF-SCS-MP2 Energies <==================
	-----------------------------------------------------------
	 SCS Same-Spin Scale       =       0.3333333333333333 [-]
	 SCS Opposite-Spin Scale   =       1.2000000000000000 [-]
	 SCS Same-Spin Energy      =      -0.1696516394292765 [Eh]
	 SCS Opposite-Spin Energy  =      -1.8458522838567208 [Eh]
	 SCS Correlation Energy    =      -2.0155039232859973 [Eh]
	 SCS Total Energy          =    -520.4940394438855265 [Eh]
	-----------------------------------------------------------

  Dipole Moment: [D]
     X:     0.6942      Y:    -0.0346      Z:     1.1559     Total:     1.3488

*** Psi4 exiting successfully. Buy a developer a beer!
