                               Psi4 1.4a3.dev225

  ==> Input File <==

--------------------------------------------------------------------------
#psi4
#
memory 32 gb

molecule  {
0 1
  F        0.8801740    -2.1570240    -0.2741980
  O        1.6462780     0.5481910    -0.4350190
  O       -0.2367630     2.4625430    -0.1451660
  C        0.3476580     0.1463710    -0.1857710
  C       -0.6195240     1.1555560    -0.0645140
  C       -0.0736103    -1.1388706    -0.1268107
  C       -1.9594950     0.8272070     0.1461580
  C       -1.3851280    -1.5362190     0.0940810
  C       -2.3313710    -0.5151580     0.2215980
  C        2.5704260     0.1676860     0.6054290
  H       -2.6878360     1.6271100     0.2387920
  H       -1.6577150    -2.5857400     0.1384780
  H       -3.3736110    -0.7729470     0.3882060
  H        2.6849170    -0.9163680     0.6377720
  H        2.2243420     0.5379400     1.5755890
  H        3.5186220     0.6362700     0.3424670
  H        0.7214210     2.4415090    -0.3472440
units angstrom
no_reorient  #important for SAPT in psi4, default
symmetry c1  #important for SAPT in psi4, default
}

set PROPERTIES_ORIGIN ["COM"]
properties('MP2/aug-cc-pvtz', properties = ['dipole'])
--------------------------------------------------------------------------

    Molecular point group: c1
  Charge       = 0
  Multiplicity = 1
  Basis Set: AUG-CC-PVTZ
    Blend: AUG-CC-PVTZ
  Basis Set: (AUG-CC-PVTZ AUX)
    Blend: AUG-CC-PVTZ-JKFIT

    Orbital Energies [Eh]
    ---------------------

    Doubly Occupied:

       1A    -26.306252     2A    -20.600724     3A    -20.597614
       4A    -11.336242     5A    -11.317727     6A    -11.303010
       7A    -11.291716     8A    -11.256372     9A    -11.245621
      10A    -11.240684    11A     -1.606468    12A     -1.428658
      13A     -1.396273    14A     -1.165750    15A     -1.036794
      16A     -1.021919    17A     -0.948886    18A     -0.856345
      19A     -0.846093    20A     -0.759442    21A     -0.737781
      22A     -0.707292    23A     -0.686776    24A     -0.670733
      25A     -0.653351    26A     -0.647572    27A     -0.634118
      28A     -0.622390    29A     -0.591614    30A     -0.574293
      31A     -0.556613    32A     -0.542593    33A     -0.520766
      34A     -0.495047    35A     -0.475693    36A     -0.350810
      37A     -0.325848

  @DF-RHF Final Energy:  -518.47566150417379

   => Energetics <=

    Nuclear Repulsion Energy =            529.3417104393896579
    One-Electron Energy =               -1760.9229767134713711
    Two-Electron Energy =                 713.1056047699080409
    Total Energy =                       -518.4756615041737859
  Basis Set: (AUG-CC-PVTZ AUX)
    Blend: AUG-CC-PVTZ-RI
    Molecular point group: c1

    Geometry (in Angstrom), charge = 0, multiplicity = 1:

       Center              X                  Y                   Z               Mass
    ------------   -----------------  -----------------  -----------------  -----------------
         F            0.885131851392    -2.138935375353    -0.251599506577    18.998403162730
         O            1.651235851392     0.566279624647    -0.412420506577    15.994914619570
         O           -0.231805148608     2.480631624647    -0.122567506577    15.994914619570
         C            0.352615851392     0.164459624647    -0.163172506577    12.000000000000
         C           -0.614566148608     1.173644624647    -0.041915506577    12.000000000000
         C           -0.068652448608    -1.120781975353    -0.104212206577    12.000000000000
         C           -1.954537148608     0.845295624647     0.168756493423    12.000000000000
         C           -1.380170148608    -1.518130375353     0.116679493423    12.000000000000
         C           -2.326413148608    -0.497069375353     0.244196493423    12.000000000000
         C            2.575383851392     0.185774624647     0.628027493423    12.000000000000
         H           -2.682878148608     1.645198624647     0.261390493423     1.007825032230
         H           -1.652757148608    -2.567651375353     0.161076493423     1.007825032230
         H           -3.368653148608    -0.754858375353     0.410804493423     1.007825032230
         H            2.689874851392    -0.898279375353     0.660370493423     1.007825032230
         H            2.229299851392     0.556028624647     1.598187493423     1.007825032230
         H            3.523579851392     0.654358624647     0.365065493423     1.007825032230
         H            0.726378851392     2.459597624647    -0.324645506577     1.007825032230

  Basis Set: AUG-CC-PVTZ
    Blend: AUG-CC-PVTZ
  Basis Set: (AUG-CC-PVTZ AUX)
    Blend: AUG-CC-PVTZ-JKFIT
	 Reference Energy          =    -518.4756615041737859 [Eh]
	 Singles Energy            =      -0.0000000000000000 [Eh]
	 Same-Spin Energy          =      -0.5089451952529329 [Eh]
	 Opposite-Spin Energy      =      -1.5390068116521809 [Eh]
	 Correlation Energy        =      -2.0479520069051138 [Eh]
	 Total Energy              =    -520.5236135110789064 [Eh]

	 ================> DF-SCS-MP2 Energies <==================
	-----------------------------------------------------------
	 SCS Same-Spin Scale       =       0.3333333333333333 [-]
	 SCS Opposite-Spin Scale   =       1.2000000000000000 [-]
	 SCS Same-Spin Energy      =      -0.1696483984176443 [Eh]
	 SCS Opposite-Spin Energy  =      -1.8468081739826170 [Eh]
	 SCS Correlation Energy    =      -2.0164565724002612 [Eh]
	 SCS Total Energy          =    -520.4921180765740019 [Eh]
	-----------------------------------------------------------

  Dipole Moment: [D]
     X:     0.5072      Y:     0.0321      Z:     1.2007     Total:     1.3039

*** Psi4 exiting successfully. Buy a developer a beer!
