                               Psi4 1.4a3.dev225

  ==> Input File <==

--------------------------------------------------------------------------
#psi4
#
memory 32 gb

molecule  {
0 1
  F        0.8801740    -2.1570240    -0.2741980
  O        1.6462780     0.5481910    -0.4350190
  O       -0.2367630     2.4625430    -0.1451660
  C        0.3476580     0.1463710    -0.1857710
  C       -0.6195240     1.1555560    -0.0645140
  C       -0.0605370    -1.1855140    -0.1277800
  C       -1.9594950     0.8272070     0.1461580
  C       -1.3851280    -1.5362190     0.0940810
  C       -2.3313710    -0.5151580     0.2215980
  C        2.5704260     0.1676860     0.6054290
  H       -2.6878360     1.6271100     0.2387920
  H       -1.6577150    -2.5857400     0.1384780
  H       -3.3736110    -0.7729470     0.3882060
  H        2.7059137    -1.1151743     0.6437034
  H        2.2243420     0.5379400     1.5755890
  H        3.5186220     0.6362700     0.3424670
  H        0.7214210     2.4415090    -0.3472440
units angstrom
no_reorient  #important for SAPT in psi4, default
symmetry c1  #important for SAPT in psi4, default
}

set PROPERTIES_ORIGIN ["COM"]
properties('MP2/aug-cc-pvtz', properties = ['dipole'])
--------------------------------------------------------------------------

    Molecular point group: c1
  Charge       = 0
  Multiplicity = 1
  Basis Set: AUG-CC-PVTZ
    Blend: AUG-CC-PVTZ
  Basis Set: (AUG-CC-PVTZ AUX)
    Blend: AUG-CC-PVTZ-JKFIT

    Orbital Energies [Eh]
    ---------------------

    Doubly Occupied:

       1A    -26.317910     2A    -20.602644     3A    -20.596579
       4A    -11.339957     5A    -11.316152     6A    -11.311780
       7A    -11.304614     8A    -11.255638     9A    -11.244312
      10A    -11.240340    11A     -1.630460    12A     -1.428296
      13A     -1.395932    14A     -1.159467    15A     -1.029633
      16A     -1.021936    17A     -0.935482    18A     -0.854178
      19A     -0.848023    20A     -0.759650    21A     -0.747934
      22A     -0.710402    23A     -0.699630    24A     -0.677080
      25A     -0.652822    26A     -0.641417    27A     -0.635593
      28A     -0.608757    29A     -0.590522    30A     -0.574317
      31A     -0.550184    32A     -0.539406    33A     -0.519339
      34A     -0.488362    35A     -0.460800    36A     -0.343983
      37A     -0.325830

  @DF-RHF Final Energy:  -518.45787284578307

   => Energetics <=

    Nuclear Repulsion Energy =            528.2945686102586933
    One-Electron Energy =               -1758.7861612355002308
    Two-Electron Energy =                 712.0337197794584654
    Total Energy =                       -518.4578728457830721
  Basis Set: (AUG-CC-PVTZ AUX)
    Blend: AUG-CC-PVTZ-RI
    Molecular point group: c1

    Geometry (in Angstrom), charge = 0, multiplicity = 1:

       Center              X                  Y                   Z               Mass
    ------------   -----------------  -----------------  -----------------  -----------------
         F            0.883878423977    -2.133584300503    -0.251559703234    18.998403162730
         O            1.649982423977     0.571630699497    -0.412380703234    15.994914619570
         O           -0.233058576023     2.485982699497    -0.122527703234    15.994914619570
         C            0.351362423977     0.169810699497    -0.163132703234    12.000000000000
         C           -0.615819576023     1.178995699497    -0.041875703234    12.000000000000
         C           -0.056832576023    -1.162074300503    -0.105141703234    12.000000000000
         C           -1.955790576023     0.850646699497     0.168796296766    12.000000000000
         C           -1.381423576023    -1.512779300503     0.116719296766    12.000000000000
         C           -2.327666576023    -0.491718300503     0.244236296766    12.000000000000
         C            2.574130423977     0.191125699497     0.628067296766    12.000000000000
         H           -2.684131576023     1.650549699497     0.261430296766     1.007825032230
         H           -1.654010576023    -2.562300300503     0.161116296766     1.007825032230
         H           -3.369906576023    -0.749507300503     0.410844296766     1.007825032230
         H            2.709618123977    -1.091734600503     0.666341696766     1.007825032230
         H            2.228046423977     0.561379699497     1.598227296766     1.007825032230
         H            3.522326423977     0.659709699497     0.365105296766     1.007825032230
         H            0.725125423977     2.464948699497    -0.324605703234     1.007825032230

  Basis Set: AUG-CC-PVTZ
    Blend: AUG-CC-PVTZ
  Basis Set: (AUG-CC-PVTZ AUX)
    Blend: AUG-CC-PVTZ-JKFIT
	 Reference Energy          =    -518.4578728457830721 [Eh]
	 Singles Energy            =      -0.0000000000000000 [Eh]
	 Same-Spin Energy          =      -0.5093946669915540 [Eh]
	 Opposite-Spin Energy      =      -1.5405147547399225 [Eh]
	 Correlation Energy        =      -2.0499094217314764 [Eh]
	 Total Energy              =    -520.5077822675145853 [Eh]

	 ================> DF-SCS-MP2 Energies <==================
	-----------------------------------------------------------
	 SCS Same-Spin Scale       =       0.3333333333333333 [-]
	 SCS Opposite-Spin Scale   =       1.2000000000000000 [-]
	 SCS Same-Spin Energy      =      -0.1697982223305180 [Eh]
	 SCS Opposite-Spin Energy  =      -1.8486177056879070 [Eh]
	 SCS Correlation Energy    =      -2.0184159280184248 [Eh]
	 SCS Total Energy          =    -520.4762887738014570 [Eh]
	-----------------------------------------------------------

  Dipole Moment: [D]
     X:     0.5459      Y:    -0.0931      Z:     1.1225     Total:     1.2516

*** Psi4 exiting successfully. Buy a developer a beer!
