                               Psi4 1.4a3.dev225

  ==> Input File <==

--------------------------------------------------------------------------
#psi4
#
memory 32 gb

molecule  {
0 1
  F        0.8801740    -2.1570240    -0.2741980
  O        1.6817372     0.4079463    -0.4343848
  O       -0.2367630     2.4625430    -0.1451660
  C        0.3476580     0.1463710    -0.1857710
  C       -0.6195240     1.1555560    -0.0645140
  C       -0.0605370    -1.1855140    -0.1277800
  C       -1.9594950     0.8272070     0.1461580
  C       -1.3851280    -1.5362190     0.0940810
  C       -2.3313710    -0.5151580     0.2215980
  C        2.5704260     0.1676860     0.6054290
  H       -2.6878360     1.6271100     0.2387920
  H       -1.6577150    -2.5857400     0.1384780
  H       -3.3736110    -0.7729470     0.3882060
  H        2.6849170    -0.9163680     0.6377720
  H        2.2243420     0.5379400     1.5755890
  H        3.5186220     0.6362700     0.3424670
  H        0.7214210     2.4415090    -0.3472440
units angstrom
no_reorient  #important for SAPT in psi4, default
symmetry c1  #important for SAPT in psi4, default
}

set PROPERTIES_ORIGIN ["COM"]
properties('MP2/aug-cc-pvtz', properties = ['dipole'])
--------------------------------------------------------------------------

    Molecular point group: c1
  Charge       = 0
  Multiplicity = 1
  Basis Set: AUG-CC-PVTZ
    Blend: AUG-CC-PVTZ
  Basis Set: (AUG-CC-PVTZ AUX)
    Blend: AUG-CC-PVTZ-JKFIT

    Orbital Energies [Eh]
    ---------------------

    Doubly Occupied:

       1A    -26.317821     2A    -20.600601     3A    -20.592851
       4A    -11.338217     5A    -11.320289     6A    -11.305248
       7A    -11.283943     8A    -11.257075     9A    -11.244128
      10A    -11.242289    11A     -1.629874    12A     -1.431889
      13A     -1.404477    14A     -1.161041    15A     -1.035080
      16A     -1.023387    17A     -0.943447    18A     -0.855702
      19A     -0.850360    20A     -0.761950    21A     -0.748441
      22A     -0.715693    23A     -0.700665    24A     -0.677519
      25A     -0.655474    26A     -0.647416    27A     -0.641140
      28A     -0.629807    29A     -0.594394    30A     -0.576377
      31A     -0.550857    32A     -0.542773    33A     -0.516300
      34A     -0.488194    35A     -0.461343    36A     -0.345149
      37A     -0.328469

  @DF-RHF Final Energy:  -518.47604378350354

   => Energetics <=

    Nuclear Repulsion Energy =            529.7565724168455290
    One-Electron Energy =               -1761.6258771913139753
    Two-Electron Energy =                 713.3932609909649045
    Total Energy =                       -518.4760437835035418
  Basis Set: (AUG-CC-PVTZ AUX)
    Blend: AUG-CC-PVTZ-RI
    Molecular point group: c1

    Geometry (in Angstrom), charge = 0, multiplicity = 1:

       Center              X                  Y                   Z               Mass
    ------------   -----------------  -----------------  -----------------  -----------------
         F            0.880034476388    -2.119202458899    -0.251589033516    18.998403162730
         O            1.681597676388     0.445767841101    -0.411775833516    15.994914619570
         O           -0.236902523612     2.500364541101    -0.122557033516    15.994914619570
         C            0.347518476388     0.184192541101    -0.163162033516    12.000000000000
         C           -0.619663523612     1.193377541101    -0.041905033516    12.000000000000
         C           -0.060676523612    -1.147692458899    -0.105171033516    12.000000000000
         C           -1.959634523612     0.865028541101     0.168766966484    12.000000000000
         C           -1.385267523612    -1.498397458899     0.116689966484    12.000000000000
         C           -2.331510523612    -0.477336458899     0.244206966484    12.000000000000
         C            2.570286476388     0.205507541101     0.628037966484    12.000000000000
         H           -2.687975523612     1.664931541101     0.261400966484     1.007825032230
         H           -1.657854523612    -2.547918458899     0.161086966484     1.007825032230
         H           -3.373750523612    -0.735125458899     0.410814966484     1.007825032230
         H            2.684777476388    -0.878546458899     0.660380966484     1.007825032230
         H            2.224202476388     0.575761541101     1.598197966484     1.007825032230
         H            3.518482476388     0.674091541101     0.365075966484     1.007825032230
         H            0.721281476388     2.479330541101    -0.324635033516     1.007825032230

  Basis Set: AUG-CC-PVTZ
    Blend: AUG-CC-PVTZ
  Basis Set: (AUG-CC-PVTZ AUX)
    Blend: AUG-CC-PVTZ-JKFIT
	 Reference Energy          =    -518.4760437835035418 [Eh]
	 Singles Energy            =      -0.0000000000000000 [Eh]
	 Same-Spin Energy          =      -0.5083837280279515 [Eh]
	 Opposite-Spin Energy      =      -1.5368761108030036 [Eh]
	 Correlation Energy        =      -2.0452598388309551 [Eh]
	 Total Energy              =    -520.5213036223344716 [Eh]

	 ================> DF-SCS-MP2 Energies <==================
	-----------------------------------------------------------
	 SCS Same-Spin Scale       =       0.3333333333333333 [-]
	 SCS Opposite-Spin Scale   =       1.2000000000000000 [-]
	 SCS Same-Spin Energy      =      -0.1694612426759838 [Eh]
	 SCS Opposite-Spin Energy  =      -1.8442513329636041 [Eh]
	 SCS Correlation Energy    =      -2.0137125756395879 [Eh]
	 SCS Total Energy          =    -520.4897563591431435 [Eh]
	-----------------------------------------------------------

  Dipole Moment: [D]
     X:     0.3642      Y:     0.0755      Z:     1.1064     Total:     1.1672

*** Psi4 exiting successfully. Buy a developer a beer!
