                               Psi4 1.4a3.dev225

  ==> Input File <==

--------------------------------------------------------------------------
#psi4
#
memory 32 gb

molecule  {
0 1
  F        0.8801740    -2.1570240    -0.2741980
  O        1.5983928     0.6841895    -0.4232819
  O       -0.2367630     2.4625430    -0.1451660
  C        0.3476580     0.1463710    -0.1857710
  C       -0.6195240     1.1555560    -0.0645140
  C       -0.0605370    -1.1855140    -0.1277800
  C       -1.9594950     0.8272070     0.1461580
  C       -1.3851280    -1.5362190     0.0940810
  C       -2.3313710    -0.5151580     0.2215980
  C        2.5704260     0.1676860     0.6054290
  H       -2.6878360     1.6271100     0.2387920
  H       -1.6577150    -2.5857400     0.1384780
  H       -3.3736110    -0.7729470     0.3882060
  H        2.6849170    -0.9163680     0.6377720
  H        2.2243420     0.5379400     1.5755890
  H        3.5186220     0.6362700     0.3424670
  H        0.7214210     2.4415090    -0.3472440
units angstrom
no_reorient  #important for SAPT in psi4, default
symmetry c1  #important for SAPT in psi4, default
}

set PROPERTIES_ORIGIN ["COM"]
properties('MP2/aug-cc-pvtz', properties = ['dipole'])
--------------------------------------------------------------------------

    Molecular point group: c1
  Charge       = 0
  Multiplicity = 1
  Basis Set: AUG-CC-PVTZ
    Blend: AUG-CC-PVTZ
  Basis Set: (AUG-CC-PVTZ AUX)
    Blend: AUG-CC-PVTZ-JKFIT

    Orbital Energies [Eh]
    ---------------------

    Doubly Occupied:

       1A    -26.318280     2A    -20.604222     3A    -20.589897
       4A    -11.340284     5A    -11.310193     6A    -11.302627
       7A    -11.300133     8A    -11.252802     9A    -11.243381
      10A    -11.236967    11A     -1.630916    12A     -1.423616
      13A     -1.383095    14A     -1.156651    15A     -1.025553
      16A     -1.019339    17A     -0.951823    18A     -0.851444
      19A     -0.848301    20A     -0.757140    21A     -0.746455
      22A     -0.707464    23A     -0.699052    24A     -0.676311
      25A     -0.652924    26A     -0.645024    27A     -0.633520
      28A     -0.605624    29A     -0.584566    30A     -0.570752
      31A     -0.558330    32A     -0.539754    33A     -0.520569
      34A     -0.495902    35A     -0.478165    36A     -0.341621
      37A     -0.321173

  @DF-RHF Final Energy:  -518.46910962567847

   => Energetics <=

    Nuclear Repulsion Energy =            528.4988762343473354
    One-Electron Energy =               -1759.2882310901854908
    Two-Electron Energy =                 712.3202452301596850
    Total Energy =                       -518.4691096256784704
  Basis Set: (AUG-CC-PVTZ AUX)
    Blend: AUG-CC-PVTZ-RI
    Molecular point group: c1

    Geometry (in Angstrom), charge = 0, multiplicity = 1:

       Center              X                  Y                   Z               Mass
    ------------   -----------------  -----------------  -----------------  -----------------
         F            0.889419567455    -2.150309138996    -0.252839288213    18.998403162730
         O            1.607638367455     0.690904361004    -0.401923188213    15.994914619570
         O           -0.227517432545     2.469257861004    -0.123807288213    15.994914619570
         C            0.356903567455     0.153085861004    -0.164412288213    12.000000000000
         C           -0.610278432545     1.162270861004    -0.043155288213    12.000000000000
         C           -0.051291432545    -1.178799138996    -0.106421288213    12.000000000000
         C           -1.950249432545     0.833921861004     0.167516711787    12.000000000000
         C           -1.375882432545    -1.529504138996     0.115439711787    12.000000000000
         C           -2.322125432545    -0.508443138996     0.242956711787    12.000000000000
         C            2.579671567455     0.174400861004     0.626787711787    12.000000000000
         H           -2.678590432545     1.633824861004     0.260150711787     1.007825032230
         H           -1.648469432545    -2.579025138996     0.159836711787     1.007825032230
         H           -3.364365432545    -0.766232138996     0.409564711787     1.007825032230
         H            2.694162567455    -0.909653138996     0.659130711787     1.007825032230
         H            2.233587567455     0.544654861004     1.596947711787     1.007825032230
         H            3.527867567455     0.642984861004     0.363825711787     1.007825032230
         H            0.730666567455     2.448223861004    -0.325885288213     1.007825032230

  Basis Set: AUG-CC-PVTZ
    Blend: AUG-CC-PVTZ
  Basis Set: (AUG-CC-PVTZ AUX)
    Blend: AUG-CC-PVTZ-JKFIT
	 Reference Energy          =    -518.4691096256784704 [Eh]
	 Singles Energy            =      -0.0000000000000000 [Eh]
	 Same-Spin Energy          =      -0.5100217876626203 [Eh]
	 Opposite-Spin Energy      =      -1.5409658988699773 [Eh]
	 Correlation Energy        =      -2.0509876865325976 [Eh]
	 Total Energy              =    -520.5200973122110781 [Eh]

	 ================> DF-SCS-MP2 Energies <==================
	-----------------------------------------------------------
	 SCS Same-Spin Scale       =       0.3333333333333333 [-]
	 SCS Opposite-Spin Scale   =       1.2000000000000000 [-]
	 SCS Same-Spin Energy      =      -0.1700072625542068 [Eh]
	 SCS Opposite-Spin Energy  =      -1.8491590786439727 [Eh]
	 SCS Correlation Energy    =      -2.0191663411981793 [Eh]
	 SCS Total Energy          =    -520.4882759668766994 [Eh]
	-----------------------------------------------------------

  Dipole Moment: [D]
     X:     0.9740      Y:    -0.3845      Z:     1.2132     Total:     1.6026

*** Psi4 exiting successfully. Buy a developer a beer!
