                               Psi4 1.4a3.dev225

  ==> Input File <==

--------------------------------------------------------------------------
#psi4
#
memory 32 gb

molecule  {
0 1
  F        0.8801740    -2.1570240    -0.2741980
  O        1.6462780     0.5481910    -0.4350190
  O       -0.2367630     2.4625430    -0.1451660
  C        0.3476580     0.1463710    -0.1857710
  C       -0.6195240     1.1555560    -0.0645140
  C       -0.0605370    -1.1855140    -0.1277800
  C       -1.9594950     0.8272070     0.1461580
  C       -1.3851280    -1.5362190     0.0940810
  C       -2.3313710    -0.5151580     0.2215980
  C        2.5704260     0.1676860     0.6054290
  H       -2.6878360     1.6271100     0.2387920
  H       -1.6577150    -2.5857400     0.1384780
  H       -3.3736110    -0.7729470     0.3882060
  H        2.6849170    -0.9163680     0.6377720
  H        2.1611052     0.6055932     1.7528576
  H        3.5186220     0.6362700     0.3424670
  H        0.7214210     2.4415090    -0.3472440
units angstrom
no_reorient  #important for SAPT in psi4, default
symmetry c1  #important for SAPT in psi4, default
}

set PROPERTIES_ORIGIN ["COM"]
properties('MP2/aug-cc-pvtz', properties = ['dipole'])
--------------------------------------------------------------------------

    Molecular point group: c1
  Charge       = 0
  Multiplicity = 1
  Basis Set: AUG-CC-PVTZ
    Blend: AUG-CC-PVTZ
  Basis Set: (AUG-CC-PVTZ AUX)
    Blend: AUG-CC-PVTZ-JKFIT

    Orbital Energies [Eh]
    ---------------------

    Doubly Occupied:

       1A    -26.319087     2A    -20.603304     3A    -20.596027
       4A    -11.340083     5A    -11.316052     6A    -11.313759
       7A    -11.304616     8A    -11.255637     9A    -11.244325
      10A    -11.240201    11A     -1.631358    12A     -1.428286
      13A     -1.395866    14A     -1.159447    15A     -1.029790
      16A     -1.021958    17A     -0.936672    18A     -0.854379
      19A     -0.847596    20A     -0.760123    21A     -0.746292
      22A     -0.709774    23A     -0.699971    24A     -0.677442
      25A     -0.651183    26A     -0.647571    27A     -0.633637
      28A     -0.616216    29A     -0.588000    30A     -0.574142
      31A     -0.553567    32A     -0.534285    33A     -0.513352
      34A     -0.490743    35A     -0.465505    36A     -0.344169
      37A     -0.325729

  @DF-RHF Final Energy:  -518.45882613679873

   => Energetics <=

    Nuclear Repulsion Energy =            528.2236021169804872
    One-Electron Energy =               -1758.6245667042537661
    Two-Electron Energy =                 711.9421384504746584
    Total Energy =                       -518.4588261367987343
  Basis Set: (AUG-CC-PVTZ AUX)
    Blend: AUG-CC-PVTZ-RI
    Molecular point group: c1

    Geometry (in Angstrom), charge = 0, multiplicity = 1:

       Center              X                  Y                   Z               Mass
    ------------   -----------------  -----------------  -----------------  -----------------
         F            0.884476078386    -2.135474886732    -0.252775376726    18.998403162730
         O            1.650580078386     0.569740113268    -0.413596376726    15.994914619570
         O           -0.232460921614     2.484092113268    -0.123743376726    15.994914619570
         C            0.351960078386     0.167920113268    -0.164348376726    12.000000000000
         C           -0.615221921614     1.177105113268    -0.043091376726    12.000000000000
         C           -0.056234921614    -1.163964886732    -0.106357376726    12.000000000000
         C           -1.955192921614     0.848756113268     0.167580623274    12.000000000000
         C           -1.380825921614    -1.514669886732     0.115503623274    12.000000000000
         C           -2.327068921614    -0.493608886732     0.243020623274    12.000000000000
         C            2.574728078386     0.189235113268     0.626851623274    12.000000000000
         H           -2.683533921614     1.648659113268     0.260214623274     1.007825032230
         H           -1.653412921614    -2.564190886732     0.159900623274     1.007825032230
         H           -3.369308921614    -0.751397886732     0.409628623274     1.007825032230
         H            2.689219078386    -0.894818886732     0.659194623274     1.007825032230
         H            2.165407278386     0.627142313268     1.774280223274     1.007825032230
         H            3.522924078386     0.657819113268     0.363889623274     1.007825032230
         H            0.725723078386     2.463058113268    -0.325821376726     1.007825032230

  Basis Set: AUG-CC-PVTZ
    Blend: AUG-CC-PVTZ
  Basis Set: (AUG-CC-PVTZ AUX)
    Blend: AUG-CC-PVTZ-JKFIT
	 Reference Energy          =    -518.4588261367987343 [Eh]
	 Singles Energy            =      -0.0000000000000000 [Eh]
	 Same-Spin Energy          =      -0.5091289291786965 [Eh]
	 Opposite-Spin Energy      =      -1.5402084905210280 [Eh]
	 Correlation Energy        =      -2.0493374196997243 [Eh]
	 Total Energy              =    -520.5081635564984026 [Eh]

	 ================> DF-SCS-MP2 Energies <==================
	-----------------------------------------------------------
	 SCS Same-Spin Scale       =       0.3333333333333333 [-]
	 SCS Opposite-Spin Scale   =       1.2000000000000000 [-]
	 SCS Same-Spin Energy      =      -0.1697096430595655 [Eh]
	 SCS Opposite-Spin Energy  =      -1.8482501886252336 [Eh]
	 SCS Correlation Energy    =      -2.0179598316847991 [Eh]
	 SCS Total Energy          =    -520.4767859684835685 [Eh]
	-----------------------------------------------------------

  Dipole Moment: [D]
     X:     0.6002      Y:    -0.2078      Z:     1.0227     Total:     1.2039

*** Psi4 exiting successfully. Buy a developer a beer!
