                               Psi4 1.4a3.dev225

  ==> Input File <==

--------------------------------------------------------------------------
#psi4
#
memory 32 gb

molecule  {
0 1
  F        0.8801740    -2.1570240    -0.2741980
  O        1.6462780     0.5481910    -0.4350190
  O       -0.2367630     2.4625430    -0.1451660
  C        0.3476580     0.1463710    -0.1857710
  C       -0.6195240     1.1555560    -0.0645140
  C       -0.0882815    -1.0927113    -0.1255723
  C       -1.9594950     0.8272070     0.1461580
  C       -1.3851280    -1.5362190     0.0940810
  C       -2.3313710    -0.5151580     0.2215980
  C        2.5704260     0.1676860     0.6054290
  H       -2.6878360     1.6271100     0.2387920
  H       -1.6577150    -2.5857400     0.1384780
  H       -3.3736110    -0.7729470     0.3882060
  H        2.6849170    -0.9163680     0.6377720
  H        2.2243420     0.5379400     1.5755890
  H        3.5186220     0.6362700     0.3424670
  H        0.7214210     2.4415090    -0.3472440
units angstrom
no_reorient  #important for SAPT in psi4, default
symmetry c1  #important for SAPT in psi4, default
}

set PROPERTIES_ORIGIN ["COM"]
properties('MP2/aug-cc-pvtz', properties = ['dipole'])
--------------------------------------------------------------------------

    Molecular point group: c1
  Charge       = 0
  Multiplicity = 1
  Basis Set: AUG-CC-PVTZ
    Blend: AUG-CC-PVTZ
  Basis Set: (AUG-CC-PVTZ AUX)
    Blend: AUG-CC-PVTZ-JKFIT

    Orbital Energies [Eh]
    ---------------------

    Doubly Occupied:

       1A    -26.294009     2A    -20.602738     3A    -20.599556
       4A    -11.333772     5A    -11.320144     6A    -11.302021
       7A    -11.292083     8A    -11.257728     9A    -11.247415
      10A    -11.241455    11A     -1.583860    12A     -1.430682
      13A     -1.398076    14A     -1.173363    15A     -1.044129
      16A     -1.022110    17A     -0.950807    18A     -0.859969
      19A     -0.843185    20A     -0.760267    21A     -0.731254
      22A     -0.702860    23A     -0.676366    24A     -0.663551
      25A     -0.651502    26A     -0.649496    27A     -0.629284
      28A     -0.622920    29A     -0.593389    30A     -0.574523
      31A     -0.559800    32A     -0.543651    33A     -0.521104
      34A     -0.499551    35A     -0.477908    36A     -0.358325
      37A     -0.326518

  @DF-RHF Final Energy:  -518.46643572563869

   => Energetics <=

    Nuclear Repulsion Energy =            529.7227941645696774
    One-Electron Energy =               -1761.6997231421055403
    Two-Electron Energy =                 713.5104932518971736
    Total Energy =                       -518.4664357256386893
  Basis Set: (AUG-CC-PVTZ AUX)
    Blend: AUG-CC-PVTZ-RI
    Molecular point group: c1

    Geometry (in Angstrom), charge = 0, multiplicity = 1:

       Center              X                  Y                   Z               Mass
    ------------   -----------------  -----------------  -----------------  -----------------
         F            0.886371295719    -2.142834980193    -0.251704128412    18.998403162730
         O            1.652475295719     0.562380019807    -0.412525128412    15.994914619570
         O           -0.230565704281     2.476732019807    -0.122672128412    15.994914619570
         C            0.353855295719     0.160560019807    -0.163277128412    12.000000000000
         C           -0.613326704281     1.169745019807    -0.042020128412    12.000000000000
         C           -0.082084204281    -1.078522280193    -0.103078428412    12.000000000000
         C           -1.953297704281     0.841396019807     0.168651871588    12.000000000000
         C           -1.378930704281    -1.522029980193     0.116574871588    12.000000000000
         C           -2.325173704281    -0.500968980193     0.244091871588    12.000000000000
         C            2.576623295719     0.181875019807     0.627922871588    12.000000000000
         H           -2.681638704281     1.641299019807     0.261285871588     1.007825032230
         H           -1.651517704281    -2.571550980193     0.160971871588     1.007825032230
         H           -3.367413704281    -0.758757980193     0.410699871588     1.007825032230
         H            2.691114295719    -0.902178980193     0.660265871588     1.007825032230
         H            2.230539295719     0.552129019807     1.598082871588     1.007825032230
         H            3.524819295719     0.650459019807     0.364960871588     1.007825032230
         H            0.727618295719     2.455698019807    -0.324750128412     1.007825032230

  Basis Set: AUG-CC-PVTZ
    Blend: AUG-CC-PVTZ
  Basis Set: (AUG-CC-PVTZ AUX)
    Blend: AUG-CC-PVTZ-JKFIT
	 Reference Energy          =    -518.4664357256386893 [Eh]
	 Singles Energy            =      -0.0000000000000000 [Eh]
	 Same-Spin Energy          =      -0.5090639666416468 [Eh]
	 Opposite-Spin Energy      =      -1.5399354178814255 [Eh]
	 Correlation Energy        =      -2.0489993845230723 [Eh]
	 Total Energy              =    -520.5154351101617749 [Eh]

	 ================> DF-SCS-MP2 Energies <==================
	-----------------------------------------------------------
	 SCS Same-Spin Scale       =       0.3333333333333333 [-]
	 SCS Opposite-Spin Scale   =       1.2000000000000000 [-]
	 SCS Same-Spin Energy      =      -0.1696879888805489 [Eh]
	 SCS Opposite-Spin Energy  =      -1.8479225014577105 [Eh]
	 SCS Correlation Energy    =      -2.0176104903382592 [Eh]
	 SCS Total Energy          =    -520.4840462159769459 [Eh]
	-----------------------------------------------------------

  Dipole Moment: [D]
     X:     0.3714      Y:     0.2275      Z:     1.2318     Total:     1.3066

*** Psi4 exiting successfully. Buy a developer a beer!
