                               Psi4 1.4a3.dev225

  ==> Input File <==

--------------------------------------------------------------------------
#psi4
#
memory 32 gb

molecule  {
0 1
  F        0.8801740    -2.1570240    -0.2741980
  O        1.6703230     0.4549854    -0.4413333
  O       -0.2367630     2.4625430    -0.1451660
  C        0.3476580     0.1463710    -0.1857710
  C       -0.6195240     1.1555560    -0.0645140
  C       -0.0605370    -1.1855140    -0.1277800
  C       -1.9594950     0.8272070     0.1461580
  C       -1.3851280    -1.5362190     0.0940810
  C       -2.3313710    -0.5151580     0.2215980
  C        2.5704260     0.1676860     0.6054290
  H       -2.6878360     1.6271100     0.2387920
  H       -1.6577150    -2.5857400     0.1384780
  H       -3.3736110    -0.7729470     0.3882060
  H        2.6849170    -0.9163680     0.6377720
  H        2.2243420     0.5379400     1.5755890
  H        3.5186220     0.6362700     0.3424670
  H        0.7214210     2.4415090    -0.3472440
units angstrom
no_reorient  #important for SAPT in psi4, default
symmetry c1  #important for SAPT in psi4, default
}

set PROPERTIES_ORIGIN ["COM"]
properties('MP2/aug-cc-pvtz', properties = ['dipole'])
--------------------------------------------------------------------------

    Molecular point group: c1
  Charge       = 0
  Multiplicity = 1
  Basis Set: AUG-CC-PVTZ
    Blend: AUG-CC-PVTZ
  Basis Set: (AUG-CC-PVTZ AUX)
    Blend: AUG-CC-PVTZ-JKFIT

    Orbital Energies [Eh]
    ---------------------

    Doubly Occupied:

       1A    -26.317962     2A    -20.598988     3A    -20.595095
       4A    -11.338512     5A    -11.318571     6A    -11.304489
       7A    -11.286762     8A    -11.256386     9A    -11.244027
      10A    -11.241437    11A     -1.630068    12A     -1.429216
      13A     -1.400803    14A     -1.160203    15A     -1.032952
      16A     -1.022780    17A     -0.944607    18A     -0.854987
      19A     -0.850225    20A     -0.760987    21A     -0.748009
      22A     -0.713753    23A     -0.700449    24A     -0.677184
      25A     -0.654110    26A     -0.646551    27A     -0.638183
      28A     -0.627968    29A     -0.592701    30A     -0.575468
      31A     -0.551835    32A     -0.542181    33A     -0.517946
      34A     -0.488719    35A     -0.466314    36A     -0.344512
      37A     -0.327355

  @DF-RHF Final Energy:  -518.47852473652711

   => Energetics <=

    Nuclear Repulsion Energy =            529.4082626088255665
    One-Electron Energy =               -1760.9689834012499432
    Two-Electron Energy =                 713.0821960558973842
    Total Energy =                       -518.4785247365271061
  Basis Set: (AUG-CC-PVTZ AUX)
    Blend: AUG-CC-PVTZ-RI
    Molecular point group: c1

    Geometry (in Angstrom), charge = 0, multiplicity = 1:

       Center              X                  Y                   Z               Mass
    ------------   -----------------  -----------------  -----------------  -----------------
         F            0.881319785377    -2.124499350319    -0.250806589761    18.998403162730
         O            1.671468785377     0.487510049681    -0.417941889761    15.994914619570
         O           -0.235617214623     2.495067649681    -0.121774589761    15.994914619570
         C            0.348803785377     0.178895649681    -0.162379589761    12.000000000000
         C           -0.618378214623     1.188080649681    -0.041122589761    12.000000000000
         C           -0.059391214623    -1.152989350319    -0.104388589761    12.000000000000
         C           -1.958349214623     0.859731649681     0.169549410239    12.000000000000
         C           -1.383982214623    -1.503694350319     0.117472410239    12.000000000000
         C           -2.330225214623    -0.482633350319     0.244989410239    12.000000000000
         C            2.571571785377     0.200210649681     0.628820410239    12.000000000000
         H           -2.686690214623     1.659634649681     0.262183410239     1.007825032230
         H           -1.656569214623    -2.553215350319     0.161869410239     1.007825032230
         H           -3.372465214623    -0.740422350319     0.411597410239     1.007825032230
         H            2.686062785377    -0.883843350319     0.661163410239     1.007825032230
         H            2.225487785377     0.570464649681     1.598980410239     1.007825032230
         H            3.519767785377     0.668794649681     0.365858410239     1.007825032230
         H            0.722566785377     2.474033649681    -0.323852589761     1.007825032230

  Basis Set: AUG-CC-PVTZ
    Blend: AUG-CC-PVTZ
  Basis Set: (AUG-CC-PVTZ AUX)
    Blend: AUG-CC-PVTZ-JKFIT
	 Reference Energy          =    -518.4785247365271061 [Eh]
	 Singles Energy            =      -0.0000000000000000 [Eh]
	 Same-Spin Energy          =      -0.5085191064285579 [Eh]
	 Opposite-Spin Energy      =      -1.5373578630912155 [Eh]
	 Correlation Energy        =      -2.0458769695197736 [Eh]
	 Total Energy              =    -520.5244017060468877 [Eh]

	 ================> DF-SCS-MP2 Energies <==================
	-----------------------------------------------------------
	 SCS Same-Spin Scale       =       0.3333333333333333 [-]
	 SCS Opposite-Spin Scale   =       1.2000000000000000 [-]
	 SCS Same-Spin Energy      =      -0.1695063688095193 [Eh]
	 SCS Opposite-Spin Energy  =      -1.8448294357094586 [Eh]
	 SCS Correlation Energy    =      -2.0143358045189776 [Eh]
	 SCS Total Energy          =    -520.4928605410460705 [Eh]
	-----------------------------------------------------------

  Dipole Moment: [D]
     X:     0.4650      Y:    -0.0083      Z:     1.1421     Total:     1.2331

*** Psi4 exiting successfully. Buy a developer a beer!
