                               Psi4 1.4a3.dev225

  ==> Input File <==

--------------------------------------------------------------------------
#psi4
#
memory 32 gb

molecule  {
0 1
  F        0.8801740    -2.1570240    -0.2741980
  O        1.6613968     0.6441465    -0.4084827
  O       -0.2367630     2.4625430    -0.1451660
  C        0.3476580     0.1463710    -0.1857710
  C       -0.6195240     1.1555560    -0.0645140
  C       -0.0605370    -1.1855140    -0.1277800
  C       -1.9594950     0.8272070     0.1461580
  C       -1.3851280    -1.5362190     0.0940810
  C       -2.3313710    -0.5151580     0.2215980
  C        2.5704260     0.1676860     0.6054290
  H       -2.6878360     1.6271100     0.2387920
  H       -1.6577150    -2.5857400     0.1384780
  H       -3.3736110    -0.7729470     0.3882060
  H        2.6849170    -0.9163680     0.6377720
  H        2.2243420     0.5379400     1.5755890
  H        3.5186220     0.6362700     0.3424670
  H        0.7214210     2.4415090    -0.3472440
units angstrom
no_reorient  #important for SAPT in psi4, default
symmetry c1  #important for SAPT in psi4, default
}

set PROPERTIES_ORIGIN ["COM"]
properties('MP2/aug-cc-pvtz', properties = ['dipole'])
--------------------------------------------------------------------------

    Molecular point group: c1
  Charge       = 0
  Multiplicity = 1
  Basis Set: AUG-CC-PVTZ
    Blend: AUG-CC-PVTZ
  Basis Set: (AUG-CC-PVTZ AUX)
    Blend: AUG-CC-PVTZ-JKFIT

    Orbital Energies [Eh]
    ---------------------

    Doubly Occupied:

       1A    -26.319876     2A    -20.602139     3A    -20.593878
       4A    -11.343949     5A    -11.316223     6A    -11.306658
       7A    -11.289596     8A    -11.256805     9A    -11.245675
      10A    -11.240301    11A     -1.632275    12A     -1.422117
      13A     -1.387174    14A     -1.160858    15A     -1.030306
      16A     -1.022618    17A     -0.944538    18A     -0.853829
      19A     -0.850470    20A     -0.758746    21A     -0.747452
      22A     -0.708821    23A     -0.699655    24A     -0.678335
      25A     -0.653568    26A     -0.646947    27A     -0.635865
      28A     -0.612953    29A     -0.588503    30A     -0.573885
      31A     -0.555569    32A     -0.539406    33A     -0.515219
      34A     -0.494553    35A     -0.475689    36A     -0.346183
      37A     -0.326183

  @DF-RHF Final Energy:  -518.47376005086630

   => Energetics <=

    Nuclear Repulsion Energy =            527.9509510126753185
    One-Electron Energy =               -1758.0957912080232290
    Two-Electron Energy =                 711.6710801444817207
    Total Energy =                       -518.4737600508663036
  Basis Set: (AUG-CC-PVTZ AUX)
    Blend: AUG-CC-PVTZ-RI
    Molecular point group: c1

    Geometry (in Angstrom), charge = 0, multiplicity = 1:

       Center              X                  Y                   Z               Mass
    ------------   -----------------  -----------------  -----------------  -----------------
         F            0.882324930292    -2.145800051384    -0.254505768981    18.998403162730
         O            1.663547730292     0.655370448616    -0.388790468981    15.994914619570
         O           -0.234612069708     2.473766948616    -0.125473768981    15.994914619570
         C            0.349808930292     0.157594948616    -0.166078768981    12.000000000000
         C           -0.617373069708     1.166779948616    -0.044821768981    12.000000000000
         C           -0.058386069708    -1.174290051384    -0.108087768981    12.000000000000
         C           -1.957344069708     0.838430948616     0.165850231019    12.000000000000
         C           -1.382977069708    -1.524995051384     0.113773231019    12.000000000000
         C           -2.329220069708    -0.503934051384     0.241290231019    12.000000000000
         C            2.572576930292     0.178909948616     0.625121231019    12.000000000000
         H           -2.685685069708     1.638333948616     0.258484231019     1.007825032230
         H           -1.655564069708    -2.574516051384     0.158170231019     1.007825032230
         H           -3.371460069708    -0.761723051384     0.407898231019     1.007825032230
         H            2.687067930292    -0.905144051384     0.657464231019     1.007825032230
         H            2.226492930292     0.549163948616     1.595281231019     1.007825032230
         H            3.520772930292     0.647493948616     0.362159231019     1.007825032230
         H            0.723571930292     2.452732948616    -0.327551768981     1.007825032230

  Basis Set: AUG-CC-PVTZ
    Blend: AUG-CC-PVTZ
  Basis Set: (AUG-CC-PVTZ AUX)
    Blend: AUG-CC-PVTZ-JKFIT
	 Reference Energy          =    -518.4737600508663036 [Eh]
	 Singles Energy            =      -0.0000000000000000 [Eh]
	 Same-Spin Energy          =      -0.5093579525172491 [Eh]
	 Opposite-Spin Energy      =      -1.5398345215122322 [Eh]
	 Correlation Energy        =      -2.0491924740294811 [Eh]
	 Total Energy              =    -520.5229525248957998 [Eh]

	 ================> DF-SCS-MP2 Energies <==================
	-----------------------------------------------------------
	 SCS Same-Spin Scale       =       0.3333333333333333 [-]
	 SCS Opposite-Spin Scale   =       1.2000000000000000 [-]
	 SCS Same-Spin Energy      =      -0.1697859841724164 [Eh]
	 SCS Opposite-Spin Energy  =      -1.8478014258146787 [Eh]
	 SCS Correlation Energy    =      -2.0175874099870952 [Eh]
	 SCS Total Energy          =    -520.4913474608533761 [Eh]
	-----------------------------------------------------------

  Dipole Moment: [D]
     X:     0.5383      Y:    -0.3370      Z:     1.1273     Total:     1.2939

*** Psi4 exiting successfully. Buy a developer a beer!
