                               Psi4 1.4a3.dev225

  ==> Input File <==

--------------------------------------------------------------------------
#psi4
#
memory 32 gb

molecule  {
0 1
  F        0.8801740    -2.1570240    -0.2741980
  O        1.6462780     0.5481910    -0.4350190
  O       -0.2367630     2.4625430    -0.1451660
  C        0.3476580     0.1463710    -0.1857710
  C       -0.6195240     1.1555560    -0.0645140
  C       -0.0605370    -1.1855140    -0.1277800
  C       -2.1003852     0.8594615     0.1668842
  C       -1.3851280    -1.5362190     0.0940810
  C       -2.3313710    -0.5151580     0.2215980
  C        2.5704260     0.1676860     0.6054290
  H       -2.6878360     1.6271100     0.2387920
  H       -1.6577150    -2.5857400     0.1384780
  H       -3.3736110    -0.7729470     0.3882060
  H        2.6849170    -0.9163680     0.6377720
  H        2.2243420     0.5379400     1.5755890
  H        3.5186220     0.6362700     0.3424670
  H        0.7214210     2.4415090    -0.3472440
units angstrom
no_reorient  #important for SAPT in psi4, default
symmetry c1  #important for SAPT in psi4, default
}

set PROPERTIES_ORIGIN ["COM"]
properties('MP2/aug-cc-pvtz', properties = ['dipole'])
--------------------------------------------------------------------------

    Molecular point group: c1
  Charge       = 0
  Multiplicity = 1
  Basis Set: AUG-CC-PVTZ
    Blend: AUG-CC-PVTZ
  Basis Set: (AUG-CC-PVTZ AUX)
    Blend: AUG-CC-PVTZ-JKFIT

    Orbital Energies [Eh]
    ---------------------

    Doubly Occupied:

       1A    -26.320685     2A    -20.598701     3A    -20.598654
       4A    -11.344132     5A    -11.329431     6A    -11.301725
       7A    -11.291088     8A    -11.257268     9A    -11.245665
      10A    -11.242367    11A     -1.632752    12A     -1.426965
      13A     -1.395135    14A     -1.149873    15A     -1.033384
      16A     -1.011363    17A     -0.944458    18A     -0.862667
      19A     -0.844826    20A     -0.760124    21A     -0.747435
      22A     -0.723775    23A     -0.702789    24A     -0.678247
      25A     -0.654053    26A     -0.652272    27A     -0.629469
      28A     -0.619603    29A     -0.589457    30A     -0.585990
      31A     -0.556540    32A     -0.539339    33A     -0.504194
      34A     -0.488611    35A     -0.473073    36A     -0.346954
      37A     -0.315100

  @DF-RHF Final Energy:  -518.45023226005515

   => Energetics <=

    Nuclear Repulsion Energy =            526.2187731759498774
    One-Electron Energy =               -1754.5416854819818582
    Two-Electron Energy =                 709.8726800459767219
    Total Energy =                       -518.4502322600551452
  Basis Set: (AUG-CC-PVTZ AUX)
    Blend: AUG-CC-PVTZ-RI
    Molecular point group: c1

    Geometry (in Angstrom), charge = 0, multiplicity = 1:

       Center              X                  Y                   Z               Mass
    ------------   -----------------  -----------------  -----------------  -----------------
         F            0.895930009116    -2.137719780141    -0.253268598242    18.998403162730
         O            1.662034009116     0.567495219859    -0.414089598242    15.994914619570
         O           -0.221006990884     2.481847219859    -0.124236598242    15.994914619570
         C            0.363414009116     0.165675219859    -0.164841598242    12.000000000000
         C           -0.603767990884     1.174860219859    -0.043584598242    12.000000000000
         C           -0.044780990884    -1.166209780141    -0.106850598242    12.000000000000
         C           -2.084629190884     0.878765719859     0.187813601758    12.000000000000
         C           -1.369371990884    -1.516914780141     0.115010401758    12.000000000000
         C           -2.315614990884    -0.495853780141     0.242527401758    12.000000000000
         C            2.586182009116     0.186990219859     0.626358401758    12.000000000000
         H           -2.672079990884     1.646414219859     0.259721401758     1.007825032230
         H           -1.641958990884    -2.566435780141     0.159407401758     1.007825032230
         H           -3.357854990884    -0.753642780141     0.409135401758     1.007825032230
         H            2.700673009116    -0.897063780141     0.658701401758     1.007825032230
         H            2.240098009116     0.557244219859     1.596518401758     1.007825032230
         H            3.534378009116     0.655574219859     0.363396401758     1.007825032230
         H            0.737177009116     2.460813219859    -0.326314598242     1.007825032230

  Basis Set: AUG-CC-PVTZ
    Blend: AUG-CC-PVTZ
  Basis Set: (AUG-CC-PVTZ AUX)
    Blend: AUG-CC-PVTZ-JKFIT
	 Reference Energy          =    -518.4502322600551452 [Eh]
	 Singles Energy            =      -0.0000000000000000 [Eh]
	 Same-Spin Energy          =      -0.5088038109876276 [Eh]
	 Opposite-Spin Energy      =      -1.5402161904968292 [Eh]
	 Correlation Energy        =      -2.0490200014844566 [Eh]
	 Total Energy              =    -520.4992522615395956 [Eh]

	 ================> DF-SCS-MP2 Energies <==================
	-----------------------------------------------------------
	 SCS Same-Spin Scale       =       0.3333333333333333 [-]
	 SCS Opposite-Spin Scale   =       1.2000000000000000 [-]
	 SCS Same-Spin Energy      =      -0.1696012703292092 [Eh]
	 SCS Opposite-Spin Energy  =      -1.8482594285961951 [Eh]
	 SCS Correlation Energy    =      -2.0178606989254044 [Eh]
	 SCS Total Energy          =    -520.4680929589806055 [Eh]
	-----------------------------------------------------------

  Dipole Moment: [D]
     X:     0.7035      Y:    -0.0536      Z:     1.1593     Total:     1.3571

*** Psi4 exiting successfully. Buy a developer a beer!
