                               Psi4 1.4a3.dev225

  ==> Input File <==

--------------------------------------------------------------------------
#psi4
#
memory 32 gb

molecule  {
0 1
  F        0.8801740    -2.1570240    -0.2741980
  O        1.6462780     0.5481910    -0.4350190
  O       -0.2367630     2.4625430    -0.1451660
  C        0.3476580     0.1463710    -0.1857710
  C       -0.6195240     1.1555560    -0.0645140
  C       -0.0605370    -1.1855140    -0.1277800
  C       -1.9594950     0.8272070     0.1461580
  C       -1.3851280    -1.5362190     0.0940810
  C       -2.3313710    -0.5151580     0.2215980
  C        2.5704260     0.1676860     0.6054290
  H       -2.6878360     1.6271100     0.2387920
  H       -1.6577150    -2.5857400     0.1384780
  H       -3.3736110    -0.7729470     0.3882060
  H        2.6639203    -0.7175617     0.6318406
  H        2.2243420     0.5379400     1.5755890
  H        3.5186220     0.6362700     0.3424670
  H        0.7214210     2.4415090    -0.3472440
units angstrom
no_reorient  #important for SAPT in psi4, default
symmetry c1  #important for SAPT in psi4, default
}

set PROPERTIES_ORIGIN ["COM"]
properties('MP2/aug-cc-pvtz', properties = ['dipole'])
--------------------------------------------------------------------------

    Molecular point group: c1
  Charge       = 0
  Multiplicity = 1
  Basis Set: AUG-CC-PVTZ
    Blend: AUG-CC-PVTZ
  Basis Set: (AUG-CC-PVTZ AUX)
    Blend: AUG-CC-PVTZ-JKFIT

    Orbital Energies [Eh]
    ---------------------

    Doubly Occupied:

       1A    -26.318474     2A    -20.596685     3A    -20.595259
       4A    -11.339029     5A    -11.314986     6A    -11.303261
       7A    -11.268706     8A    -11.254873     9A    -11.243734
      10A    -11.239584    11A     -1.630514    12A     -1.426040
      13A     -1.394014    14A     -1.158827    15A     -1.034062
      16A     -1.022274    17A     -0.970401    18A     -0.853752
      19A     -0.852263    20A     -0.760047    21A     -0.747507
      22A     -0.717105    23A     -0.701717    24A     -0.677265
      25A     -0.668418    26A     -0.649211    27A     -0.634973
      28A     -0.627267    29A     -0.589548    30A     -0.573344
      31A     -0.557846    32A     -0.541403    33A     -0.520420
      34A     -0.493740    35A     -0.477764    36A     -0.343211
      37A     -0.324780

  @DF-RHF Final Energy:  -518.44487050813382

   => Energetics <=

    Nuclear Repulsion Energy =            529.9060231184876102
    One-Electron Energy =               -1761.8571807043510944
    Two-Electron Energy =                 713.5062870777296666
    Total Energy =                       -518.4448705081338176
  Basis Set: (AUG-CC-PVTZ AUX)
    Blend: AUG-CC-PVTZ-RI
    Molecular point group: c1

    Geometry (in Angstrom), charge = 0, multiplicity = 1:

       Center              X                  Y                   Z               Mass
    ------------   -----------------  -----------------  -----------------  -----------------
         F            0.884176375987    -2.136405445578    -0.251475534171    18.998403162730
         O            1.650280375987     0.568809554422    -0.412296534171    15.994914619570
         O           -0.232760624013     2.483161554422    -0.122443534171    15.994914619570
         C            0.351660375987     0.166989554422    -0.163048534171    12.000000000000
         C           -0.615521624013     1.176174554422    -0.041791534171    12.000000000000
         C           -0.056534624013    -1.164895445578    -0.105057534171    12.000000000000
         C           -1.955492624013     0.847825554422     0.168880465829    12.000000000000
         C           -1.381125624013    -1.515600445578     0.116803465829    12.000000000000
         C           -2.327368624013    -0.494539445578     0.244320465829    12.000000000000
         C            2.574428375987     0.188304554422     0.628151465829    12.000000000000
         H           -2.683833624013     1.647728554422     0.261514465829     1.007825032230
         H           -1.653712624013    -2.565121445578     0.161200465829     1.007825032230
         H           -3.369608624013    -0.752328445578     0.410928465829     1.007825032230
         H            2.667922675987    -0.696943145578     0.654563065829     1.007825032230
         H            2.228344375987     0.558558554422     1.598311465829     1.007825032230
         H            3.522624375987     0.656888554422     0.365189465829     1.007825032230
         H            0.725423375987     2.462127554422    -0.324521534171     1.007825032230

  Basis Set: AUG-CC-PVTZ
    Blend: AUG-CC-PVTZ
  Basis Set: (AUG-CC-PVTZ AUX)
    Blend: AUG-CC-PVTZ-JKFIT
	 Reference Energy          =    -518.4448705081338176 [Eh]
	 Singles Energy            =      -0.0000000000000000 [Eh]
	 Same-Spin Energy          =      -0.5087086617038137 [Eh]
	 Opposite-Spin Energy      =      -1.5374490142073491 [Eh]
	 Correlation Energy        =      -2.0461576759111626 [Eh]
	 Total Energy              =    -520.4910281840450352 [Eh]

	 ================> DF-SCS-MP2 Energies <==================
	-----------------------------------------------------------
	 SCS Same-Spin Scale       =       0.3333333333333333 [-]
	 SCS Opposite-Spin Scale   =       1.2000000000000000 [-]
	 SCS Same-Spin Energy      =      -0.1695695539012712 [Eh]
	 SCS Opposite-Spin Energy  =      -1.8449388170488188 [Eh]
	 SCS Correlation Energy    =      -2.0145083709500899 [Eh]
	 SCS Total Energy          =    -520.4593788790839426 [Eh]
	-----------------------------------------------------------

  Dipole Moment: [D]
     X:     0.7085      Y:    -0.1927      Z:     1.2007     Total:     1.4074

*** Psi4 exiting successfully. Buy a developer a beer!
