                               Psi4 1.4a3.dev225

  ==> Input File <==

--------------------------------------------------------------------------
#psi4
#
memory 32 gb

molecule  {
0 1
  F        0.8801740    -2.1570240    -0.2741980
  O        1.6462780     0.5481910    -0.4350190
  O       -0.2367630     2.4625430    -0.1451660
  C        0.3476580     0.1463710    -0.1857710
  C       -0.6195240     1.1555560    -0.0645140
  C       -0.0019825    -0.9944586    -0.1360987
  C       -1.9594950     0.8272070     0.1461580
  C       -1.3851280    -1.5362190     0.0940810
  C       -2.3313710    -0.5151580     0.2215980
  C        2.5704260     0.1676860     0.6054290
  H       -2.6878360     1.6271100     0.2387920
  H       -1.6577150    -2.5857400     0.1384780
  H       -3.3736110    -0.7729470     0.3882060
  H        2.6849170    -0.9163680     0.6377720
  H        2.2243420     0.5379400     1.5755890
  H        3.5186220     0.6362700     0.3424670
  H        0.7214210     2.4415090    -0.3472440
units angstrom
no_reorient  #important for SAPT in psi4, default
symmetry c1  #important for SAPT in psi4, default
}

set PROPERTIES_ORIGIN ["COM"]
properties('MP2/aug-cc-pvtz', properties = ['dipole'])
--------------------------------------------------------------------------

    Molecular point group: c1
  Charge       = 0
  Multiplicity = 1
  Basis Set: AUG-CC-PVTZ
    Blend: AUG-CC-PVTZ
  Basis Set: (AUG-CC-PVTZ AUX)
    Blend: AUG-CC-PVTZ-JKFIT

    Orbital Energies [Eh]
    ---------------------

    Doubly Occupied:

       1A    -26.291394     2A    -20.603406     3A    -20.602923
       4A    -11.327582     5A    -11.324266     6A    -11.294006
       7A    -11.290721     8A    -11.256275     9A    -11.255005
      10A    -11.238873    11A     -1.576014    12A     -1.435117
      13A     -1.401730    14A     -1.182125    15A     -1.064593
      16A     -1.005777    17A     -0.955098    18A     -0.869461
      19A     -0.834432    20A     -0.762606    21A     -0.731556
      22A     -0.700579    23A     -0.679221    24A     -0.660896
      25A     -0.654813    26A     -0.647165    27A     -0.625241
      28A     -0.617575    29A     -0.596398    30A     -0.575752
      31A     -0.560054    32A     -0.546026    33A     -0.511427
      34A     -0.500816    35A     -0.478788    36A     -0.380717
      37A     -0.315919

  @DF-RHF Final Energy:  -518.41537771108119

   => Energetics <=

    Nuclear Repulsion Energy =            531.0025091042034546
    One-Electron Energy =               -1764.1270728724618948
    Two-Electron Energy =                 714.7091860571772486
    Total Energy =                       -518.4153777110811916
  Basis Set: (AUG-CC-PVTZ AUX)
    Blend: AUG-CC-PVTZ-RI
    Molecular point group: c1

    Geometry (in Angstrom), charge = 0, multiplicity = 1:

       Center              X                  Y                   Z               Mass
    ------------   -----------------  -----------------  -----------------  -----------------
         F            0.879080630608    -2.151135511276    -0.250814842820    18.998403162730
         O            1.645184630608     0.554079488724    -0.411635842820    15.994914619570
         O           -0.237856369392     2.468431488724    -0.121782842820    15.994914619570
         C            0.346564630608     0.152259488724    -0.162387842820    12.000000000000
         C           -0.620617369392     1.161444488724    -0.041130842820    12.000000000000
         C           -0.003075869392    -0.988570111276    -0.112715542820    12.000000000000
         C           -1.960588369392     0.833095488724     0.169541157180    12.000000000000
         C           -1.386221369392    -1.530330511276     0.117464157180    12.000000000000
         C           -2.332464369392    -0.509269511276     0.244981157180    12.000000000000
         C            2.569332630608     0.173574488724     0.628812157180    12.000000000000
         H           -2.688929369392     1.632998488724     0.262175157180     1.007825032230
         H           -1.658808369392    -2.579851511276     0.161861157180     1.007825032230
         H           -3.374704369392    -0.767058511276     0.411589157180     1.007825032230
         H            2.683823630608    -0.910479511276     0.661155157180     1.007825032230
         H            2.223248630608     0.543828488724     1.598972157180     1.007825032230
         H            3.517528630608     0.642158488724     0.365850157180     1.007825032230
         H            0.720327630608     2.447397488724    -0.323860842820     1.007825032230

  Basis Set: AUG-CC-PVTZ
    Blend: AUG-CC-PVTZ
  Basis Set: (AUG-CC-PVTZ AUX)
    Blend: AUG-CC-PVTZ-JKFIT
	 Reference Energy          =    -518.4153777110811916 [Eh]
	 Singles Energy            =      -0.0000000000000000 [Eh]
	 Same-Spin Energy          =      -0.5077164280145490 [Eh]
	 Opposite-Spin Energy      =      -1.5410749438176752 [Eh]
	 Correlation Energy        =      -2.0487913718322242 [Eh]
	 Total Energy              =    -520.4641690829133722 [Eh]

	 ================> DF-SCS-MP2 Energies <==================
	-----------------------------------------------------------
	 SCS Same-Spin Scale       =       0.3333333333333333 [-]
	 SCS Opposite-Spin Scale   =       1.2000000000000000 [-]
	 SCS Same-Spin Energy      =      -0.1692388093381830 [Eh]
	 SCS Opposite-Spin Energy  =      -1.8492899325812102 [Eh]
	 SCS Correlation Energy    =      -2.0185287419193934 [Eh]
	 SCS Total Energy          =    -520.4339064530005317 [Eh]
	-----------------------------------------------------------

  Dipole Moment: [D]
     X:     0.4665      Y:     0.4063      Z:     1.2270     Total:     1.3741

*** Psi4 exiting successfully. Buy a developer a beer!
