                               Psi4 1.4a3.dev225

  ==> Input File <==

--------------------------------------------------------------------------
#psi4
#
memory 32 gb

molecule  {
0 1
  F        0.8801740    -2.1570240    -0.2741980
  O        1.6462780     0.5481910    -0.4350190
  O       -0.2367630     2.4625430    -0.1451660
  C        0.3476580     0.1463710    -0.1857710
  C       -0.5999552     1.0601453    -0.0662313
  C       -0.0605370    -1.1855140    -0.1277800
  C       -1.9594950     0.8272070     0.1461580
  C       -1.3851280    -1.5362190     0.0940810
  C       -2.3313710    -0.5151580     0.2215980
  C        2.5704260     0.1676860     0.6054290
  H       -2.6878360     1.6271100     0.2387920
  H       -1.6577150    -2.5857400     0.1384780
  H       -3.3736110    -0.7729470     0.3882060
  H        2.6849170    -0.9163680     0.6377720
  H        2.2243420     0.5379400     1.5755890
  H        3.5186220     0.6362700     0.3424670
  H        0.7214210     2.4415090    -0.3472440
units angstrom
no_reorient  #important for SAPT in psi4, default
symmetry c1  #important for SAPT in psi4, default
}

set PROPERTIES_ORIGIN ["COM"]
properties('MP2/aug-cc-pvtz', properties = ['dipole'])
--------------------------------------------------------------------------

    Molecular point group: c1
  Charge       = 0
  Multiplicity = 1
  Basis Set: AUG-CC-PVTZ
    Blend: AUG-CC-PVTZ
  Basis Set: (AUG-CC-PVTZ AUX)
    Blend: AUG-CC-PVTZ-JKFIT

    Orbital Energies [Eh]
    ---------------------

    Doubly Occupied:

       1A    -26.320851     2A    -20.600437     3A    -20.581935
       4A    -11.343051     5A    -11.306866     6A    -11.300443
       7A    -11.292541     8A    -11.257024     9A    -11.248153
      10A    -11.245416    11A     -1.633225    12A     -1.420357
      13A     -1.362855    14A     -1.171425    15A     -1.042517
      16A     -1.024727    17A     -0.949385    18A     -0.863746
      19A     -0.847390    20A     -0.751415    21A     -0.743187
      22A     -0.714143    23A     -0.703127    24A     -0.667838
      25A     -0.656582    26A     -0.651576    27A     -0.630823
      28A     -0.614562    29A     -0.574180    30A     -0.570118
      31A     -0.551671    32A     -0.545118    33A     -0.520791
      34A     -0.492273    35A     -0.476371    36A     -0.348714
      37A     -0.337344

  @DF-RHF Final Energy:  -518.46680703020081

   => Energetics <=

    Nuclear Repulsion Energy =            529.8945651645933594
    One-Electron Energy =               -1761.9983809435489093
    Two-Electron Energy =                 713.6370087487547380
    Total Energy =                       -518.4668070302008118
  Basis Set: (AUG-CC-PVTZ AUX)
    Blend: AUG-CC-PVTZ-RI
    Molecular point group: c1

    Geometry (in Angstrom), charge = 0, multiplicity = 1:

       Center              X                  Y                   Z               Mass
    ------------   -----------------  -----------------  -----------------  -----------------
         F            0.882374199280    -2.126934438253    -0.251372538699    18.998403162730
         O            1.648478199280     0.578280561747    -0.412193538699    15.994914619570
         O           -0.234562800720     2.492632561747    -0.122340538699    15.994914619570
         C            0.349858199280     0.176460561747    -0.162945538699    12.000000000000
         C           -0.597755000720     1.090234861747    -0.043405838699    12.000000000000
         C           -0.058336800720    -1.155424438253    -0.104954538699    12.000000000000
         C           -1.957294800720     0.857296561747     0.168983461301    12.000000000000
         C           -1.382927800720    -1.506129438253     0.116906461301    12.000000000000
         C           -2.329170800720    -0.485068438253     0.244423461301    12.000000000000
         C            2.572626199280     0.197775561747     0.628254461301    12.000000000000
         H           -2.685635800720     1.657199561747     0.261617461301     1.007825032230
         H           -1.655514800720    -2.555650438253     0.161303461301     1.007825032230
         H           -3.371410800720    -0.742857438253     0.411031461301     1.007825032230
         H            2.687117199280    -0.886278438253     0.660597461301     1.007825032230
         H            2.226542199280     0.568029561747     1.598414461301     1.007825032230
         H            3.520822199280     0.666359561747     0.365292461301     1.007825032230
         H            0.723621199280     2.471598561747    -0.324418538699     1.007825032230

  Basis Set: AUG-CC-PVTZ
    Blend: AUG-CC-PVTZ
  Basis Set: (AUG-CC-PVTZ AUX)
    Blend: AUG-CC-PVTZ-JKFIT
	 Reference Energy          =    -518.4668070302008118 [Eh]
	 Singles Energy            =      -0.0000000000000000 [Eh]
	 Same-Spin Energy          =      -0.5088923318152225 [Eh]
	 Opposite-Spin Energy      =      -1.5396521871316784 [Eh]
	 Correlation Energy        =      -2.0485445189469011 [Eh]
	 Total Energy              =    -520.5153515491476810 [Eh]

	 ================> DF-SCS-MP2 Energies <==================
	-----------------------------------------------------------
	 SCS Same-Spin Scale       =       0.3333333333333333 [-]
	 SCS Opposite-Spin Scale   =       1.2000000000000000 [-]
	 SCS Same-Spin Energy      =      -0.1696307772717408 [Eh]
	 SCS Opposite-Spin Energy  =      -1.8475826245580140 [Eh]
	 SCS Correlation Energy    =      -2.0172134018297547 [Eh]
	 SCS Total Energy          =    -520.4840204320305475 [Eh]
	-----------------------------------------------------------

  Dipole Moment: [D]
     X:     0.4810      Y:    -0.6568      Z:     1.2192     Total:     1.4661

*** Psi4 exiting successfully. Buy a developer a beer!
