                               Psi4 1.4a3.dev225

  ==> Input File <==

--------------------------------------------------------------------------
#psi4
#
memory 32 gb

molecule  {
0 1
  F        0.8801740    -2.1570240    -0.2741980
  O        1.6462780     0.5481910    -0.4350190
  O       -0.2367630     2.4625430    -0.1451660
  C        0.3476580     0.1463710    -0.1857710
  C       -0.6195240     1.1555560    -0.0645140
  C       -0.1190915    -1.3765694    -0.1194613
  C       -1.9594950     0.8272070     0.1461580
  C       -1.3851280    -1.5362190     0.0940810
  C       -2.3313710    -0.5151580     0.2215980
  C        2.5704260     0.1676860     0.6054290
  H       -2.6878360     1.6271100     0.2387920
  H       -1.6577150    -2.5857400     0.1384780
  H       -3.3736110    -0.7729470     0.3882060
  H        2.6849170    -0.9163680     0.6377720
  H        2.2243420     0.5379400     1.5755890
  H        3.5186220     0.6362700     0.3424670
  H        0.7214210     2.4415090    -0.3472440
units angstrom
no_reorient  #important for SAPT in psi4, default
symmetry c1  #important for SAPT in psi4, default
}

set PROPERTIES_ORIGIN ["COM"]
properties('MP2/aug-cc-pvtz', properties = ['dipole'])
--------------------------------------------------------------------------

    Molecular point group: c1
  Charge       = 0
  Multiplicity = 1
  Basis Set: AUG-CC-PVTZ
    Blend: AUG-CC-PVTZ
  Basis Set: (AUG-CC-PVTZ AUX)
    Blend: AUG-CC-PVTZ-JKFIT

    Orbital Energies [Eh]
    ---------------------

    Doubly Occupied:

       1A    -26.344453     2A    -20.595376     3A    -20.587748
       4A    -11.346932     5A    -11.305429     6A    -11.304229
       7A    -11.289172     8A    -11.253487     9A    -11.242372
      10A    -11.233765    11A     -1.685714    12A     -1.419153
      13A     -1.387663    14A     -1.152702    15A     -1.039711
      16A     -1.006324    17A     -0.940516    18A     -0.863217
      19A     -0.849294    20A     -0.769527    21A     -0.761528
      22A     -0.738530    23A     -0.715007    24A     -0.678285
      25A     -0.657036    26A     -0.649422    27A     -0.626279
      28A     -0.610921    29A     -0.583103    30A     -0.574131
      31A     -0.551113    32A     -0.527638    33A     -0.513213
      34A     -0.485258    35A     -0.455659    36A     -0.345538
      37A     -0.310113

  @DF-RHF Final Energy:  -518.43714411806604

   => Energetics <=

    Nuclear Repulsion Energy =            527.5129666415186875
    One-Electron Energy =               -1757.1011093061131305
    Two-Electron Energy =                 711.1509985465283989
    Total Energy =                       -518.4371441180660440
  Basis Set: (AUG-CC-PVTZ AUX)
    Blend: AUG-CC-PVTZ-RI
    Molecular point group: c1

    Geometry (in Angstrom), charge = 0, multiplicity = 1:

       Center              X                  Y                   Z               Mass
    ------------   -----------------  -----------------  -----------------  -----------------
         F            0.888974169357    -2.118854234805    -0.252220394585    18.998403162730
         O            1.655078169357     0.586360765195    -0.413041394585    15.994914619570
         O           -0.227962830643     2.500712765195    -0.123188394585    15.994914619570
         C            0.356458169357     0.184540765195    -0.163793394585    12.000000000000
         C           -0.610723830643     1.193725765195    -0.042536394585    12.000000000000
         C           -0.110291330643    -1.338399634805    -0.097483694585    12.000000000000
         C           -1.950694830643     0.865376765195     0.168135605415    12.000000000000
         C           -1.376327830643    -1.498049234805     0.116058605415    12.000000000000
         C           -2.322570830643    -0.476988234805     0.243575605415    12.000000000000
         C            2.579226169357     0.205855765195     0.627406605415    12.000000000000
         H           -2.679035830643     1.665279765195     0.260769605415     1.007825032230
         H           -1.648914830643    -2.547570234805     0.160455605415     1.007825032230
         H           -3.364810830643    -0.734777234805     0.410183605415     1.007825032230
         H            2.693717169357    -0.878198234805     0.659749605415     1.007825032230
         H            2.233142169357     0.576109765195     1.597566605415     1.007825032230
         H            3.527422169357     0.674439765195     0.364444605415     1.007825032230
         H            0.730221169357     2.479678765195    -0.325266394585     1.007825032230

  Basis Set: AUG-CC-PVTZ
    Blend: AUG-CC-PVTZ
  Basis Set: (AUG-CC-PVTZ AUX)
    Blend: AUG-CC-PVTZ-JKFIT
	 Reference Energy          =    -518.4371441180660440 [Eh]
	 Singles Energy            =      -0.0000000000000000 [Eh]
	 Same-Spin Energy          =      -0.5086813827598142 [Eh]
	 Opposite-Spin Energy      =      -1.5397420825939463 [Eh]
	 Correlation Energy        =      -2.0484234653537605 [Eh]
	 Total Energy              =    -520.4855675834197655 [Eh]

	 ================> DF-SCS-MP2 Energies <==================
	-----------------------------------------------------------
	 SCS Same-Spin Scale       =       0.3333333333333333 [-]
	 SCS Opposite-Spin Scale   =       1.2000000000000000 [-]
	 SCS Same-Spin Energy      =      -0.1695604609199381 [Eh]
	 SCS Opposite-Spin Energy  =      -1.8476904991127354 [Eh]
	 SCS Correlation Energy    =      -2.0172509600326736 [Eh]
	 SCS Total Energy          =    -520.4543950780987416 [Eh]
	-----------------------------------------------------------

  Dipole Moment: [D]
     X:     0.8469      Y:    -0.7834      Z:     1.1085     Total:     1.6000

*** Psi4 exiting successfully. Buy a developer a beer!
