                               Psi4 1.4a3.dev225

  ==> Input File <==

--------------------------------------------------------------------------
#psi4
#
memory 32 gb

molecule  {
0 1
  F        0.8801740    -2.1570240    -0.2741980
  O        1.6462780     0.5481910    -0.4350190
  O       -0.2367630     2.4625430    -0.1451660
  C        0.3476580     0.1463710    -0.1857710
  C       -0.6195240     1.1555560    -0.0645140
  C       -0.0605370    -1.1855140    -0.1277800
  C       -1.9594950     0.8272070     0.1461580
  C       -1.3851280    -1.5362190     0.0940810
  C       -2.3313710    -0.5151580     0.2215980
  C        2.5704260     0.1676860     0.6054290
  H       -2.6878360     1.6271100     0.2387920
  H       -1.6577150    -2.5857400     0.1384780
  H       -3.3736110    -0.7729470     0.3882060
  H        2.6849170    -0.9163680     0.6377720
  H        2.2875788     0.4702868     1.3983204
  H        3.5186220     0.6362700     0.3424670
  H        0.7214210     2.4415090    -0.3472440
units angstrom
no_reorient  #important for SAPT in psi4, default
symmetry c1  #important for SAPT in psi4, default
}

set PROPERTIES_ORIGIN ["COM"]
properties('MP2/aug-cc-pvtz', properties = ['dipole'])
--------------------------------------------------------------------------

    Molecular point group: c1
  Charge       = 0
  Multiplicity = 1
  Basis Set: AUG-CC-PVTZ
    Blend: AUG-CC-PVTZ
  Basis Set: (AUG-CC-PVTZ AUX)
    Blend: AUG-CC-PVTZ-JKFIT

    Orbital Energies [Eh]
    ---------------------

    Doubly Occupied:

       1A    -26.317847     2A    -20.596333     3A    -20.595537
       4A    -11.338977     5A    -11.314995     6A    -11.303336
       7A    -11.267157     8A    -11.254830     9A    -11.243746
      10A    -11.239656    11A     -1.630132    12A     -1.426102
      13A     -1.394028    14A     -1.158835    15A     -1.033817
      16A     -1.022193    17A     -0.969681    18A     -0.853740
      19A     -0.852933    20A     -0.759308    21A     -0.751328
      22A     -0.717054    23A     -0.701151    24A     -0.676555
      25A     -0.662085    26A     -0.645820    27A     -0.637958
      28A     -0.625340    29A     -0.591391    30A     -0.573463
      31A     -0.556742    32A     -0.546382    33A     -0.522355
      34A     -0.490447    35A     -0.476048    36A     -0.343040
      37A     -0.324771

  @DF-RHF Final Energy:  -518.44570663534921

   => Energetics <=

    Nuclear Repulsion Energy =            529.9725904512848729
    One-Electron Energy =               -1762.0063635654958034
    Two-Electron Energy =                 713.5880664788616059
    Total Energy =                       -518.4457066353492110
  Basis Set: (AUG-CC-PVTZ AUX)
    Blend: AUG-CC-PVTZ-RI
    Molecular point group: c1

    Geometry (in Angstrom), charge = 0, multiplicity = 1:

       Center              X                  Y                   Z               Mass
    ------------   -----------------  -----------------  -----------------  -----------------
         F            0.883578721578    -2.134514859349    -0.250259860679    18.998403162730
         O            1.649682721578     0.570700140651    -0.411080860679    15.994914619570
         O           -0.233358278422     2.485052140651    -0.121227860679    15.994914619570
         C            0.351062721578     0.168880140651    -0.161832860679    12.000000000000
         C           -0.616119278422     1.178065140651    -0.040575860679    12.000000000000
         C           -0.057132278422    -1.163004859349    -0.103841860679    12.000000000000
         C           -1.956090278422     0.849716140651     0.170096139321    12.000000000000
         C           -1.381723278422    -1.513709859349     0.118019139321    12.000000000000
         C           -2.327966278422    -0.492648859349     0.245536139321    12.000000000000
         C            2.573830721578     0.190195140651     0.629367139321    12.000000000000
         H           -2.684431278422     1.649619140651     0.262730139321     1.007825032230
         H           -1.654310278422    -2.563230859349     0.162416139321     1.007825032230
         H           -3.370206278422    -0.750437859349     0.412144139321     1.007825032230
         H            2.688321721578    -0.893858859349     0.661710139321     1.007825032230
         H            2.290983521578     0.492795940651     1.422258539321     1.007825032230
         H            3.522026721578     0.658779140651     0.366405139321     1.007825032230
         H            0.724825721578     2.464018140651    -0.323305860679     1.007825032230

  Basis Set: AUG-CC-PVTZ
    Blend: AUG-CC-PVTZ
  Basis Set: (AUG-CC-PVTZ AUX)
    Blend: AUG-CC-PVTZ-JKFIT
	 Reference Energy          =    -518.4457066353492110 [Eh]
	 Singles Energy            =      -0.0000000000000000 [Eh]
	 Same-Spin Energy          =      -0.5088830021979330 [Eh]
	 Opposite-Spin Energy      =      -1.5376242520281531 [Eh]
	 Correlation Energy        =      -2.0465072542260860 [Eh]
	 Total Energy              =    -520.4922138895752823 [Eh]

	 ================> DF-SCS-MP2 Energies <==================
	-----------------------------------------------------------
	 SCS Same-Spin Scale       =       0.3333333333333333 [-]
	 SCS Opposite-Spin Scale   =       1.2000000000000000 [-]
	 SCS Same-Spin Energy      =      -0.1696276673993110 [Eh]
	 SCS Opposite-Spin Energy  =      -1.8451491024337836 [Eh]
	 SCS Correlation Energy    =      -2.0147767698330945 [Eh]
	 SCS Total Energy          =    -520.4604834051823445 [Eh]
	-----------------------------------------------------------

  Dipole Moment: [D]
     X:     0.6862      Y:    -0.1444      Z:     1.2489     Total:     1.4323

*** Psi4 exiting successfully. Buy a developer a beer!
