                               Psi4 1.4a3.dev225

  ==> Input File <==

--------------------------------------------------------------------------
#psi4
#
memory 32 gb

molecule  {
0 1
  F        0.8801740    -2.1570240    -0.2741980
  O        1.6597011     0.5018569    -0.4351113
  O       -0.2367630     2.4625430    -0.1451660
  C        0.3476580     0.1463710    -0.1857710
  C       -0.6195240     1.1555560    -0.0645140
  C       -0.0605370    -1.1855140    -0.1277800
  C       -1.9594950     0.8272070     0.1461580
  C       -1.3851280    -1.5362190     0.0940810
  C       -2.3313710    -0.5151580     0.2215980
  C        2.5704260     0.1676860     0.6054290
  H       -2.6878360     1.6271100     0.2387920
  H       -1.6577150    -2.5857400     0.1384780
  H       -3.3736110    -0.7729470     0.3882060
  H        2.6849170    -0.9163680     0.6377720
  H        2.2243420     0.5379400     1.5755890
  H        3.5186220     0.6362700     0.3424670
  H        0.7214210     2.4415090    -0.3472440
units angstrom
no_reorient  #important for SAPT in psi4, default
symmetry c1  #important for SAPT in psi4, default
}

set PROPERTIES_ORIGIN ["COM"]
properties('MP2/aug-cc-pvtz', properties = ['dipole'])
--------------------------------------------------------------------------

    Molecular point group: c1
  Charge       = 0
  Multiplicity = 1
  Basis Set: AUG-CC-PVTZ
    Blend: AUG-CC-PVTZ
  Basis Set: (AUG-CC-PVTZ AUX)
    Blend: AUG-CC-PVTZ-JKFIT

    Orbital Energies [Eh]
    ---------------------

    Doubly Occupied:

       1A    -26.318199     2A    -20.597467     3A    -20.596866
       4A    -11.339041     5A    -11.317099     6A    -11.304251
       7A    -11.288646     8A    -11.255850     9A    -11.244065
      10A    -11.240733    11A     -1.630382    12A     -1.428323
      13A     -1.398153    14A     -1.159723    15A     -1.031805
      16A     -1.022405    17A     -0.945707    18A     -0.854486
      19A     -0.849963    20A     -0.760344    21A     -0.747846
      22A     -0.712859    23A     -0.700427    24A     -0.677085
      25A     -0.654362    26A     -0.646721    27A     -0.636586
      28A     -0.625411    29A     -0.591488    30A     -0.574677
      31A     -0.552654    32A     -0.541433    33A     -0.518654
      34A     -0.489487    35A     -0.469814    36A     -0.344082
      37A     -0.326366

  @DF-RHF Final Energy:  -518.47959980389146

   => Energetics <=

    Nuclear Repulsion Energy =            529.2358597643358280
    One-Electron Energy =               -1760.6440066402312823
    Two-Electron Energy =                 712.9285470720039939
    Total Energy =                       -518.4795998038914604
  Basis Set: (AUG-CC-PVTZ AUX)
    Blend: AUG-CC-PVTZ-RI
    Molecular point group: c1

    Geometry (in Angstrom), charge = 0, multiplicity = 1:

       Center              X                  Y                   Z               Mass
    ------------   -----------------  -----------------  -----------------  -----------------
         F            0.882515876522    -2.129777368949    -0.251507225156    18.998403162730
         O            1.662042976522     0.529103531051    -0.412420525156    15.994914619570
         O           -0.234421123478     2.489789631051    -0.122475225156    15.994914619570
         C            0.349999876522     0.173617631051    -0.163080225156    12.000000000000
         C           -0.617182123478     1.182802631051    -0.041823225156    12.000000000000
         C           -0.058195123478    -1.158267368949    -0.105089225156    12.000000000000
         C           -1.957153123478     0.854453631051     0.168848774844    12.000000000000
         C           -1.382786123478    -1.508972368949     0.116771774844    12.000000000000
         C           -2.329029123478    -0.487911368949     0.244288774844    12.000000000000
         C            2.572767876522     0.194932631051     0.628119774844    12.000000000000
         H           -2.685494123478     1.654356631051     0.261482774844     1.007825032230
         H           -1.655373123478    -2.558493368949     0.161168774844     1.007825032230
         H           -3.371269123478    -0.745700368949     0.410896774844     1.007825032230
         H            2.687258876522    -0.889121368949     0.660462774844     1.007825032230
         H            2.226683876522     0.565186631051     1.598279774844     1.007825032230
         H            3.520963876522     0.663516631051     0.365157774844     1.007825032230
         H            0.723762876522     2.468755631051    -0.324553225156     1.007825032230

  Basis Set: AUG-CC-PVTZ
    Blend: AUG-CC-PVTZ
  Basis Set: (AUG-CC-PVTZ AUX)
    Blend: AUG-CC-PVTZ-JKFIT
	 Reference Energy          =    -518.4795998038914604 [Eh]
	 Singles Energy            =      -0.0000000000000000 [Eh]
	 Same-Spin Energy          =      -0.5086574386928154 [Eh]
	 Opposite-Spin Energy      =      -1.5376994188773516 [Eh]
	 Correlation Energy        =      -2.0463568575701672 [Eh]
	 Total Energy              =    -520.5259566614615778 [Eh]

	 ================> DF-SCS-MP2 Energies <==================
	-----------------------------------------------------------
	 SCS Same-Spin Scale       =       0.3333333333333333 [-]
	 SCS Opposite-Spin Scale   =       1.2000000000000000 [-]
	 SCS Same-Spin Energy      =      -0.1695524795642718 [Eh]
	 SCS Opposite-Spin Energy  =      -1.8452393026528218 [Eh]
	 SCS Correlation Energy    =      -2.0147917822170935 [Eh]
	 SCS Total Energy          =    -520.4943915861085770 [Eh]
	-----------------------------------------------------------

  Dipole Moment: [D]
     X:     0.5457      Y:    -0.0873      Z:     1.1478     Total:     1.2739

*** Psi4 exiting successfully. Buy a developer a beer!
