                               Psi4 1.4a3.dev225

  ==> Input File <==

--------------------------------------------------------------------------
#psi4
#
memory 32 gb

molecule  {
0 1
  F        0.8801740    -2.1570240    -0.2741980
  O        1.6462780     0.5481910    -0.4350190
  O       -0.2367630     2.4625430    -0.1451660
  C        0.3476580     0.1463710    -0.1857710
  C       -0.6195240     1.1555560    -0.0645140
  C       -0.0605370    -1.1855140    -0.1277800
  C       -1.9594950     0.8272070     0.1461580
  C       -1.3851280    -1.5362190     0.0940810
  C       -2.3313710    -0.5151580     0.2215980
  C        2.5704260     0.1676860     0.6054290
  H       -2.6878360     1.6271100     0.2387920
  H       -1.7079498    -2.7791554     0.1466599
  H       -3.3736110    -0.7729470     0.3882060
  H        2.6849170    -0.9163680     0.6377720
  H        2.2243420     0.5379400     1.5755890
  H        3.5186220     0.6362700     0.3424670
  H        0.7214210     2.4415090    -0.3472440
units angstrom
no_reorient  #important for SAPT in psi4, default
symmetry c1  #important for SAPT in psi4, default
}

set PROPERTIES_ORIGIN ["COM"]
properties('MP2/aug-cc-pvtz', properties = ['dipole'])
--------------------------------------------------------------------------

    Molecular point group: c1
  Charge       = 0
  Multiplicity = 1
  Basis Set: AUG-CC-PVTZ
    Blend: AUG-CC-PVTZ
  Basis Set: (AUG-CC-PVTZ AUX)
    Blend: AUG-CC-PVTZ-JKFIT

    Orbital Energies [Eh]
    ---------------------

    Doubly Occupied:

       1A    -26.318120     2A    -20.599685     3A    -20.596244
       4A    -11.341364     5A    -11.316064     6A    -11.305079
       7A    -11.291771     8A    -11.264505     9A    -11.256832
      10A    -11.241202    11A     -1.630317    12A     -1.427344
      13A     -1.395129    14A     -1.159273    15A     -1.031147
      16A     -1.017752    17A     -0.947318    18A     -0.850771
      19A     -0.847370    20A     -0.759070    21A     -0.747653
      22A     -0.709171    23A     -0.699534    24A     -0.668252
      25A     -0.654003    26A     -0.644189    27A     -0.625217
      28A     -0.621783    29A     -0.590354    30A     -0.570991
      31A     -0.549026    32A     -0.529945    33A     -0.516598
      34A     -0.490846    35A     -0.472870    36A     -0.344579
      37A     -0.326029

  @DF-RHF Final Energy:  -518.45668805604203

   => Energetics <=

    Nuclear Repulsion Energy =            528.0253005101217241
    One-Electron Energy =               -1758.2491850724268261
    Two-Electron Energy =                 711.7671965062630761
    Total Energy =                       -518.4566880560420259
  Basis Set: (AUG-CC-PVTZ AUX)
    Blend: AUG-CC-PVTZ-RI
    Molecular point group: c1

    Geometry (in Angstrom), charge = 0, multiplicity = 1:

       Center              X                  Y                   Z               Mass
    ------------   -----------------  -----------------  -----------------  -----------------
         F            0.884383826460    -2.133622550073    -0.251575671005    18.998403162730
         O            1.650487826460     0.571592449927    -0.412396671005    15.994914619570
         O           -0.232553173540     2.485944449927    -0.122543671005    15.994914619570
         C            0.351867826460     0.169772449927    -0.163148671005    12.000000000000
         C           -0.615314173540     1.178957449927    -0.041891671005    12.000000000000
         C           -0.056327173540    -1.162112550073    -0.105157671005    12.000000000000
         C           -1.955285173540     0.850608449927     0.168780328995    12.000000000000
         C           -1.380918173540    -1.512817550073     0.116703328995    12.000000000000
         C           -2.327161173540    -0.491756550073     0.244220328995    12.000000000000
         C            2.574635826460     0.191087449927     0.628051328995    12.000000000000
         H           -2.683626173540     1.650511449927     0.261414328995     1.007825032230
         H           -1.703739973540    -2.755753950073     0.169282228995     1.007825032230
         H           -3.369401173540    -0.749545550073     0.410828328995     1.007825032230
         H            2.689126826460    -0.892966550073     0.660394328995     1.007825032230
         H            2.228551826460     0.561341449927     1.598211328995     1.007825032230
         H            3.522831826460     0.659671449927     0.365089328995     1.007825032230
         H            0.725630826460     2.464910449927    -0.324621671005     1.007825032230

  Basis Set: AUG-CC-PVTZ
    Blend: AUG-CC-PVTZ
  Basis Set: (AUG-CC-PVTZ AUX)
    Blend: AUG-CC-PVTZ-JKFIT
	 Reference Energy          =    -518.4566880560420259 [Eh]
	 Singles Energy            =      -0.0000000000000000 [Eh]
	 Same-Spin Energy          =      -0.5094189806808153 [Eh]
	 Opposite-Spin Energy      =      -1.5403489767364225 [Eh]
	 Correlation Energy        =      -2.0497679574172376 [Eh]
	 Total Energy              =    -520.5064560134592284 [Eh]

	 ================> DF-SCS-MP2 Energies <==================
	-----------------------------------------------------------
	 SCS Same-Spin Scale       =       0.3333333333333333 [-]
	 SCS Opposite-Spin Scale   =       1.2000000000000000 [-]
	 SCS Same-Spin Energy      =      -0.1698063268936051 [Eh]
	 SCS Opposite-Spin Energy  =      -1.8484187720837069 [Eh]
	 SCS Correlation Energy    =      -2.0182250989773118 [Eh]
	 SCS Total Energy          =    -520.4749131550192942 [Eh]
	-----------------------------------------------------------

  Dipole Moment: [D]
     X:     0.6553      Y:    -0.1320      Z:     1.1695     Total:     1.3470

*** Psi4 exiting successfully. Buy a developer a beer!
