                               Psi4 1.4a3.dev225

  ==> Input File <==

--------------------------------------------------------------------------
#psi4
#
memory 32 gb

molecule  {
0 1
  F        0.8801740    -2.1570240    -0.2741980
  O        1.6799352     0.4077901    -0.4440253
  O       -0.2367630     2.4625430    -0.1451660
  C        0.3476580     0.1463710    -0.1857710
  C       -0.6195240     1.1555560    -0.0645140
  C       -0.0605370    -1.1855140    -0.1277800
  C       -1.9594950     0.8272070     0.1461580
  C       -1.3851280    -1.5362190     0.0940810
  C       -2.3313710    -0.5151580     0.2215980
  C        2.5704260     0.1676860     0.6054290
  H       -2.6878360     1.6271100     0.2387920
  H       -1.6577150    -2.5857400     0.1384780
  H       -3.3736110    -0.7729470     0.3882060
  H        2.6849170    -0.9163680     0.6377720
  H        2.2243420     0.5379400     1.5755890
  H        3.5186220     0.6362700     0.3424670
  H        0.7214210     2.4415090    -0.3472440
units angstrom
no_reorient  #important for SAPT in psi4, default
symmetry c1  #important for SAPT in psi4, default
}

set PROPERTIES_ORIGIN ["COM"]
properties('MP2/aug-cc-pvtz', properties = ['dipole'])
--------------------------------------------------------------------------

    Molecular point group: c1
  Charge       = 0
  Multiplicity = 1
  Basis Set: AUG-CC-PVTZ
    Blend: AUG-CC-PVTZ
  Basis Set: (AUG-CC-PVTZ AUX)
    Blend: AUG-CC-PVTZ-JKFIT

    Orbital Energies [Eh]
    ---------------------

    Doubly Occupied:

       1A    -26.317680     2A    -20.600435     3A    -20.593267
       4A    -11.337986     5A    -11.320030     6A    -11.304820
       7A    -11.284843     8A    -11.256892     9A    -11.243970
      10A    -11.242117    11A     -1.629734    12A     -1.430451
      13A     -1.403483    14A     -1.160699    15A     -1.034234
      16A     -1.023141    17A     -0.943582    18A     -0.855477
      19A     -0.850399    20A     -0.761658    21A     -0.748191
      22A     -0.714798    23A     -0.700476    24A     -0.677327
      25A     -0.654227    26A     -0.646738    27A     -0.640170
      28A     -0.629453    29A     -0.593943    30A     -0.576218
      31A     -0.551046    32A     -0.542865    33A     -0.517067
      34A     -0.488242    35A     -0.462244    36A     -0.344929
      37A     -0.328278

  @DF-RHF Final Energy:  -518.47624246978626

   => Energetics <=

    Nuclear Repulsion Energy =            529.6293918888802637
    One-Electron Energy =               -1761.3890454280015092
    Two-Electron Energy =                 713.2834110693349885
    Total Energy =                       -518.4762424697862571
  Basis Set: (AUG-CC-PVTZ AUX)
    Blend: AUG-CC-PVTZ-RI
    Molecular point group: c1

    Geometry (in Angstrom), charge = 0, multiplicity = 1:

       Center              X                  Y                   Z               Mass
    ------------   -----------------  -----------------  -----------------  -----------------
         F            0.880237392650    -2.119184869820    -0.250503454036    18.998403162730
         O            1.679998592650     0.445629230180    -0.420330754036    15.994914619570
         O           -0.236699607350     2.500382130180    -0.121471454036    15.994914619570
         C            0.347721392650     0.184210130180    -0.162076454036    12.000000000000
         C           -0.619460607350     1.193395130180    -0.040819454036    12.000000000000
         C           -0.060473607350    -1.147674869820    -0.104085454036    12.000000000000
         C           -1.959431607350     0.865046130180     0.169852545964    12.000000000000
         C           -1.385064607350    -1.498379869820     0.117775545964    12.000000000000
         C           -2.331307607350    -0.477318869820     0.245292545964    12.000000000000
         C            2.570489392650     0.205525130180     0.629123545964    12.000000000000
         H           -2.687772607350     1.664949130180     0.262486545964     1.007825032230
         H           -1.657651607350    -2.547900869820     0.162172545964     1.007825032230
         H           -3.373547607350    -0.735107869820     0.411900545964     1.007825032230
         H            2.684980392650    -0.878528869820     0.661466545964     1.007825032230
         H            2.224405392650     0.575779130180     1.599283545964     1.007825032230
         H            3.518685392650     0.674109130180     0.366161545964     1.007825032230
         H            0.721484392650     2.479348130180    -0.323549454036     1.007825032230

  Basis Set: AUG-CC-PVTZ
    Blend: AUG-CC-PVTZ
  Basis Set: (AUG-CC-PVTZ AUX)
    Blend: AUG-CC-PVTZ-JKFIT
	 Reference Energy          =    -518.4762424697862571 [Eh]
	 Singles Energy            =      -0.0000000000000000 [Eh]
	 Same-Spin Energy          =      -0.5084319011309639 [Eh]
	 Opposite-Spin Energy      =      -1.5370912251757147 [Eh]
	 Correlation Energy        =      -2.0455231263066787 [Eh]
	 Total Energy              =    -520.5217655960929051 [Eh]

	 ================> DF-SCS-MP2 Energies <==================
	-----------------------------------------------------------
	 SCS Same-Spin Scale       =       0.3333333333333333 [-]
	 SCS Opposite-Spin Scale   =       1.2000000000000000 [-]
	 SCS Same-Spin Energy      =      -0.1694773003769880 [Eh]
	 SCS Opposite-Spin Energy  =      -1.8445094702108575 [Eh]
	 SCS Correlation Energy    =      -2.0139867705878456 [Eh]
	 SCS Total Energy          =    -520.4902292403741058 [Eh]
	-----------------------------------------------------------

  Dipole Moment: [D]
     X:     0.3874      Y:     0.0728      Z:     1.1298     Total:     1.1965

*** Psi4 exiting successfully. Buy a developer a beer!
