                               Psi4 1.4a3.dev225

  ==> Input File <==

--------------------------------------------------------------------------
#psi4
#
memory 32 gb

molecule  {
0 1
  F        0.8801740    -2.1570240    -0.2741980
  O        1.6462780     0.5481910    -0.4350190
  O       -0.2367630     2.4625430    -0.1451660
  C        0.3476580     0.1463710    -0.1857710
  C       -0.6195240     1.1555560    -0.0645140
  C       -0.0605370    -1.1855140    -0.1277800
  C       -2.1515220     0.7801523     0.1763487
  C       -1.3851280    -1.5362190     0.0940810
  C       -2.3313710    -0.5151580     0.2215980
  C        2.5704260     0.1676860     0.6054290
  H       -2.6878360     1.6271100     0.2387920
  H       -1.6577150    -2.5857400     0.1384780
  H       -3.3736110    -0.7729470     0.3882060
  H        2.6849170    -0.9163680     0.6377720
  H        2.2243420     0.5379400     1.5755890
  H        3.5186220     0.6362700     0.3424670
  H        0.7214210     2.4415090    -0.3472440
units angstrom
no_reorient  #important for SAPT in psi4, default
symmetry c1  #important for SAPT in psi4, default
}

set PROPERTIES_ORIGIN ["COM"]
properties('MP2/aug-cc-pvtz', properties = ['dipole'])
--------------------------------------------------------------------------

    Molecular point group: c1
  Charge       = 0
  Multiplicity = 1
  Basis Set: AUG-CC-PVTZ
    Blend: AUG-CC-PVTZ
  Basis Set: (AUG-CC-PVTZ AUX)
    Blend: AUG-CC-PVTZ-JKFIT

    Orbital Energies [Eh]
    ---------------------

    Doubly Occupied:

       1A    -26.320129     2A    -20.602334     3A    -20.597070
       4A    -11.344097     5A    -11.331815     6A    -11.298581
       7A    -11.290163     8A    -11.247660     9A    -11.245607
      10A    -11.239542    11A     -1.632157    12A     -1.426833
      13A     -1.395226    14A     -1.154147    15A     -1.043622
      16A     -1.006118    17A     -0.942704    18A     -0.863744
      19A     -0.840407    20A     -0.760706    21A     -0.747422
      22A     -0.720475    23A     -0.702036    24A     -0.681245
      25A     -0.653136    26A     -0.651553    27A     -0.627641
      28A     -0.621694    29A     -0.593814    30A     -0.586138
      31A     -0.558307    32A     -0.535420    33A     -0.492594
      34A     -0.487941    35A     -0.472219    36A     -0.359248
      37A     -0.308682

  @DF-RHF Final Energy:  -518.43774349597879

   => Energetics <=

    Nuclear Repulsion Energy =            526.2264088445682546
    One-Electron Energy =               -1754.5638493180365458
    Two-Electron Energy =                 709.8996969774893842
    Total Energy =                       -518.4377434959787934
  Basis Set: (AUG-CC-PVTZ AUX)
    Blend: AUG-CC-PVTZ-RI
    Molecular point group: c1

    Geometry (in Angstrom), charge = 0, multiplicity = 1:

       Center              X                  Y                   Z               Mass
    ------------   -----------------  -----------------  -----------------  -----------------
         F            0.900250120400    -2.131019623506    -0.254068172975    18.998403162730
         O            1.666354120400     0.574195376494    -0.414889172975    15.994914619570
         O           -0.216686879600     2.488547376494    -0.125036172975    15.994914619570
         C            0.367734120400     0.172375376494    -0.165641172975    12.000000000000
         C           -0.599447879600     1.181560376494    -0.044384172975    12.000000000000
         C           -0.040460879600    -1.159509623506    -0.107650172975    12.000000000000
         C           -2.131445879600     0.806156676494     0.196478527025    12.000000000000
         C           -1.365051879600    -1.510214623506     0.114210827025    12.000000000000
         C           -2.311294879600    -0.489153623506     0.241727827025    12.000000000000
         C            2.590502120400     0.193690376494     0.625558827025    12.000000000000
         H           -2.667759879600     1.653114376494     0.258921827025     1.007825032230
         H           -1.637638879600    -2.559735623506     0.158607827025     1.007825032230
         H           -3.353534879600    -0.746942623506     0.408335827025     1.007825032230
         H            2.704993120400    -0.890363623506     0.657901827025     1.007825032230
         H            2.244418120400     0.563944376494     1.595718827025     1.007825032230
         H            3.538698120400     0.662274376494     0.362596827025     1.007825032230
         H            0.741497120400     2.467513376494    -0.327114172975     1.007825032230

  Basis Set: AUG-CC-PVTZ
    Blend: AUG-CC-PVTZ
  Basis Set: (AUG-CC-PVTZ AUX)
    Blend: AUG-CC-PVTZ-JKFIT
	 Reference Energy          =    -518.4377434959787934 [Eh]
	 Singles Energy            =      -0.0000000000000000 [Eh]
	 Same-Spin Energy          =      -0.5082992682555679 [Eh]
	 Opposite-Spin Energy      =      -1.5403677147309807 [Eh]
	 Correlation Energy        =      -2.0486669829865485 [Eh]
	 Total Energy              =    -520.4864104789653538 [Eh]

	 ================> DF-SCS-MP2 Energies <==================
	-----------------------------------------------------------
	 SCS Same-Spin Scale       =       0.3333333333333333 [-]
	 SCS Opposite-Spin Scale   =       1.2000000000000000 [-]
	 SCS Same-Spin Energy      =      -0.1694330894185226 [Eh]
	 SCS Opposite-Spin Energy  =      -1.8484412576771767 [Eh]
	 SCS Correlation Energy    =      -2.0178743470956992 [Eh]
	 SCS Total Energy          =    -520.4556178430744922 [Eh]
	-----------------------------------------------------------

  Dipole Moment: [D]
     X:     0.6566      Y:     0.0375      Z:     1.1580     Total:     1.3317

*** Psi4 exiting successfully. Buy a developer a beer!
