                               Psi4 1.4a3.dev225

  ==> Input File <==

--------------------------------------------------------------------------
#psi4
#
memory 32 gb

molecule  {
0 1
  F        0.8801740    -2.1570240    -0.2741980
  O        1.6320588     0.4009306    -0.4652855
  O       -0.2367630     2.4625430    -0.1451660
  C        0.3476580     0.1463710    -0.1857710
  C       -0.6195240     1.1555560    -0.0645140
  C       -0.0605370    -1.1855140    -0.1277800
  C       -1.9594950     0.8272070     0.1461580
  C       -1.3851280    -1.5362190     0.0940810
  C       -2.3313710    -0.5151580     0.2215980
  C        2.5704260     0.1676860     0.6054290
  H       -2.6878360     1.6271100     0.2387920
  H       -1.6577150    -2.5857400     0.1384780
  H       -3.3736110    -0.7729470     0.3882060
  H        2.6849170    -0.9163680     0.6377720
  H        2.2243420     0.5379400     1.5755890
  H        3.5186220     0.6362700     0.3424670
  H        0.7214210     2.4415090    -0.3472440
units angstrom
no_reorient  #important for SAPT in psi4, default
symmetry c1  #important for SAPT in psi4, default
}

set PROPERTIES_ORIGIN ["COM"]
properties('MP2/aug-cc-pvtz', properties = ['dipole'])
--------------------------------------------------------------------------

    Molecular point group: c1
  Charge       = 0
  Multiplicity = 1
  Basis Set: AUG-CC-PVTZ
    Blend: AUG-CC-PVTZ
  Basis Set: (AUG-CC-PVTZ AUX)
    Blend: AUG-CC-PVTZ-JKFIT

    Orbital Energies [Eh]
    ---------------------

    Doubly Occupied:

       1A    -26.315978     2A    -20.598478     3A    -20.593945
       4A    -11.333217     5A    -11.315234     6A    -11.300294
       7A    -11.293210     8A    -11.253306     9A    -11.241510
      10A    -11.239564    11A     -1.628153    12A     -1.433743
      13A     -1.402353    14A     -1.156675    15A     -1.030563
      16A     -1.020422    17A     -0.949327    18A     -0.854568
      19A     -0.848210    20A     -0.760636    21A     -0.747302
      22A     -0.715335    23A     -0.699797    24A     -0.675108
      25A     -0.653366    26A     -0.645468    27A     -0.636956
      28A     -0.626525    29A     -0.591440    30A     -0.574398
      31A     -0.551838    32A     -0.543767    33A     -0.524164
      34A     -0.485466    35A     -0.466079    36A     -0.340217
      37A     -0.324289

  @DF-RHF Final Energy:  -518.47625539412195

   => Energetics <=

    Nuclear Repulsion Energy =            530.3253805349670529
    One-Electron Energy =               -1762.8614736070203435
    Two-Electron Energy =                 714.0598376779313412
    Total Energy =                       -518.4762553941219494
  Basis Set: (AUG-CC-PVTZ AUX)
    Blend: AUG-CC-PVTZ-RI
    Molecular point group: c1

    Geometry (in Angstrom), charge = 0, multiplicity = 1:

       Center              X                  Y                   Z               Mass
    ------------   -----------------  -----------------  -----------------  -----------------
         F            0.885628569190    -2.118412448012    -0.248109425005    18.998403162730
         O            1.637513369190     0.439542151988    -0.439196925005    15.994914619570
         O           -0.231308430810     2.501154551988    -0.119077425005    15.994914619570
         C            0.353112569190     0.184982551988    -0.159682425005    12.000000000000
         C           -0.614069430810     1.194167551988    -0.038425425005    12.000000000000
         C           -0.055082430810    -1.146902448012    -0.101691425005    12.000000000000
         C           -1.954040430810     0.865818551988     0.172246574995    12.000000000000
         C           -1.379673430810    -1.497607448012     0.120169574995    12.000000000000
         C           -2.325916430810    -0.476546448012     0.247686574995    12.000000000000
         C            2.575880569190     0.206297551988     0.631517574995    12.000000000000
         H           -2.682381430810     1.665721551988     0.264880574995     1.007825032230
         H           -1.652260430810    -2.547128448012     0.164566574995     1.007825032230
         H           -3.368156430810    -0.734335448012     0.414294574995     1.007825032230
         H            2.690371569190    -0.877756448012     0.663860574995     1.007825032230
         H            2.229796569190     0.576551551988     1.601677574995     1.007825032230
         H            3.524076569190     0.674881551988     0.368555574995     1.007825032230
         H            0.726875569190     2.480120551988    -0.321155425005     1.007825032230

  Basis Set: AUG-CC-PVTZ
    Blend: AUG-CC-PVTZ
  Basis Set: (AUG-CC-PVTZ AUX)
    Blend: AUG-CC-PVTZ-JKFIT
	 Reference Energy          =    -518.4762553941219494 [Eh]
	 Singles Energy            =      -0.0000000000000000 [Eh]
	 Same-Spin Energy          =      -0.5086848548171283 [Eh]
	 Opposite-Spin Energy      =      -1.5372848615147807 [Eh]
	 Correlation Energy        =      -2.0459697163319088 [Eh]
	 Total Energy              =    -520.5222251104538600 [Eh]

	 ================> DF-SCS-MP2 Energies <==================
	-----------------------------------------------------------
	 SCS Same-Spin Scale       =       0.3333333333333333 [-]
	 SCS Opposite-Spin Scale   =       1.2000000000000000 [-]
	 SCS Same-Spin Energy      =      -0.1695616182723761 [Eh]
	 SCS Opposite-Spin Energy  =      -1.8447418338177368 [Eh]
	 SCS Correlation Energy    =      -2.0143034520901129 [Eh]
	 SCS Total Energy          =    -520.4905588462120249 [Eh]
	-----------------------------------------------------------

  Dipole Moment: [D]
     X:     0.7573      Y:     0.0941      Z:     1.2145     Total:     1.4344

*** Psi4 exiting successfully. Buy a developer a beer!
