                               Psi4 1.4a3.dev225

  ==> Input File <==

--------------------------------------------------------------------------
#psi4
#
memory 32 gb

molecule  {
0 1
  F        0.8801740    -2.1570240    -0.2741980
  O        1.6462780     0.5481910    -0.4350190
  O       -0.2367630     2.4625430    -0.1451660
  C        0.3476580     0.1463710    -0.1857710
  C       -0.6195240     1.1555560    -0.0645140
  C       -0.0605370    -1.1855140    -0.1277800
  C       -1.9594950     0.8272070     0.1461580
  C       -1.3851280    -1.5362190     0.0940810
  C       -2.3313710    -0.5151580     0.2215980
  C        2.5704260     0.1676860     0.6054290
  H       -2.6878360     1.6271100     0.2387920
  H       -1.6526915    -2.5663985     0.1376598
  H       -3.3736110    -0.7729470     0.3882060
  H        2.6849170    -0.9163680     0.6377720
  H        2.2243420     0.5379400     1.5755890
  H        3.5186220     0.6362700     0.3424670
  H        0.7214210     2.4415090    -0.3472440
units angstrom
no_reorient  #important for SAPT in psi4, default
symmetry c1  #important for SAPT in psi4, default
}

set PROPERTIES_ORIGIN ["COM"]
properties('MP2/aug-cc-pvtz', properties = ['dipole'])
--------------------------------------------------------------------------

    Molecular point group: c1
  Charge       = 0
  Multiplicity = 1
  Basis Set: AUG-CC-PVTZ
    Blend: AUG-CC-PVTZ
  Basis Set: (AUG-CC-PVTZ AUX)
    Blend: AUG-CC-PVTZ-JKFIT

    Orbital Energies [Eh]
    ---------------------

    Doubly Occupied:

       1A    -26.318313     2A    -20.598817     3A    -20.595694
       4A    -11.339224     5A    -11.315360     6A    -11.303641
       7A    -11.291359     8A    -11.254997     9A    -11.241698
      10A    -11.239746    11A     -1.630597    12A     -1.426641
      13A     -1.394465    14A     -1.159024    15A     -1.030019
      16A     -1.022412    17A     -0.947075    18A     -0.854669
      19A     -0.849631    20A     -0.759628    21A     -0.747506
      22A     -0.711819    23A     -0.700357    24A     -0.678328
      25A     -0.653741    26A     -0.646854    27A     -0.635870
      28A     -0.621170    29A     -0.589834    30A     -0.574153
      31A     -0.554502    32A     -0.541340    33A     -0.519751
      34A     -0.490611    35A     -0.473169    36A     -0.343382
      37A     -0.325109

  @DF-RHF Final Energy:  -518.47929711950883

   => Energetics <=

    Nuclear Repulsion Energy =            529.1042934308472923
    One-Electron Energy =               -1760.4061682096139521
    Two-Electron Energy =                 712.8225776592578313
    Total Energy =                       -518.4792971195088285
  Basis Set: (AUG-CC-PVTZ AUX)
    Blend: AUG-CC-PVTZ-RI
    Molecular point group: c1

    Geometry (in Angstrom), charge = 0, multiplicity = 1:

       Center              X                  Y                   Z               Mass
    ------------   -----------------  -----------------  -----------------  -----------------
         F            0.883991757192    -2.135132105054    -0.251511813401    18.998403162730
         O            1.650095757192     0.570082894946    -0.412332813401    15.994914619570
         O           -0.232945242808     2.484434894946    -0.122479813401    15.994914619570
         C            0.351475757192     0.168262894946    -0.163084813401    12.000000000000
         C           -0.615706242808     1.177447894946    -0.041827813401    12.000000000000
         C           -0.056719242808    -1.163622105054    -0.105093813401    12.000000000000
         C           -1.955677242808     0.849098894946     0.168844186599    12.000000000000
         C           -1.381310242808    -1.514327105054     0.116767186599    12.000000000000
         C           -2.327553242808    -0.493266105054     0.244284186599    12.000000000000
         C            2.574243757192     0.189577894946     0.628115186599    12.000000000000
         H           -2.684018242808     1.649001894946     0.261478186599     1.007825032230
         H           -1.648873742808    -2.544506605054     0.160345986599     1.007825032230
         H           -3.369793242808    -0.751055105054     0.410892186599     1.007825032230
         H            2.688734757192    -0.894476105054     0.660458186599     1.007825032230
         H            2.228159757192     0.559831894946     1.598275186599     1.007825032230
         H            3.522439757192     0.658161894946     0.365153186599     1.007825032230
         H            0.725238757192     2.463400894946    -0.324557813401     1.007825032230

  Basis Set: AUG-CC-PVTZ
    Blend: AUG-CC-PVTZ
  Basis Set: (AUG-CC-PVTZ AUX)
    Blend: AUG-CC-PVTZ-JKFIT
	 Reference Energy          =    -518.4792971195088285 [Eh]
	 Singles Energy            =      -0.0000000000000000 [Eh]
	 Same-Spin Energy          =      -0.5088637887491875 [Eh]
	 Opposite-Spin Energy      =      -1.5382276668151138 [Eh]
	 Correlation Energy        =      -2.0470914555643014 [Eh]
	 Total Energy              =    -520.5263885750731561 [Eh]

	 ================> DF-SCS-MP2 Energies <==================
	-----------------------------------------------------------
	 SCS Same-Spin Scale       =       0.3333333333333333 [-]
	 SCS Opposite-Spin Scale   =       1.2000000000000000 [-]
	 SCS Same-Spin Energy      =      -0.1696212629163958 [Eh]
	 SCS Opposite-Spin Energy  =      -1.8458732001781364 [Eh]
	 SCS Correlation Energy    =      -2.0154944630945324 [Eh]
	 SCS Total Energy          =    -520.4947915826033977 [Eh]
	-----------------------------------------------------------

  Dipole Moment: [D]
     X:     0.6486      Y:    -0.1670      Z:     1.1689     Total:     1.3472

*** Psi4 exiting successfully. Buy a developer a beer!
