                               Psi4 1.4a3.dev225

  ==> Input File <==

--------------------------------------------------------------------------
#psi4
#
memory 32 gb

molecule  {
0 1
  F        0.8801740    -2.1570240    -0.2741980
  O        1.6462780     0.5481910    -0.4350190
  O       -0.2367630     2.4625430    -0.1451660
  C        0.3476580     0.1463710    -0.1857710
  C       -0.6195240     1.1555560    -0.0645140
  C       -0.0605370    -1.1855140    -0.1277800
  C       -1.9786977     0.8225015     0.1491771
  C       -1.3851280    -1.5362190     0.0940810
  C       -2.3313710    -0.5151580     0.2215980
  C        2.5704260     0.1676860     0.6054290
  H       -2.6878360     1.6271100     0.2387920
  H       -1.6577150    -2.5857400     0.1384780
  H       -3.3736110    -0.7729470     0.3882060
  H        2.6849170    -0.9163680     0.6377720
  H        2.2243420     0.5379400     1.5755890
  H        3.5186220     0.6362700     0.3424670
  H        0.7214210     2.4415090    -0.3472440
units angstrom
no_reorient  #important for SAPT in psi4, default
symmetry c1  #important for SAPT in psi4, default
}

set PROPERTIES_ORIGIN ["COM"]
properties('MP2/aug-cc-pvtz', properties = ['dipole'])
--------------------------------------------------------------------------

    Molecular point group: c1
  Charge       = 0
  Multiplicity = 1
  Basis Set: AUG-CC-PVTZ
    Blend: AUG-CC-PVTZ
  Basis Set: (AUG-CC-PVTZ AUX)
    Blend: AUG-CC-PVTZ-JKFIT

    Orbital Energies [Eh]
    ---------------------

    Doubly Occupied:

       1A    -26.318424     2A    -20.598738     3A    -20.596605
       4A    -11.339796     5A    -11.317816     6A    -11.303281
       7A    -11.291289     8A    -11.254045     9A    -11.243427
      10A    -11.240553    11A     -1.630682    12A     -1.426770
      13A     -1.394696    14A     -1.158202    15A     -1.031326
      16A     -1.019531    17A     -0.946734    18A     -0.854860
      19A     -0.848575    20A     -0.759675    21A     -0.747426
      22A     -0.711924    23A     -0.700373    24A     -0.676565
      25A     -0.653681    26A     -0.647446    27A     -0.634562
      28A     -0.621227    29A     -0.589592    30A     -0.575308
      31A     -0.553383    32A     -0.541876    33A     -0.518098
      34A     -0.490767    35A     -0.473313    36A     -0.344666
      37A     -0.323264

  @DF-RHF Final Energy:  -518.47856609860753

   => Energetics <=

    Nuclear Repulsion Energy =            528.6975065387598534
    One-Electron Energy =               -1759.5951524840779712
    Two-Electron Energy =                 712.4190798467105878
    Total Energy =                       -518.4785660986075300
  Basis Set: (AUG-CC-PVTZ AUX)
    Blend: AUG-CC-PVTZ-RI
    Molecular point group: c1

    Geometry (in Angstrom), charge = 0, multiplicity = 1:

       Center              X                  Y                   Z               Mass
    ------------   -----------------  -----------------  -----------------  -----------------
         F            0.885649672024    -2.134597345553    -0.251772676664    18.998403162730
         O            1.651753672024     0.570617654447    -0.412593676664    15.994914619570
         O           -0.231287327976     2.484969654447    -0.122740676664    15.994914619570
         C            0.353133672024     0.168797654447    -0.163345676664    12.000000000000
         C           -0.614048327976     1.177982654447    -0.042088676664    12.000000000000
         C           -0.055061327976    -1.163087345553    -0.105354676664    12.000000000000
         C           -1.973222027976     0.844928154447     0.171602423336    12.000000000000
         C           -1.379652327976    -1.513792345553     0.116506323336    12.000000000000
         C           -2.325895327976    -0.492731345553     0.244023323336    12.000000000000
         C            2.575901672024     0.190112654447     0.627854323336    12.000000000000
         H           -2.682360327976     1.649536654447     0.261217323336     1.007825032230
         H           -1.652239327976    -2.563313345553     0.160903323336     1.007825032230
         H           -3.368135327976    -0.750520345553     0.410631323336     1.007825032230
         H            2.690392672024    -0.893941345553     0.660197323336     1.007825032230
         H            2.229817672024     0.560366654447     1.598014323336     1.007825032230
         H            3.524097672024     0.658696654447     0.364892323336     1.007825032230
         H            0.726896672024     2.463935654447    -0.324818676664     1.007825032230

  Basis Set: AUG-CC-PVTZ
    Blend: AUG-CC-PVTZ
  Basis Set: (AUG-CC-PVTZ AUX)
    Blend: AUG-CC-PVTZ-JKFIT
	 Reference Energy          =    -518.4785660986075300 [Eh]
	 Singles Energy            =      -0.0000000000000000 [Eh]
	 Same-Spin Energy          =      -0.5088632140844075 [Eh]
	 Opposite-Spin Energy      =      -1.5383882204462880 [Eh]
	 Correlation Energy        =      -2.0472514345306956 [Eh]
	 Total Energy              =    -520.5258175331382517 [Eh]

	 ================> DF-SCS-MP2 Energies <==================
	-----------------------------------------------------------
	 SCS Same-Spin Scale       =       0.3333333333333333 [-]
	 SCS Opposite-Spin Scale   =       1.2000000000000000 [-]
	 SCS Same-Spin Energy      =      -0.1696210713614691 [Eh]
	 SCS Opposite-Spin Energy  =      -1.8460658645355454 [Eh]
	 SCS Correlation Energy    =      -2.0156869358970146 [Eh]
	 SCS Total Energy          =    -520.4942530345045952 [Eh]
	-----------------------------------------------------------

  Dipole Moment: [D]
     X:     0.6543      Y:    -0.1389      Z:     1.1672     Total:     1.3453

*** Psi4 exiting successfully. Buy a developer a beer!
