                               Psi4 1.4a3.dev225

  ==> Input File <==

--------------------------------------------------------------------------
#psi4
#
memory 32 gb

molecule  {
0 1
  F        0.8801740    -2.1570240    -0.2741980
  O        1.6462780     0.5481910    -0.4350190
  O       -0.2367630     2.4625430    -0.1451660
  C        0.3476580     0.1463710    -0.1857710
  C       -0.6195240     1.1555560    -0.0645140
  C       -0.0605370    -1.1855140    -0.1277800
  C       -1.8677381     0.7975048     0.1327860
  C       -1.3851280    -1.5362190     0.0940810
  C       -2.3313710    -0.5151580     0.2215980
  C        2.5704260     0.1676860     0.6054290
  H       -2.6878360     1.6271100     0.2387920
  H       -1.6577150    -2.5857400     0.1384780
  H       -3.3736110    -0.7729470     0.3882060
  H        2.6849170    -0.9163680     0.6377720
  H        2.2243420     0.5379400     1.5755890
  H        3.5186220     0.6362700     0.3424670
  H        0.7214210     2.4415090    -0.3472440
units angstrom
no_reorient  #important for SAPT in psi4, default
symmetry c1  #important for SAPT in psi4, default
}

set PROPERTIES_ORIGIN ["COM"]
properties('MP2/aug-cc-pvtz', properties = ['dipole'])
--------------------------------------------------------------------------

    Molecular point group: c1
  Charge       = 0
  Multiplicity = 1
  Basis Set: AUG-CC-PVTZ
    Blend: AUG-CC-PVTZ
  Basis Set: (AUG-CC-PVTZ AUX)
    Blend: AUG-CC-PVTZ-JKFIT

    Orbital Energies [Eh]
    ---------------------

    Doubly Occupied:

       1A    -26.317145     2A    -20.599126     3A    -20.593934
       4A    -11.336707     5A    -11.305664     6A    -11.304034
       7A    -11.291712     8A    -11.255471     9A    -11.245733
      10A    -11.236853    11A     -1.629529    12A     -1.426636
      13A     -1.394069    14A     -1.168032    15A     -1.032294
      16A     -1.028160    17A     -0.949026    18A     -0.856791
      19A     -0.846370    20A     -0.760444    21A     -0.747947
      22A     -0.707265    23A     -0.698476    24A     -0.681718
      25A     -0.653954    26A     -0.641251    27A     -0.637086
      28A     -0.621990    29A     -0.592592    30A     -0.570273
      31A     -0.561788    32A     -0.529496    33A     -0.514683
      34A     -0.492778    35A     -0.471578    36A     -0.345269
      37A     -0.330533

  @DF-RHF Final Energy:  -518.46716000464914

   => Energetics <=

    Nuclear Repulsion Energy =            531.0024563901567944
    One-Electron Energy =               -1764.1864163822215232
    Two-Electron Energy =                 714.7167999874155839
    Total Energy =                       -518.4671600046491449
  Basis Set: (AUG-CC-PVTZ AUX)
    Blend: AUG-CC-PVTZ-RI
    Molecular point group: c1

    Geometry (in Angstrom), charge = 0, multiplicity = 1:

       Center              X                  Y                   Z               Mass
    ------------   -----------------  -----------------  -----------------  -----------------
         F            0.876275643536    -2.132485587959    -0.250387932682    18.998403162730
         O            1.642379643536     0.572729412041    -0.411208932682    15.994914619570
         O           -0.240661356464     2.487081412041    -0.121355932682    15.994914619570
         C            0.343759643536     0.170909412041    -0.161960932682    12.000000000000
         C           -0.623422356464     1.180094412041    -0.040703932682    12.000000000000
         C           -0.064435356464    -1.160975587959    -0.103969932682    12.000000000000
         C           -1.871636456464     0.822043212041     0.156596067318    12.000000000000
         C           -1.389026356464    -1.511680587959     0.117891067318    12.000000000000
         C           -2.335269356464    -0.490619587959     0.245408067318    12.000000000000
         C            2.566527643536     0.192224412041     0.629239067318    12.000000000000
         H           -2.691734356464     1.651648412041     0.262602067318     1.007825032230
         H           -1.661613356464    -2.561201587959     0.162288067318     1.007825032230
         H           -3.377509356464    -0.748408587959     0.412016067318     1.007825032230
         H            2.681018643536    -0.891829587959     0.661582067318     1.007825032230
         H            2.220443643536     0.562478412041     1.599399067318     1.007825032230
         H            3.514723643536     0.660808412041     0.366277067318     1.007825032230
         H            0.717522643536     2.466047412041    -0.323433932682     1.007825032230

  Basis Set: AUG-CC-PVTZ
    Blend: AUG-CC-PVTZ
  Basis Set: (AUG-CC-PVTZ AUX)
    Blend: AUG-CC-PVTZ-JKFIT
	 Reference Energy          =    -518.4671600046491449 [Eh]
	 Singles Energy            =      -0.0000000000000000 [Eh]
	 Same-Spin Energy          =      -0.5092565550834550 [Eh]
	 Opposite-Spin Energy      =      -1.5386984081928083 [Eh]
	 Correlation Energy        =      -2.0479549632762635 [Eh]
	 Total Energy              =    -520.5151149679254559 [Eh]

	 ================> DF-SCS-MP2 Energies <==================
	-----------------------------------------------------------
	 SCS Same-Spin Scale       =       0.3333333333333333 [-]
	 SCS Opposite-Spin Scale   =       1.2000000000000000 [-]
	 SCS Same-Spin Energy      =      -0.1697521850278183 [Eh]
	 SCS Opposite-Spin Energy  =      -1.8464380898313699 [Eh]
	 SCS Correlation Energy    =      -2.0161902748591882 [Eh]
	 SCS Total Energy          =    -520.4833502795083859 [Eh]
	-----------------------------------------------------------

  Dipole Moment: [D]
     X:     0.6215      Y:    -0.2848      Z:     1.1746     Total:     1.3591

*** Psi4 exiting successfully. Buy a developer a beer!
