                               Psi4 1.4a3.dev225

  ==> Input File <==

--------------------------------------------------------------------------
#psi4
#
memory 32 gb

molecule  {
0 1
  F        0.8801740    -2.1570240    -0.2741980
  O        1.6318744     0.5940877    -0.4314043
  O       -0.2367630     2.4625430    -0.1451660
  C        0.3476580     0.1463710    -0.1857710
  C       -0.6195240     1.1555560    -0.0645140
  C       -0.0605370    -1.1855140    -0.1277800
  C       -1.9594950     0.8272070     0.1461580
  C       -1.3851280    -1.5362190     0.0940810
  C       -2.3313710    -0.5151580     0.2215980
  C        2.5704260     0.1676860     0.6054290
  H       -2.6878360     1.6271100     0.2387920
  H       -1.6577150    -2.5857400     0.1384780
  H       -3.3736110    -0.7729470     0.3882060
  H        2.6849170    -0.9163680     0.6377720
  H        2.2243420     0.5379400     1.5755890
  H        3.5186220     0.6362700     0.3424670
  H        0.7214210     2.4415090    -0.3472440
units angstrom
no_reorient  #important for SAPT in psi4, default
symmetry c1  #important for SAPT in psi4, default
}

set PROPERTIES_ORIGIN ["COM"]
properties('MP2/aug-cc-pvtz', properties = ['dipole'])
--------------------------------------------------------------------------

    Molecular point group: c1
  Charge       = 0
  Multiplicity = 1
  Basis Set: AUG-CC-PVTZ
    Blend: AUG-CC-PVTZ
  Basis Set: (AUG-CC-PVTZ AUX)
    Blend: AUG-CC-PVTZ-JKFIT

    Orbital Energies [Eh]
    ---------------------

    Doubly Occupied:

       1A    -26.318334     2A    -20.600744     3A    -20.593903
       4A    -11.339717     5A    -11.313701     6A    -11.303365
       7A    -11.294071     8A    -11.254403     9A    -11.243813
      10A    -11.238953    11A     -1.630722    12A     -1.425512
      13A     -1.390930    14A     -1.158241    15A     -1.028559
      16A     -1.021082    17A     -0.948505    18A     -0.853056
      19A     -0.849253    20A     -0.758700    21A     -0.747174
      22A     -0.710002    23A     -0.699969    24A     -0.676680
      25A     -0.653486    26A     -0.646114    27A     -0.634464
      28A     -0.616333    29A     -0.588248    30A     -0.572730
      31A     -0.555083    32A     -0.540373    33A     -0.520353
      34A     -0.492194    35A     -0.475551    36A     -0.342876
      37A     -0.323899

  @DF-RHF Final Energy:  -518.47736223076606

   => Energetics <=

    Nuclear Repulsion Energy =            528.8103344485783737
    One-Electron Energy =               -1759.8532080209427022
    Two-Electron Energy =                 712.5655113415983806
    Total Energy =                       -518.4773622307660617
  Basis Set: (AUG-CC-PVTZ AUX)
    Blend: AUG-CC-PVTZ-RI
    Molecular point group: c1

    Geometry (in Angstrom), charge = 0, multiplicity = 1:

       Center              X                  Y                   Z               Mass
    ------------   -----------------  -----------------  -----------------  -----------------
         F            0.885649333762    -2.140163123207    -0.251924656112    18.998403162730
         O            1.637349733762     0.610948576793    -0.409130956112    15.994914619570
         O           -0.231287666238     2.479403876793    -0.122892656112    15.994914619570
         C            0.353133333762     0.163231876793    -0.163497656112    12.000000000000
         C           -0.614048666238     1.172416876793    -0.042240656112    12.000000000000
         C           -0.055061666238    -1.168653123207    -0.105506656112    12.000000000000
         C           -1.954019666238     0.844067876793     0.168431343888    12.000000000000
         C           -1.379652666238    -1.519358123207     0.116354343888    12.000000000000
         C           -2.325895666238    -0.498297123207     0.243871343888    12.000000000000
         C            2.575901333762     0.184546876793     0.627702343888    12.000000000000
         H           -2.682360666238     1.643970876793     0.261065343888     1.007825032230
         H           -1.652239666238    -2.568879123207     0.160751343888     1.007825032230
         H           -3.368135666238    -0.756086123207     0.410479343888     1.007825032230
         H            2.690392333762    -0.899507123207     0.660045343888     1.007825032230
         H            2.229817333762     0.554800876793     1.597862343888     1.007825032230
         H            3.524097333762     0.653130876793     0.364740343888     1.007825032230
         H            0.726896333762     2.458369876793    -0.324970656112     1.007825032230

  Basis Set: AUG-CC-PVTZ
    Blend: AUG-CC-PVTZ
  Basis Set: (AUG-CC-PVTZ AUX)
    Blend: AUG-CC-PVTZ-JKFIT
	 Reference Energy          =    -518.4773622307660617 [Eh]
	 Singles Energy            =      -0.0000000000000000 [Eh]
	 Same-Spin Energy          =      -0.5092012593089179 [Eh]
	 Opposite-Spin Energy      =      -1.5390627213485855 [Eh]
	 Correlation Energy        =      -2.0482639806575031 [Eh]
	 Total Energy              =    -520.5256262114235142 [Eh]

	 ================> DF-SCS-MP2 Energies <==================
	-----------------------------------------------------------
	 SCS Same-Spin Scale       =       0.3333333333333333 [-]
	 SCS Opposite-Spin Scale   =       1.2000000000000000 [-]
	 SCS Same-Spin Energy      =      -0.1697337531029726 [Eh]
	 SCS Opposite-Spin Energy  =      -1.8468752656183025 [Eh]
	 SCS Correlation Energy    =      -2.0166090187212751 [Eh]
	 SCS Total Energy          =    -520.4939712494873447 [Eh]
	-----------------------------------------------------------

  Dipole Moment: [D]
     X:     0.7514      Y:    -0.2417      Z:     1.1834     Total:     1.4225

*** Psi4 exiting successfully. Buy a developer a beer!
