                               Psi4 1.4a3.dev225

  ==> Input File <==

--------------------------------------------------------------------------
#psi4
#
memory 32 gb

molecule  {
0 1
  F        0.8801740    -2.1570240    -0.2741980
  O        1.6404032     0.4994885    -0.4463934
  O       -0.2367630     2.4625430    -0.1451660
  C        0.3476580     0.1463710    -0.1857710
  C       -0.6195240     1.1555560    -0.0645140
  C       -0.0605370    -1.1855140    -0.1277800
  C       -1.9594950     0.8272070     0.1461580
  C       -1.3851280    -1.5362190     0.0940810
  C       -2.3313710    -0.5151580     0.2215980
  C        2.5704260     0.1676860     0.6054290
  H       -2.6878360     1.6271100     0.2387920
  H       -1.6577150    -2.5857400     0.1384780
  H       -3.3736110    -0.7729470     0.3882060
  H        2.6849170    -0.9163680     0.6377720
  H        2.2243420     0.5379400     1.5755890
  H        3.5186220     0.6362700     0.3424670
  H        0.7214210     2.4415090    -0.3472440
units angstrom
no_reorient  #important for SAPT in psi4, default
symmetry c1  #important for SAPT in psi4, default
}

set PROPERTIES_ORIGIN ["COM"]
properties('MP2/aug-cc-pvtz', properties = ['dipole'])
--------------------------------------------------------------------------

    Molecular point group: c1
  Charge       = 0
  Multiplicity = 1
  Basis Set: AUG-CC-PVTZ
    Blend: AUG-CC-PVTZ
  Basis Set: (AUG-CC-PVTZ AUX)
    Blend: AUG-CC-PVTZ-JKFIT

    Orbital Energies [Eh]
    ---------------------

    Doubly Occupied:

       1A    -26.317505     2A    -20.597201     3A    -20.596646
       4A    -11.337197     5A    -11.315180     6A    -11.302456
       7A    -11.292141     8A    -11.254425     9A    -11.243105
      10A    -11.239698    11A     -1.629732    12A     -1.429144
      13A     -1.397520    14A     -1.158115    15A     -1.030152
      16A     -1.021305    17A     -0.948043    18A     -0.853972
      19A     -0.849160    20A     -0.759888    21A     -0.747463
      22A     -0.712737    23A     -0.700147    24A     -0.676207
      25A     -0.653684    26A     -0.645948    27A     -0.635456
      28A     -0.624185    29A     -0.590426    30A     -0.573838
      31A     -0.553035    32A     -0.541867    33A     -0.521491
      34A     -0.488633    35A     -0.471235    36A     -0.342269
      37A     -0.324766

  @DF-RHF Final Energy:  -518.47959808872736

   => Energetics <=

    Nuclear Repulsion Energy =            529.4732054564233295
    One-Electron Energy =               -1761.1536604959981105
    Two-Electron Energy =                 713.2008569508474238
    Total Energy =                       -518.4795980887273572
  Basis Set: (AUG-CC-PVTZ AUX)
    Blend: AUG-CC-PVTZ-RI
    Molecular point group: c1

    Geometry (in Angstrom), charge = 0, multiplicity = 1:

       Center              X                  Y                   Z               Mass
    ------------   -----------------  -----------------  -----------------  -----------------
         F            0.884688938526    -2.129510672570    -0.250236791439    18.998403162730
         O            1.644918138526     0.527001827430    -0.422432191439    15.994914619570
         O           -0.232248061474     2.490056327430    -0.121204791439    15.994914619570
         C            0.352172938526     0.173884327430    -0.161809791439    12.000000000000
         C           -0.615009061474     1.183069327430    -0.040552791439    12.000000000000
         C           -0.056022061474    -1.158000672570    -0.103818791439    12.000000000000
         C           -1.954980061474     0.854720327430     0.170119208561    12.000000000000
         C           -1.380613061474    -1.508705672570     0.118042208561    12.000000000000
         C           -2.326856061474    -0.487644672570     0.245559208561    12.000000000000
         C            2.574940938526     0.195199327430     0.629390208561    12.000000000000
         H           -2.683321061474     1.654623327430     0.262753208561     1.007825032230
         H           -1.653200061474    -2.558226672570     0.162439208561     1.007825032230
         H           -3.369096061474    -0.745433672570     0.412167208561     1.007825032230
         H            2.689431938526    -0.888854672570     0.661733208561     1.007825032230
         H            2.228856938526     0.565453327430     1.599550208561     1.007825032230
         H            3.523136938526     0.663783327430     0.366428208561     1.007825032230
         H            0.725935938526     2.469022327430    -0.323282791439     1.007825032230

  Basis Set: AUG-CC-PVTZ
    Blend: AUG-CC-PVTZ
  Basis Set: (AUG-CC-PVTZ AUX)
    Blend: AUG-CC-PVTZ-JKFIT
	 Reference Energy          =    -518.4795980887273572 [Eh]
	 Singles Energy            =      -0.0000000000000000 [Eh]
	 Same-Spin Energy          =      -0.5087686569441167 [Eh]
	 Opposite-Spin Energy      =      -1.5378327053124696 [Eh]
	 Correlation Energy        =      -2.0466013622565864 [Eh]
	 Total Energy              =    -520.5261994509839951 [Eh]

	 ================> DF-SCS-MP2 Energies <==================
	-----------------------------------------------------------
	 SCS Same-Spin Scale       =       0.3333333333333333 [-]
	 SCS Opposite-Spin Scale   =       1.2000000000000000 [-]
	 SCS Same-Spin Energy      =      -0.1695895523147055 [Eh]
	 SCS Opposite-Spin Energy  =      -1.8453992463749636 [Eh]
	 SCS Correlation Energy    =      -2.0149887986896693 [Eh]
	 SCS Total Energy          =    -520.4945868874169719 [Eh]
	-----------------------------------------------------------

  Dipole Moment: [D]
     X:     0.6927      Y:    -0.0795      Z:     1.1869     Total:     1.3766

*** Psi4 exiting successfully. Buy a developer a beer!
