                               Psi4 1.4a3.dev225

  ==> Input File <==

--------------------------------------------------------------------------
#psi4
#
memory 32 gb

molecule  {
0 1
  F        0.8801740    -2.1570240    -0.2741980
  O        1.6462780     0.5481910    -0.4350190
  O       -0.2367630     2.4625430    -0.1451660
  C        0.3476580     0.1463710    -0.1857710
  C       -0.6195240     1.1555560    -0.0645140
  C       -0.0605370    -1.1855140    -0.1277800
  C       -1.9594950     0.8272070     0.1461580
  C       -1.3851280    -1.5362190     0.0940810
  C       -2.3313710    -0.5151580     0.2215980
  C        2.5704260     0.1676860     0.6054290
  H       -2.6878360     1.6271100     0.2387920
  H       -1.6577150    -2.5857400     0.1384780
  H       -3.3736110    -0.7729470     0.3882060
  H        2.6849170    -0.9163680     0.6377720
  H        2.2243420     0.5379400     1.5755890
  H        3.5186220     0.6362700     0.3424670
  H        0.7409860     2.4410795    -0.3513702
units angstrom
no_reorient  #important for SAPT in psi4, default
symmetry c1  #important for SAPT in psi4, default
}

set PROPERTIES_ORIGIN ["COM"]
properties('MP2/aug-cc-pvtz', properties = ['dipole'])
--------------------------------------------------------------------------

    Molecular point group: c1
  Charge       = 0
  Multiplicity = 1
  Basis Set: AUG-CC-PVTZ
    Blend: AUG-CC-PVTZ
  Basis Set: (AUG-CC-PVTZ AUX)
    Blend: AUG-CC-PVTZ-JKFIT

    Orbital Energies [Eh]
    ---------------------

    Doubly Occupied:

       1A    -26.318222     2A    -20.599192     3A    -20.596754
       4A    -11.339291     5A    -11.315163     6A    -11.303549
       7A    -11.291563     8A    -11.255025     9A    -11.243751
      10A    -11.239644    11A     -1.630507    12A     -1.425130
      13A     -1.392008    14A     -1.158601    15A     -1.029999
      16A     -1.021018    17A     -0.947101    18A     -0.853084
      19A     -0.849054    20A     -0.756863    21A     -0.747322
      22A     -0.711347    23A     -0.700182    24A     -0.675638
      25A     -0.653814    26A     -0.646329    27A     -0.634894
      28A     -0.620837    29A     -0.589000    30A     -0.572514
      31A     -0.553751    32A     -0.540448    33A     -0.519462
      34A     -0.490433    35A     -0.473298    36A     -0.343380
      37A     -0.324827

  @DF-RHF Final Energy:  -518.47752277654718

   => Energetics <=

    Nuclear Repulsion Energy =            528.8970337722506656
    One-Electron Energy =               -1760.0231281758901787
    Two-Electron Energy =                 712.6485716270922239
    Total Energy =                       -518.4775227765471755
  Basis Set: (AUG-CC-PVTZ AUX)
    Blend: AUG-CC-PVTZ-RI
    Molecular point group: c1

    Geometry (in Angstrom), charge = 0, multiplicity = 1:

       Center              X                  Y                   Z               Mass
    ------------   -----------------  -----------------  -----------------  -----------------
         F            0.883888582190    -2.134991825648    -0.251488342445    18.998403162730
         O            1.649992582190     0.570223174352    -0.412309342445    15.994914619570
         O           -0.233048417810     2.484575174352    -0.122456342445    15.994914619570
         C            0.351372582190     0.168403174352    -0.163061342445    12.000000000000
         C           -0.615809417810     1.177588174352    -0.041804342445    12.000000000000
         C           -0.056822417810    -1.163481825648    -0.105070342445    12.000000000000
         C           -1.955780417810     0.849239174352     0.168867657555    12.000000000000
         C           -1.381413417810    -1.514186825648     0.116790657555    12.000000000000
         C           -2.327656417810    -0.493125825648     0.244307657555    12.000000000000
         C            2.574140582190     0.189718174352     0.628138657555    12.000000000000
         H           -2.684121417810     1.649142174352     0.261501657555     1.007825032230
         H           -1.654000417810    -2.563707825648     0.161187657555     1.007825032230
         H           -3.369896417810    -0.750914825648     0.410915657555     1.007825032230
         H            2.688631582190    -0.894335825648     0.660481657555     1.007825032230
         H            2.228056582190     0.559972174352     1.598298657555     1.007825032230
         H            3.522336582190     0.658302174352     0.365176657555     1.007825032230
         H            0.744700582190     2.463111674352    -0.328660542445     1.007825032230

  Basis Set: AUG-CC-PVTZ
    Blend: AUG-CC-PVTZ
  Basis Set: (AUG-CC-PVTZ AUX)
    Blend: AUG-CC-PVTZ-JKFIT
	 Reference Energy          =    -518.4775227765471755 [Eh]
	 Singles Energy            =      -0.0000000000000000 [Eh]
	 Same-Spin Energy          =      -0.5092029917203661 [Eh]
	 Opposite-Spin Energy      =      -1.5390017112597252 [Eh]
	 Correlation Energy        =      -2.0482047029800912 [Eh]
	 Total Energy              =    -520.5257274795272906 [Eh]

	 ================> DF-SCS-MP2 Energies <==================
	-----------------------------------------------------------
	 SCS Same-Spin Scale       =       0.3333333333333333 [-]
	 SCS Opposite-Spin Scale   =       1.2000000000000000 [-]
	 SCS Same-Spin Energy      =      -0.1697343305734554 [Eh]
	 SCS Opposite-Spin Energy  =      -1.8468020535116700 [Eh]
	 SCS Correlation Energy    =      -2.0165363840851254 [Eh]
	 SCS Total Energy          =    -520.4940591606323324 [Eh]
	-----------------------------------------------------------

  Dipole Moment: [D]
     X:     0.6773      Y:    -0.1619      Z:     1.1647     Total:     1.3570

*** Psi4 exiting successfully. Buy a developer a beer!
