                               Psi4 1.4a3.dev225

  ==> Input File <==

--------------------------------------------------------------------------
#psi4
#
memory 32 gb

molecule  {
0 1
  F        0.8801740    -2.1570240    -0.2741980
  O        1.6462780     0.5481910    -0.4350190
  O       -0.2367630     2.4625430    -0.1451660
  C        0.3476580     0.1463710    -0.1857710
  C       -0.6195240     1.1555560    -0.0645140
  C       -0.0605370    -1.1855140    -0.1277800
  C       -1.9594950     0.8272070     0.1461580
  C       -1.3851280    -1.5362190     0.0940810
  C       -2.3313710    -0.5151580     0.2215980
  C        2.5704260     0.1676860     0.6054290
  H       -2.6878360     1.6271100     0.2387920
  H       -1.6702737    -2.6340939     0.1405235
  H       -3.3736110    -0.7729470     0.3882060
  H        2.6849170    -0.9163680     0.6377720
  H        2.2243420     0.5379400     1.5755890
  H        3.5186220     0.6362700     0.3424670
  H        0.7214210     2.4415090    -0.3472440
units angstrom
no_reorient  #important for SAPT in psi4, default
symmetry c1  #important for SAPT in psi4, default
}

set PROPERTIES_ORIGIN ["COM"]
properties('MP2/aug-cc-pvtz', properties = ['dipole'])
--------------------------------------------------------------------------

    Molecular point group: c1
  Charge       = 0
  Multiplicity = 1
  Basis Set: AUG-CC-PVTZ
    Blend: AUG-CC-PVTZ
  Basis Set: (AUG-CC-PVTZ AUX)
    Blend: AUG-CC-PVTZ-JKFIT

    Orbital Energies [Eh]
    ---------------------

    Doubly Occupied:

       1A    -26.318207     2A    -20.599045     3A    -20.595805
       4A    -11.339778     5A    -11.315498     6A    -11.304035
       7A    -11.291460     8A    -11.255519     9A    -11.249405
      10A    -11.240136    11A     -1.630469    12A     -1.426810
      13A     -1.394621    14A     -1.158891    15A     -1.030279
      16A     -1.020348    17A     -0.947071    18A     -0.851928
      19A     -0.849601    20A     -0.759234    21A     -0.747482
      22A     -0.710394    23A     -0.699933    24A     -0.673657
      25A     -0.653744    26A     -0.645472    27A     -0.633121
      28A     -0.621316    29A     -0.589937    30A     -0.572711
      31A     -0.552064    32A     -0.539217    33A     -0.519513
      34A     -0.490722    35A     -0.473159    36A     -0.343697
      37A     -0.325293

  @DF-RHF Final Energy:  -518.47669639616015

   => Energetics <=

    Nuclear Repulsion Energy =            528.7341665456318651
    One-Electron Energy =               -1759.6825840366725515
    Two-Electron Energy =                 712.4717210948806496
    Total Energy =                       -518.4766963961601505
  Basis Set: (AUG-CC-PVTZ AUX)
    Blend: AUG-CC-PVTZ-RI
    Molecular point group: c1

    Geometry (in Angstrom), charge = 0, multiplicity = 1:

       Center              X                  Y                   Z               Mass
    ------------   -----------------  -----------------  -----------------  -----------------
         F            0.884116506602    -2.134651791944    -0.251532131956    18.998403162730
         O            1.650220506602     0.570563208056    -0.412353131956    15.994914619570
         O           -0.232820493398     2.484915208056    -0.122500131956    15.994914619570
         C            0.351600506602     0.168743208056    -0.163105131956    12.000000000000
         C           -0.615581493398     1.177928208056    -0.041848131956    12.000000000000
         C           -0.056594493398    -1.163141791944    -0.105114131956    12.000000000000
         C           -1.955552493398     0.849579208056     0.168823868044    12.000000000000
         C           -1.381185493398    -1.513846791944     0.116746868044    12.000000000000
         C           -2.327428493398    -0.492785791944     0.244263868044    12.000000000000
         C            2.574368506602     0.190058208056     0.628094868044    12.000000000000
         H           -2.683893493398     1.649482208056     0.261457868044     1.007825032230
         H           -1.666331193398    -2.611721691944     0.163189368044     1.007825032230
         H           -3.369668493398    -0.750574791944     0.410871868044     1.007825032230
         H            2.688859506602    -0.893995791944     0.660437868044     1.007825032230
         H            2.228284506602     0.560312208056     1.598254868044     1.007825032230
         H            3.522564506602     0.658642208056     0.365132868044     1.007825032230
         H            0.725363506602     2.463881208056    -0.324578131956     1.007825032230

  Basis Set: AUG-CC-PVTZ
    Blend: AUG-CC-PVTZ
  Basis Set: (AUG-CC-PVTZ AUX)
    Blend: AUG-CC-PVTZ-JKFIT
	 Reference Energy          =    -518.4766963961601505 [Eh]
	 Singles Energy            =      -0.0000000000000000 [Eh]
	 Same-Spin Energy          =      -0.5090121803718042 [Eh]
	 Opposite-Spin Energy      =      -1.5387053151903143 [Eh]
	 Correlation Energy        =      -2.0477174955621185 [Eh]
	 Total Energy              =    -520.5244138917222472 [Eh]

	 ================> DF-SCS-MP2 Energies <==================
	-----------------------------------------------------------
	 SCS Same-Spin Scale       =       0.3333333333333333 [-]
	 SCS Opposite-Spin Scale   =       1.2000000000000000 [-]
	 SCS Same-Spin Energy      =      -0.1696707267906014 [Eh]
	 SCS Opposite-Spin Energy  =      -1.8464463782283771 [Eh]
	 SCS Correlation Energy    =      -2.0161171050189783 [Eh]
	 SCS Total Energy          =    -520.4928135011791710 [Eh]
	-----------------------------------------------------------

  Dipole Moment: [D]
     X:     0.6486      Y:    -0.1617      Z:     1.1693     Total:     1.3469

*** Psi4 exiting successfully. Buy a developer a beer!
