                               Psi4 1.4a3.dev225

  ==> Input File <==

--------------------------------------------------------------------------
#psi4
#
memory 32 gb

molecule  {
0 1
  F        0.8801740    -2.1570240    -0.2741980
  O        1.6462780     0.5481910    -0.4350190
  O       -0.2367630     2.4625430    -0.1451660
  C        0.3476580     0.1463710    -0.1857710
  C       -0.6195240     1.1555560    -0.0645140
  C       -0.0898143    -1.2810417    -0.1236207
  C       -1.9594950     0.8272070     0.1461580
  C       -1.3851280    -1.5362190     0.0940810
  C       -2.3313710    -0.5151580     0.2215980
  C        2.5704260     0.1676860     0.6054290
  H       -2.6878360     1.6271100     0.2387920
  H       -1.6577150    -2.5857400     0.1384780
  H       -3.3736110    -0.7729470     0.3882060
  H        2.6849170    -0.9163680     0.6377720
  H        2.2243420     0.5379400     1.5755890
  H        3.5186220     0.6362700     0.3424670
  H        0.7214210     2.4415090    -0.3472440
units angstrom
no_reorient  #important for SAPT in psi4, default
symmetry c1  #important for SAPT in psi4, default
}

set PROPERTIES_ORIGIN ["COM"]
properties('MP2/aug-cc-pvtz', properties = ['dipole'])
--------------------------------------------------------------------------

    Molecular point group: c1
  Charge       = 0
  Multiplicity = 1
  Basis Set: AUG-CC-PVTZ
    Blend: AUG-CC-PVTZ
  Basis Set: (AUG-CC-PVTZ AUX)
    Blend: AUG-CC-PVTZ-JKFIT

    Orbital Energies [Eh]
    ---------------------

    Doubly Occupied:

       1A    -26.331372     2A    -20.597202     3A    -20.591786
       4A    -11.343181     5A    -11.310451     6A    -11.305684
       7A    -11.290248     8A    -11.254505     9A    -11.240952
      10A    -11.238269    11A     -1.658448    12A     -1.422878
      13A     -1.391098    14A     -1.154466    15A     -1.030954
      16A     -1.016281    17A     -0.943435    18A     -0.856317
      19A     -0.849114    20A     -0.760282    21A     -0.758461
      22A     -0.721470    23A     -0.711673    24A     -0.679003
      25A     -0.652702    26A     -0.650070    27A     -0.631047
      28A     -0.617653    29A     -0.586528    30A     -0.573686
      31A     -0.552253    32A     -0.534143    33A     -0.518651
      34A     -0.486963    35A     -0.467518    36A     -0.339365
      37A     -0.321029

  @DF-RHF Final Energy:  -518.46792742000127

   => Energetics <=

    Nuclear Repulsion Energy =            528.2224208226899691
    One-Electron Energy =               -1758.6024199857777148
    Two-Electron Energy =                 711.9120717430863579
    Total Energy =                       -518.4679274200012742
  Basis Set: (AUG-CC-PVTZ AUX)
    Blend: AUG-CC-PVTZ-RI
    Molecular point group: c1

    Geometry (in Angstrom), charge = 0, multiplicity = 1:

       Center              X                  Y                   Z               Mass
    ------------   -----------------  -----------------  -----------------  -----------------
         F            0.886500788893    -2.126924553923    -0.251869002420    18.998403162730
         O            1.652604788893     0.578290446077    -0.412690002420    15.994914619570
         O           -0.230436211107     2.492642446077    -0.122837002420    15.994914619570
         C            0.353984788893     0.176470446077    -0.163442002420    12.000000000000
         C           -0.613197211107     1.185655446077    -0.042185002420    12.000000000000
         C           -0.083487511107    -1.250942253923    -0.101291702420    12.000000000000
         C           -1.953168211107     0.857306446077     0.168486997580    12.000000000000
         C           -1.378801211107    -1.506119553923     0.116409997580    12.000000000000
         C           -2.325044211107    -0.485058553923     0.243926997580    12.000000000000
         C            2.576752788893     0.197785446077     0.627757997580    12.000000000000
         H           -2.681509211107     1.657209446077     0.261120997580     1.007825032230
         H           -1.651388211107    -2.555640553923     0.160806997580     1.007825032230
         H           -3.367284211107    -0.742847553923     0.410534997580     1.007825032230
         H            2.691243788893    -0.886268553923     0.660100997580     1.007825032230
         H            2.230668788893     0.568039446077     1.597917997580     1.007825032230
         H            3.524948788893     0.666369446077     0.364795997580     1.007825032230
         H            0.727747788893     2.471608446077    -0.324915002420     1.007825032230

  Basis Set: AUG-CC-PVTZ
    Blend: AUG-CC-PVTZ
  Basis Set: (AUG-CC-PVTZ AUX)
    Blend: AUG-CC-PVTZ-JKFIT
	 Reference Energy          =    -518.4679274200012742 [Eh]
	 Singles Energy            =      -0.0000000000000000 [Eh]
	 Same-Spin Energy          =      -0.5088730594106167 [Eh]
	 Opposite-Spin Energy      =      -1.5385279359331512 [Eh]
	 Correlation Energy        =      -2.0474009953437680 [Eh]
	 Total Energy              =    -520.5153284153450386 [Eh]

	 ================> DF-SCS-MP2 Energies <==================
	-----------------------------------------------------------
	 SCS Same-Spin Scale       =       0.3333333333333333 [-]
	 SCS Opposite-Spin Scale   =       1.2000000000000000 [-]
	 SCS Same-Spin Energy      =      -0.1696243531368722 [Eh]
	 SCS Opposite-Spin Energy  =      -1.8462335231197813 [Eh]
	 SCS Correlation Energy    =      -2.0158578762566535 [Eh]
	 SCS Total Energy          =    -520.4837852962579063 [Eh]
	-----------------------------------------------------------

  Dipole Moment: [D]
     X:     0.7535      Y:    -0.4650      Z:     1.1386     Total:     1.4423

*** Psi4 exiting successfully. Buy a developer a beer!
