                               Psi4 1.4a3.dev225

  ==> Input File <==

--------------------------------------------------------------------------
#psi4
#
memory 32 gb

molecule  {
0 1
  F        0.8801740    -2.1570240    -0.2741980
  O        1.6462780     0.5481910    -0.4350190
  O       -0.2367630     2.4625430    -0.1451660
  C        0.3476580     0.1463710    -0.1857710
  C       -0.6195240     1.1555560    -0.0645140
  C       -0.0605370    -1.1855140    -0.1277800
  C       -1.9594950     0.8272070     0.1461580
  C       -1.3851280    -1.5362190     0.0940810
  C       -2.3313710    -0.5151580     0.2215980
  C        2.5704260     0.1676860     0.6054290
  H       -2.6878360     1.6271100     0.2387920
  H       -1.6325976    -2.4890323     0.1343871
  H       -3.3736110    -0.7729470     0.3882060
  H        2.6849170    -0.9163680     0.6377720
  H        2.2243420     0.5379400     1.5755890
  H        3.5186220     0.6362700     0.3424670
  H        0.7214210     2.4415090    -0.3472440
units angstrom
no_reorient  #important for SAPT in psi4, default
symmetry c1  #important for SAPT in psi4, default
}

set PROPERTIES_ORIGIN ["COM"]
properties('MP2/aug-cc-pvtz', properties = ['dipole'])
--------------------------------------------------------------------------

    Molecular point group: c1
  Charge       = 0
  Multiplicity = 1
  Basis Set: AUG-CC-PVTZ
    Blend: AUG-CC-PVTZ
  Basis Set: (AUG-CC-PVTZ AUX)
    Blend: AUG-CC-PVTZ-JKFIT

    Orbital Energies [Eh]
    ---------------------

    Doubly Occupied:

       1A    -26.318477     2A    -20.598612     3A    -20.595640
       4A    -11.338753     5A    -11.315297     6A    -11.303263
       7A    -11.291278     8A    -11.254571     9A    -11.239385
      10A    -11.232461    11A     -1.630777    12A     -1.426509
      13A     -1.394349    14A     -1.159492    15A     -1.029976
      16A     -1.025557    17A     -0.947184    18A     -0.859127
      19A     -0.849564    20A     -0.760464    21A     -0.747625
      22A     -0.714933    23A     -0.701097    24A     -0.684710
      25A     -0.653849    26A     -0.648616    27A     -0.637676
      28A     -0.621059    29A     -0.589789    30A     -0.576134
      31A     -0.556981    32A     -0.542473    33A     -0.519856
      34A     -0.490518    35A     -0.473168    36A     -0.343097
      37A     -0.325026

  @DF-RHF Final Energy:  -518.47318180057960

   => Energetics <=

    Nuclear Repulsion Energy =            529.5656084177726370
    One-Electron Energy =               -1761.2828934989922800
    Two-Electron Energy =                 713.2441032806400472
    Total Energy =                       -518.4731818005795958
  Basis Set: (AUG-CC-PVTZ AUX)
    Blend: AUG-CC-PVTZ-RI
    Molecular point group: c1

    Geometry (in Angstrom), charge = 0, multiplicity = 1:

       Center              X                  Y                   Z               Mass
    ------------   -----------------  -----------------  -----------------  -----------------
         F            0.883849186743    -2.135681034524    -0.251488592906    18.998403162730
         O            1.649953186743     0.569533965476    -0.412309592906    15.994914619570
         O           -0.233087813257     2.483885965476    -0.122456592906    15.994914619570
         C            0.351333186743     0.167713965476    -0.163061592906    12.000000000000
         C           -0.615848813257     1.176898965476    -0.041804592906    12.000000000000
         C           -0.056861813257    -1.164171034524    -0.105070592906    12.000000000000
         C           -1.955819813257     0.848549965476     0.168867407094    12.000000000000
         C           -1.381452813257    -1.514876034524     0.116790407094    12.000000000000
         C           -2.327695813257    -0.493815034524     0.244307407094    12.000000000000
         C            2.574101186743     0.189028965476     0.628138407094    12.000000000000
         H           -2.684160813257     1.648452965476     0.261501407094     1.007825032230
         H           -1.628922413257    -2.467689334524     0.157096507094     1.007825032230
         H           -3.369935813257    -0.751604034524     0.410915407094     1.007825032230
         H            2.688592186743    -0.895025034524     0.660481407094     1.007825032230
         H            2.228017186743     0.559282965476     1.598298407094     1.007825032230
         H            3.522297186743     0.657612965476     0.365176407094     1.007825032230
         H            0.725096186743     2.462851965476    -0.324534592906     1.007825032230

  Basis Set: AUG-CC-PVTZ
    Blend: AUG-CC-PVTZ
  Basis Set: (AUG-CC-PVTZ AUX)
    Blend: AUG-CC-PVTZ-JKFIT
	 Reference Energy          =    -518.4731818005795958 [Eh]
	 Singles Energy            =      -0.0000000000000000 [Eh]
	 Same-Spin Energy          =      -0.5087445514684714 [Eh]
	 Opposite-Spin Energy      =      -1.5379528995988374 [Eh]
	 Correlation Energy        =      -2.0466974510673088 [Eh]
	 Total Energy              =    -520.5198792516468984 [Eh]

	 ================> DF-SCS-MP2 Energies <==================
	-----------------------------------------------------------
	 SCS Same-Spin Scale       =       0.3333333333333333 [-]
	 SCS Opposite-Spin Scale   =       1.2000000000000000 [-]
	 SCS Same-Spin Energy      =      -0.1695815171561571 [Eh]
	 SCS Opposite-Spin Energy  =      -1.8455434795186048 [Eh]
	 SCS Correlation Energy    =      -2.0151249966747620 [Eh]
	 SCS Total Energy          =    -520.4883067972543813 [Eh]
	-----------------------------------------------------------

  Dipole Moment: [D]
     X:     0.6509      Y:    -0.1664      Z:     1.1682     Total:     1.3476

*** Psi4 exiting successfully. Buy a developer a beer!
