                               Psi4 1.4a3.dev225

  ==> Input File <==

--------------------------------------------------------------------------
#psi4
#
memory 32 gb

molecule  {
0 1
  F        0.8801740    -2.1570240    -0.2741980
  O        1.6462780     0.5481910    -0.4350190
  O       -0.2367630     2.4625430    -0.1451660
  C        0.3476580     0.1463710    -0.1857710
  C       -0.6317637     1.2026902    -0.0632697
  C       -0.0605370    -1.1855140    -0.1277800
  C       -1.9594950     0.8272070     0.1461580
  C       -1.3851280    -1.5362190     0.0940810
  C       -2.3313710    -0.5151580     0.2215980
  C        2.5704260     0.1676860     0.6054290
  H       -2.6878360     1.6271100     0.2387920
  H       -1.6577150    -2.5857400     0.1384780
  H       -3.3736110    -0.7729470     0.3882060
  H        2.6849170    -0.9163680     0.6377720
  H        2.2243420     0.5379400     1.5755890
  H        3.5186220     0.6362700     0.3424670
  H        0.7214210     2.4415090    -0.3472440
units angstrom
no_reorient  #important for SAPT in psi4, default
symmetry c1  #important for SAPT in psi4, default
}

set PROPERTIES_ORIGIN ["COM"]
properties('MP2/aug-cc-pvtz', properties = ['dipole'])
--------------------------------------------------------------------------

    Molecular point group: c1
  Charge       = 0
  Multiplicity = 1
  Basis Set: AUG-CC-PVTZ
    Blend: AUG-CC-PVTZ
  Basis Set: (AUG-CC-PVTZ AUX)
    Blend: AUG-CC-PVTZ-JKFIT

    Orbital Energies [Eh]
    ---------------------

    Doubly Occupied:

       1A    -26.316845     2A    -20.603093     3A    -20.598289
       4A    -11.337424     5A    -11.320221     6A    -11.304714
       7A    -11.290866     8A    -11.254238     9A    -11.241452
      10A    -11.236987    11A     -1.629086    12A     -1.439785
      13A     -1.402969    14A     -1.153438    15A     -1.026688
      16A     -1.018109    17A     -0.946072    18A     -0.855418
      19A     -0.845031    20A     -0.769734    21A     -0.746423
      22A     -0.710112    23A     -0.698745    24A     -0.681091
      25A     -0.653547    26A     -0.645555    27A     -0.636372
      28A     -0.624226    29A     -0.600898    30A     -0.573450
      31A     -0.555080    32A     -0.537244    33A     -0.515850
      34A     -0.488828    35A     -0.470740    36A     -0.342402
      37A     -0.317763

  @DF-RHF Final Energy:  -518.47641124665404

   => Energetics <=

    Nuclear Repulsion Energy =            528.5978467538750465
    One-Electron Energy =               -1759.3709466682109905
    Two-Electron Energy =                 712.2966886676819058
    Total Energy =                       -518.4764112466540382
  Basis Set: (AUG-CC-PVTZ AUX)
    Blend: AUG-CC-PVTZ-RI
    Molecular point group: c1

    Geometry (in Angstrom), charge = 0, multiplicity = 1:

       Center              X                  Y                   Z               Mass
    ------------   -----------------  -----------------  -----------------  -----------------
         F            0.885061427651    -2.138976838851    -0.251622738977    18.998403162730
         O            1.651165427651     0.566238161149    -0.412443738977    15.994914619570
         O           -0.231875572349     2.480590161149    -0.122590738977    15.994914619570
         C            0.352545427651     0.164418161149    -0.163195738977    12.000000000000
         C           -0.626876272349     1.220737361149    -0.040694438977    12.000000000000
         C           -0.055649572349    -1.167466838851    -0.105204738977    12.000000000000
         C           -1.954607572349     0.845254161149     0.168733261023    12.000000000000
         C           -1.380240572349    -1.518171838851     0.116656261023    12.000000000000
         C           -2.326483572349    -0.497110838851     0.244173261023    12.000000000000
         C            2.575313427651     0.185733161149     0.628004261023    12.000000000000
         H           -2.682948572349     1.645157161149     0.261367261023     1.007825032230
         H           -1.652827572349    -2.567692838851     0.161053261023     1.007825032230
         H           -3.368723572349    -0.754899838851     0.410781261023     1.007825032230
         H            2.689804427651    -0.898320838851     0.660347261023     1.007825032230
         H            2.229229427651     0.555987161149     1.598164261023     1.007825032230
         H            3.523509427651     0.654317161149     0.365042261023     1.007825032230
         H            0.726308427651     2.459556161149    -0.324668738977     1.007825032230

  Basis Set: AUG-CC-PVTZ
    Blend: AUG-CC-PVTZ
  Basis Set: (AUG-CC-PVTZ AUX)
    Blend: AUG-CC-PVTZ-JKFIT
	 Reference Energy          =    -518.4764112466540382 [Eh]
	 Singles Energy            =      -0.0000000000000000 [Eh]
	 Same-Spin Energy          =      -0.5090225632672469 [Eh]
	 Opposite-Spin Energy      =      -1.5381491790576520 [Eh]
	 Correlation Energy        =      -2.0471717423248990 [Eh]
	 Total Energy              =    -520.5235829889788874 [Eh]

	 ================> DF-SCS-MP2 Energies <==================
	-----------------------------------------------------------
	 SCS Same-Spin Scale       =       0.3333333333333333 [-]
	 SCS Opposite-Spin Scale   =       1.2000000000000000 [-]
	 SCS Same-Spin Energy      =      -0.1696741877557490 [Eh]
	 SCS Opposite-Spin Energy  =      -1.8457790148691824 [Eh]
	 SCS Correlation Energy    =      -2.0154532026249314 [Eh]
	 SCS Total Energy          =    -520.4918644492789781 [Eh]
	-----------------------------------------------------------

  Dipole Moment: [D]
     X:     0.7413      Y:     0.1001      Z:     1.1425     Total:     1.3656

*** Psi4 exiting successfully. Buy a developer a beer!
