                               Psi4 1.4a3.dev225

  ==> Input File <==

--------------------------------------------------------------------------
#psi4
#
memory 32 gb

molecule  {
0 1
  F        0.8801740    -2.1570240    -0.2741980
  O        1.6462780     0.5481910    -0.4350190
  O       -0.2367630     2.4625430    -0.1451660
  C        0.3476580     0.1463710    -0.1857710
  C       -0.6195240     1.1555560    -0.0645140
  C       -0.0605370    -1.1855140    -0.1277800
  C       -1.9594950     0.8272070     0.1461580
  C       -1.3851280    -1.5362190     0.0940810
  C       -2.3313710    -0.5151580     0.2215980
  C        2.6985402     0.1149368     0.7496658
  H       -2.6878360     1.6271100     0.2387920
  H       -1.6577150    -2.5857400     0.1384780
  H       -3.3736110    -0.7729470     0.3882060
  H        2.6849170    -0.9163680     0.6377720
  H        2.2243420     0.5379400     1.5755890
  H        3.5186220     0.6362700     0.3424670
  H        0.7214210     2.4415090    -0.3472440
units angstrom
no_reorient  #important for SAPT in psi4, default
symmetry c1  #important for SAPT in psi4, default
}

set PROPERTIES_ORIGIN ["COM"]
properties('MP2/aug-cc-pvtz', properties = ['dipole'])
--------------------------------------------------------------------------

    Molecular point group: c1
  Charge       = 0
  Multiplicity = 1
  Basis Set: AUG-CC-PVTZ
    Blend: AUG-CC-PVTZ
  Basis Set: (AUG-CC-PVTZ AUX)
    Blend: AUG-CC-PVTZ-JKFIT

    Orbital Energies [Eh]
    ---------------------

    Doubly Occupied:

       1A    -26.314966     2A    -20.589296     3A    -20.581604
       4A    -11.331602     5A    -11.307409     6A    -11.303400
       7A    -11.295419     8A    -11.248661     9A    -11.239118
      10A    -11.234628    11A     -1.627169    12A     -1.409147
      13A     -1.356529    14A     -1.150912    15A     -1.020901
      16A     -1.014977    17A     -0.965410    18A     -0.847190
      19A     -0.843733    20A     -0.751964    21A     -0.740684
      22A     -0.700952    23A     -0.689924    24A     -0.671992
      25A     -0.656726    26A     -0.645202    27A     -0.628446
      28A     -0.606919    29A     -0.591595    30A     -0.568409
      31A     -0.550475    32A     -0.540210    33A     -0.522025
      34A     -0.482132    35A     -0.472929    36A     -0.335192
      37A     -0.316137

  @DF-RHF Final Energy:  -518.45181335726750

   => Energetics <=

    Nuclear Repulsion Energy =            525.2312193444100785
    One-Electron Energy =               -1753.0580963888969563
    Two-Electron Energy =                 709.3750636872194946
    Total Energy =                       -518.4518133572674969
  Basis Set: (AUG-CC-PVTZ AUX)
    Blend: AUG-CC-PVTZ-RI
    Molecular point group: c1

    Geometry (in Angstrom), charge = 0, multiplicity = 1:

       Center              X                  Y                   Z               Mass
    ------------   -----------------  -----------------  -----------------  -----------------
         F            0.873204125921    -2.130538543859    -0.263702953475    18.998403162730
         O            1.639308125921     0.574676456141    -0.424523953475    15.994914619570
         O           -0.243732874079     2.489028456141    -0.134670953475    15.994914619570
         C            0.340688125921     0.172856456141    -0.175275953475    12.000000000000
         C           -0.626493874079     1.182041456141    -0.054018953475    12.000000000000
         C           -0.067506874079    -1.159028543859    -0.117284953475    12.000000000000
         C           -1.966464874079     0.853692456141     0.156653046525    12.000000000000
         C           -1.392097874079    -1.509733543859     0.104576046525    12.000000000000
         C           -2.338340874079    -0.488672543859     0.232093046525    12.000000000000
         C            2.691570325921     0.141422256141     0.760160846525    12.000000000000
         H           -2.694805874079     1.653595456141     0.249287046525     1.007825032230
         H           -1.664684874079    -2.559254543859     0.148973046525     1.007825032230
         H           -3.380580874079    -0.746461543859     0.398701046525     1.007825032230
         H            2.677947125921    -0.889882543859     0.648267046525     1.007825032230
         H            2.217372125921     0.564425456141     1.586084046525     1.007825032230
         H            3.511652125921     0.662755456141     0.352962046525     1.007825032230
         H            0.714451125921     2.467994456141    -0.336748953475     1.007825032230

  Basis Set: AUG-CC-PVTZ
    Blend: AUG-CC-PVTZ
  Basis Set: (AUG-CC-PVTZ AUX)
    Blend: AUG-CC-PVTZ-JKFIT
	 Reference Energy          =    -518.4518133572674969 [Eh]
	 Singles Energy            =      -0.0000000000000000 [Eh]
	 Same-Spin Energy          =      -0.5099522211374622 [Eh]
	 Opposite-Spin Energy      =      -1.5419900440901688 [Eh]
	 Correlation Energy        =      -2.0519422652276309 [Eh]
	 Total Energy              =    -520.5037556224950777 [Eh]

	 ================> DF-SCS-MP2 Energies <==================
	-----------------------------------------------------------
	 SCS Same-Spin Scale       =       0.3333333333333333 [-]
	 SCS Opposite-Spin Scale   =       1.2000000000000000 [-]
	 SCS Same-Spin Energy      =      -0.1699840737124874 [Eh]
	 SCS Opposite-Spin Energy  =      -1.8503880529082024 [Eh]
	 SCS Correlation Energy    =      -2.0203721266206900 [Eh]
	 SCS Total Energy          =    -520.4721854838882109 [Eh]
	-----------------------------------------------------------

  Dipole Moment: [D]
     X:     1.2938      Y:    -0.2375      Z:     1.5556     Total:     2.0372

*** Psi4 exiting successfully. Buy a developer a beer!
