                               Psi4 1.4a3.dev225

  ==> Input File <==

--------------------------------------------------------------------------
#psi4
#
memory 32 gb

molecule  {
0 1
  F        0.8801740    -2.1570240    -0.2741980
  O        1.6462780     0.5481910    -0.4350190
  O       -0.2367630     2.4625430    -0.1451660
  C        0.3476580     0.1463710    -0.1857710
  C       -0.6195240     1.1555560    -0.0645140
  C       -0.0605370    -1.1855140    -0.1277800
  C       -1.9594950     0.8272070     0.1461580
  C       -1.3851280    -1.5362190     0.0940810
  C       -2.3313710    -0.5151580     0.2215980
  C        2.5704260     0.1676860     0.6054290
  H       -2.6878360     1.6271100     0.2387920
  H       -1.6577150    -2.5857400     0.1384780
  H       -3.3736110    -0.7729470     0.3882060
  H        2.6828173    -0.8964874     0.6371789
  H        2.2243420     0.5379400     1.5755890
  H        3.5186220     0.6362700     0.3424670
  H        0.7214210     2.4415090    -0.3472440
units angstrom
no_reorient  #important for SAPT in psi4, default
symmetry c1  #important for SAPT in psi4, default
}

set PROPERTIES_ORIGIN ["COM"]
properties('MP2/aug-cc-pvtz', properties = ['dipole'])
--------------------------------------------------------------------------

    Molecular point group: c1
  Charge       = 0
  Multiplicity = 1
  Basis Set: AUG-CC-PVTZ
    Blend: AUG-CC-PVTZ
  Basis Set: (AUG-CC-PVTZ AUX)
    Blend: AUG-CC-PVTZ-JKFIT

    Orbital Energies [Eh]
    ---------------------

    Doubly Occupied:

       1A    -26.318308     2A    -20.598585     3A    -20.595656
       4A    -11.339325     5A    -11.315336     6A    -11.303682
       7A    -11.289161     8A    -11.255094     9A    -11.243918
      10A    -11.239815    11A     -1.630560    12A     -1.426575
      13A     -1.394411    14A     -1.158931    15A     -1.030241
      16A     -1.021776    17A     -0.948822    18A     -0.853747
      19A     -0.849875    20A     -0.759506    21A     -0.747470
      22A     -0.711594    23A     -0.700334    24A     -0.676851
      25A     -0.654456    26A     -0.647100    27A     -0.635170
      28A     -0.622189    29A     -0.589807    30A     -0.573657
      31A     -0.554235    32A     -0.540952    33A     -0.519762
      34A     -0.490950    35A     -0.473877    36A     -0.343430
      37A     -0.325100

  @DF-RHF Final Energy:  -518.47926413811535

   => Energetics <=

    Nuclear Repulsion Energy =            529.0753156908509709
    One-Electron Energy =               -1760.3486410882730979
    Two-Electron Energy =                 712.7940612593066589
    Total Energy =                       -518.4792641381153544
  Basis Set: (AUG-CC-PVTZ AUX)
    Blend: AUG-CC-PVTZ-RI
    Molecular point group: c1

    Geometry (in Angstrom), charge = 0, multiplicity = 1:

       Center              X                  Y                   Z               Mass
    ------------   -----------------  -----------------  -----------------  -----------------
         F            0.884042297795    -2.135135930082    -0.251513410533    18.998403162730
         O            1.650146297795     0.570079069918    -0.412334410533    15.994914619570
         O           -0.232894702205     2.484431069918    -0.122481410533    15.994914619570
         C            0.351526297795     0.168259069918    -0.163086410533    12.000000000000
         C           -0.615655702205     1.177444069918    -0.041829410533    12.000000000000
         C           -0.056668702205    -1.163625930082    -0.105095410533    12.000000000000
         C           -1.955626702205     0.849095069918     0.168842589467    12.000000000000
         C           -1.381259702205    -1.514330930082     0.116765589467    12.000000000000
         C           -2.327502702205    -0.493269930082     0.244282589467    12.000000000000
         C            2.574294297795     0.189574069918     0.628113589467    12.000000000000
         H           -2.683967702205     1.648998069918     0.261476589467     1.007825032230
         H           -1.653846702205    -2.563851930082     0.161162589467     1.007825032230
         H           -3.369742702205    -0.751058930082     0.410890589467     1.007825032230
         H            2.686685597795    -0.874599330082     0.659863489467     1.007825032230
         H            2.228210297795     0.559828069918     1.598273589467     1.007825032230
         H            3.522490297795     0.658158069918     0.365151589467     1.007825032230
         H            0.725289297795     2.463397069918    -0.324559410533     1.007825032230

  Basis Set: AUG-CC-PVTZ
    Blend: AUG-CC-PVTZ
  Basis Set: (AUG-CC-PVTZ AUX)
    Blend: AUG-CC-PVTZ-JKFIT
	 Reference Energy          =    -518.4792641381153544 [Eh]
	 Singles Energy            =      -0.0000000000000000 [Eh]
	 Same-Spin Energy          =      -0.5088655426528281 [Eh]
	 Opposite-Spin Energy      =      -1.5381839600661436 [Eh]
	 Correlation Energy        =      -2.0470495027189717 [Eh]
	 Total Energy              =    -520.5263136408343598 [Eh]

	 ================> DF-SCS-MP2 Energies <==================
	-----------------------------------------------------------
	 SCS Same-Spin Scale       =       0.3333333333333333 [-]
	 SCS Opposite-Spin Scale   =       1.2000000000000000 [-]
	 SCS Same-Spin Energy      =      -0.1696218475509427 [Eh]
	 SCS Opposite-Spin Energy  =      -1.8458207520793721 [Eh]
	 SCS Correlation Energy    =      -2.0154425996303149 [Eh]
	 SCS Total Energy          =    -520.4947067377456733 [Eh]
	-----------------------------------------------------------

  Dipole Moment: [D]
     X:     0.6563      Y:    -0.1709      Z:     1.1728     Total:     1.3548

*** Psi4 exiting successfully. Buy a developer a beer!
