                               Psi4 1.4a3.dev225

  ==> Input File <==

--------------------------------------------------------------------------
#psi4
#
memory 32 gb

molecule  {
0 1
  F        0.8801740    -2.1570240    -0.2741980
  O        1.6462780     0.5481910    -0.4350190
  O       -0.2367630     2.4625430    -0.1451660
  C        0.3476580     0.1463710    -0.1857710
  C       -0.6089168     1.1080217    -0.0655016
  C       -0.0605370    -1.1855140    -0.1277800
  C       -1.9594950     0.8272070     0.1461580
  C       -1.3851280    -1.5362190     0.0940810
  C       -2.3313710    -0.5151580     0.2215980
  C        2.5704260     0.1676860     0.6054290
  H       -2.6878360     1.6271100     0.2387920
  H       -1.6577150    -2.5857400     0.1384780
  H       -3.3736110    -0.7729470     0.3882060
  H        2.6849170    -0.9163680     0.6377720
  H        2.2243420     0.5379400     1.5755890
  H        3.5186220     0.6362700     0.3424670
  H        0.7214210     2.4415090    -0.3472440
units angstrom
no_reorient  #important for SAPT in psi4, default
symmetry c1  #important for SAPT in psi4, default
}

set PROPERTIES_ORIGIN ["COM"]
properties('MP2/aug-cc-pvtz', properties = ['dipole'])
--------------------------------------------------------------------------

    Molecular point group: c1
  Charge       = 0
  Multiplicity = 1
  Basis Set: AUG-CC-PVTZ
    Blend: AUG-CC-PVTZ
  Basis Set: (AUG-CC-PVTZ AUX)
    Blend: AUG-CC-PVTZ-JKFIT

    Orbital Energies [Eh]
    ---------------------

    Doubly Occupied:

       1A    -26.319605     2A    -20.599591     3A    -20.588697
       4A    -11.341229     5A    -11.310897     6A    -11.302286
       7A    -11.291942     8A    -11.256053     9A    -11.246180
      10A    -11.242664    11A     -1.631928    12A     -1.421640
      13A     -1.379683    14A     -1.164934    15A     -1.035688
      16A     -1.023661    17A     -0.948177    18A     -0.858093
      19A     -0.849027    20A     -0.751729    21A     -0.748017
      22A     -0.712722    23A     -0.701681    24A     -0.672270
      25A     -0.654728    26A     -0.648790    27A     -0.633080
      28A     -0.617757    29A     -0.580733    30A     -0.572495
      31A     -0.551939    32A     -0.544586    33A     -0.521437
      34A     -0.491831    35A     -0.474979    36A     -0.345209
      37A     -0.332064

  @DF-RHF Final Energy:  -518.47598779011241

   => Energetics <=

    Nuclear Repulsion Energy =            529.4280358546021716
    One-Electron Energy =               -1761.0720026868284549
    Two-Electron Energy =                 713.1679790421139842
    Total Energy =                       -518.4759877901124128
  Basis Set: (AUG-CC-PVTZ AUX)
    Blend: AUG-CC-PVTZ-RI
    Molecular point group: c1

    Geometry (in Angstrom), charge = 0, multiplicity = 1:

       Center              X                  Y                   Z               Mass
    ------------   -----------------  -----------------  -----------------  -----------------
         F            0.883131288289    -2.130979106200    -0.251434184817    18.998403162730
         O            1.649235288289     0.574235893800    -0.412255184817    15.994914619570
         O           -0.233805711711     2.488587893800    -0.122402184817    15.994914619570
         C            0.350615288289     0.172415893800    -0.163007184817    12.000000000000
         C           -0.605959511711     1.134066593800    -0.042737784817    12.000000000000
         C           -0.057579711711    -1.159469106200    -0.105016184817    12.000000000000
         C           -1.956537711711     0.853251893800     0.168921815183    12.000000000000
         C           -1.382170711711    -1.510174106200     0.116844815183    12.000000000000
         C           -2.328413711711    -0.489113106200     0.244361815183    12.000000000000
         C            2.573383288289     0.193730893800     0.628192815183    12.000000000000
         H           -2.684878711711     1.653154893800     0.261555815183     1.007825032230
         H           -1.654757711711    -2.559695106200     0.161241815183     1.007825032230
         H           -3.370653711711    -0.746902106200     0.410969815183     1.007825032230
         H            2.687874288289    -0.890323106200     0.660535815183     1.007825032230
         H            2.227299288289     0.563984893800     1.598352815183     1.007825032230
         H            3.521579288289     0.662314893800     0.365230815183     1.007825032230
         H            0.724378288289     2.467553893800    -0.324480184817     1.007825032230

  Basis Set: AUG-CC-PVTZ
    Blend: AUG-CC-PVTZ
  Basis Set: (AUG-CC-PVTZ AUX)
    Blend: AUG-CC-PVTZ-JKFIT
	 Reference Energy          =    -518.4759877901124128 [Eh]
	 Singles Energy            =      -0.0000000000000000 [Eh]
	 Same-Spin Energy          =      -0.5088520771589435 [Eh]
	 Opposite-Spin Energy      =      -1.5388352624880781 [Eh]
	 Correlation Energy        =      -2.0476873396470214 [Eh]
	 Total Energy              =    -520.5236751297594537 [Eh]

	 ================> DF-SCS-MP2 Energies <==================
	-----------------------------------------------------------
	 SCS Same-Spin Scale       =       0.3333333333333333 [-]
	 SCS Opposite-Spin Scale   =       1.2000000000000000 [-]
	 SCS Same-Spin Energy      =      -0.1696173590529812 [Eh]
	 SCS Opposite-Spin Energy  =      -1.8466023149856936 [Eh]
	 SCS Correlation Energy    =      -2.0162196740386746 [Eh]
	 SCS Total Energy          =    -520.4922074641510790 [Eh]
	-----------------------------------------------------------

  Dipole Moment: [D]
     X:     0.5614      Y:    -0.4186      Z:     1.1947     Total:     1.3848

*** Psi4 exiting successfully. Buy a developer a beer!
