                               Psi4 1.4a3.dev225

  ==> Input File <==

--------------------------------------------------------------------------
#psi4
#
memory 32 gb

molecule  {
0 1
  F        0.8801740    -2.1570240    -0.2741980
  O        1.6462780     0.5481910    -0.4350190
  O       -0.2367630     2.4625430    -0.1451660
  C        0.3476580     0.1463710    -0.1857710
  C       -0.6195240     1.1555560    -0.0645140
  C       -0.0605370    -1.1855140    -0.1277800
  C       -1.9594950     0.8272070     0.1461580
  C       -1.3851280    -1.5362190     0.0940810
  C       -2.3313710    -0.5151580     0.2215980
  C        2.5704260     0.1676860     0.6054290
  H       -2.6878360     1.6271100     0.2387920
  H       -1.6577150    -2.5857400     0.1384780
  H       -3.3736110    -0.7729470     0.3882060
  H        2.6901662    -0.9660696     0.6392549
  H        2.2243420     0.5379400     1.5755890
  H        3.5186220     0.6362700     0.3424670
  H        0.7214210     2.4415090    -0.3472440
units angstrom
no_reorient  #important for SAPT in psi4, default
symmetry c1  #important for SAPT in psi4, default
}

set PROPERTIES_ORIGIN ["COM"]
properties('MP2/aug-cc-pvtz', properties = ['dipole'])
--------------------------------------------------------------------------

    Molecular point group: c1
  Charge       = 0
  Multiplicity = 1
  Basis Set: AUG-CC-PVTZ
    Blend: AUG-CC-PVTZ
  Basis Set: (AUG-CC-PVTZ AUX)
    Blend: AUG-CC-PVTZ-JKFIT

    Orbital Energies [Eh]
    ---------------------

    Doubly Occupied:

       1A    -26.318200     2A    -20.599677     3A    -20.595897
       4A    -11.339491     5A    -11.315546     6A    -11.303926
       7A    -11.296814     8A    -11.255232     9A    -11.244021
      10A    -11.239951    11A     -1.630544    12A     -1.426998
      13A     -1.394779    14A     -1.159055    15A     -1.029799
      16A     -1.021739    17A     -0.943205    18A     -0.853849
      19A     -0.849115    20A     -0.759475    21A     -0.747565
      22A     -0.710822    23A     -0.699971    24A     -0.676888
      25A     -0.652786    26A     -0.644563    27A     -0.635291
      28A     -0.618363    29A     -0.589999    30A     -0.573833
      31A     -0.552728    32A     -0.540647    33A     -0.519576
      34A     -0.489912    35A     -0.471033    36A     -0.343568
      37A     -0.325291

  @DF-RHF Final Energy:  -518.47686445215982

   => Energetics <=

    Nuclear Repulsion Energy =            528.8049584068683089
    One-Electron Energy =               -1759.8233471696607921
    Two-Electron Energy =                 712.5415243106326670
    Total Energy =                       -518.4768644521598162
  Basis Set: (AUG-CC-PVTZ AUX)
    Blend: AUG-CC-PVTZ-RI
    Molecular point group: c1

    Geometry (in Angstrom), charge = 0, multiplicity = 1:

       Center              X                  Y                   Z               Mass
    ------------   -----------------  -----------------  -----------------  -----------------
         F            0.883990155803    -2.134642229729    -0.251528140190    18.998403162730
         O            1.650094155803     0.570572770271    -0.412349140190    15.994914619570
         O           -0.232946844197     2.484924770271    -0.122496140190    15.994914619570
         C            0.351474155803     0.168752770271    -0.163101140190    12.000000000000
         C           -0.615707844197     1.177937770271    -0.041844140190    12.000000000000
         C           -0.056720844197    -1.163132229729    -0.105110140190    12.000000000000
         C           -1.955678844197     0.849588770271     0.168827859810    12.000000000000
         C           -1.381311844197    -1.513837229729     0.116750859810    12.000000000000
         C           -2.327554844197    -0.492776229729     0.244267859810    12.000000000000
         C            2.574242155803     0.190067770271     0.628098859810    12.000000000000
         H           -2.684019844197     1.649491770271     0.261461859810     1.007825032230
         H           -1.653898844197    -2.563358229729     0.161147859810     1.007825032230
         H           -3.369794844197    -0.750565229729     0.410875859810     1.007825032230
         H            2.693982355803    -0.943687829729     0.661924759810     1.007825032230
         H            2.228158155803     0.560321770271     1.598258859810     1.007825032230
         H            3.522438155803     0.658651770271     0.365136859810     1.007825032230
         H            0.725237155803     2.463890770271    -0.324574140190     1.007825032230

  Basis Set: AUG-CC-PVTZ
    Blend: AUG-CC-PVTZ
  Basis Set: (AUG-CC-PVTZ AUX)
    Blend: AUG-CC-PVTZ-JKFIT
	 Reference Energy          =    -518.4768644521598162 [Eh]
	 Singles Energy            =      -0.0000000000000000 [Eh]
	 Same-Spin Energy          =      -0.5090073746779415 [Eh]
	 Opposite-Spin Energy      =      -1.5387917772886230 [Eh]
	 Correlation Energy        =      -2.0477991519665646 [Eh]
	 Total Energy              =    -520.5246636041264310 [Eh]

	 ================> DF-SCS-MP2 Energies <==================
	-----------------------------------------------------------
	 SCS Same-Spin Scale       =       0.3333333333333333 [-]
	 SCS Opposite-Spin Scale   =       1.2000000000000000 [-]
	 SCS Same-Spin Energy      =      -0.1696691248926472 [Eh]
	 SCS Opposite-Spin Energy  =      -1.8465501327463476 [Eh]
	 SCS Correlation Energy    =      -2.0162192576389946 [Eh]
	 SCS Total Energy          =    -520.4930837097988388 [Eh]
	-----------------------------------------------------------

  Dipole Moment: [D]
     X:     0.6268      Y:    -0.1520      Z:     1.1588     Total:     1.3263

*** Psi4 exiting successfully. Buy a developer a beer!
