                               Psi4 1.4a3.dev225

  ==> Input File <==

--------------------------------------------------------------------------
#psi4
#
memory 32 gb

molecule  {
0 1
  F        0.8801740    -2.1570240    -0.2741980
  O        1.6462780     0.5481910    -0.4350190
  O       -0.2367630     2.4625430    -0.1451660
  C        0.3476580     0.1463710    -0.1857710
  C       -0.6195240     1.1555560    -0.0645140
  C       -0.0546815    -1.1664085    -0.1286119
  C       -1.9594950     0.8272070     0.1461580
  C       -1.3851280    -1.5362190     0.0940810
  C       -2.3313710    -0.5151580     0.2215980
  C        2.5704260     0.1676860     0.6054290
  H       -2.6878360     1.6271100     0.2387920
  H       -1.6577150    -2.5857400     0.1384780
  H       -3.3736110    -0.7729470     0.3882060
  H        2.6849170    -0.9163680     0.6377720
  H        2.2243420     0.5379400     1.5755890
  H        3.5186220     0.6362700     0.3424670
  H        0.7214210     2.4415090    -0.3472440
units angstrom
no_reorient  #important for SAPT in psi4, default
symmetry c1  #important for SAPT in psi4, default
}

set PROPERTIES_ORIGIN ["COM"]
properties('MP2/aug-cc-pvtz', properties = ['dipole'])
--------------------------------------------------------------------------

    Molecular point group: c1
  Charge       = 0
  Multiplicity = 1
  Basis Set: AUG-CC-PVTZ
    Blend: AUG-CC-PVTZ
  Basis Set: (AUG-CC-PVTZ AUX)
    Blend: AUG-CC-PVTZ-JKFIT

    Orbital Energies [Eh]
    ---------------------

    Doubly Occupied:

       1A    -26.315646     2A    -20.599221     3A    -20.596502
       4A    -11.338475     5A    -11.316336     6A    -11.302994
       7A    -11.291626     8A    -11.255216     9A    -11.245129
      10A    -11.239671    11A     -1.624978    12A     -1.427470
      13A     -1.395197    14A     -1.160294    15A     -1.033142
      16A     -1.020081    17A     -0.947857    18A     -0.855077
      19A     -0.848318    20A     -0.759609    21A     -0.745360
      22A     -0.710052    23A     -0.697206    24A     -0.675877
      25A     -0.653956    26A     -0.646750    27A     -0.634788
      28A     -0.621602    29A     -0.590519    30A     -0.573782
      31A     -0.554282    32A     -0.541837    33A     -0.519476
      34A     -0.491556    35A     -0.473900    36A     -0.346287
      37A     -0.324470

  @DF-RHF Final Energy:  -518.47860708260566

   => Energetics <=

    Nuclear Repulsion Energy =            529.1637187150281534
    One-Electron Energy =               -1760.5355699337151236
    Two-Electron Energy =                 712.8932441360813073
    Total Energy =                       -518.4786070826056630
  Basis Set: (AUG-CC-PVTZ AUX)
    Blend: AUG-CC-PVTZ-RI
    Molecular point group: c1

    Geometry (in Angstrom), charge = 0, multiplicity = 1:

       Center              X                  Y                   Z               Mass
    ------------   -----------------  -----------------  -----------------  -----------------
         F            0.883532718821    -2.136608933485    -0.251447338580    18.998403162730
         O            1.649636718821     0.568606066515    -0.412268338580    15.994914619570
         O           -0.233404281179     2.482958066515    -0.122415338580    15.994914619570
         C            0.351016718821     0.166786066515    -0.163020338580    12.000000000000
         C           -0.616165281179     1.175971066515    -0.041763338580    12.000000000000
         C           -0.051322781179    -1.145993433485    -0.105861238580    12.000000000000
         C           -1.956136281179     0.847622066515     0.168908661420    12.000000000000
         C           -1.381769281179    -1.515803933485     0.116831661420    12.000000000000
         C           -2.328012281179    -0.494742933485     0.244348661420    12.000000000000
         C            2.573784718821     0.188101066515     0.628179661420    12.000000000000
         H           -2.684477281179     1.647525066515     0.261542661420     1.007825032230
         H           -1.654356281179    -2.565324933485     0.161228661420     1.007825032230
         H           -3.370252281179    -0.752531933485     0.410956661420     1.007825032230
         H            2.688275718821    -0.895952933485     0.660522661420     1.007825032230
         H            2.227700718821     0.558355066515     1.598339661420     1.007825032230
         H            3.521980718821     0.656685066515     0.365217661420     1.007825032230
         H            0.724779718821     2.461924066515    -0.324493338580     1.007825032230

  Basis Set: AUG-CC-PVTZ
    Blend: AUG-CC-PVTZ
  Basis Set: (AUG-CC-PVTZ AUX)
    Blend: AUG-CC-PVTZ-JKFIT
	 Reference Energy          =    -518.4786070826056630 [Eh]
	 Singles Energy            =      -0.0000000000000000 [Eh]
	 Same-Spin Energy          =      -0.5088513170509349 [Eh]
	 Opposite-Spin Energy      =      -1.5384313969482299 [Eh]
	 Correlation Energy        =      -2.0472827139991647 [Eh]
	 Total Energy              =    -520.5258897966048153 [Eh]

	 ================> DF-SCS-MP2 Energies <==================
	-----------------------------------------------------------
	 SCS Same-Spin Scale       =       0.3333333333333333 [-]
	 SCS Opposite-Spin Scale   =       1.2000000000000000 [-]
	 SCS Same-Spin Energy      =      -0.1696171056836450 [Eh]
	 SCS Opposite-Spin Energy  =      -1.8461176763378759 [Eh]
	 SCS Correlation Energy    =      -2.0157347820215210 [Eh]
	 SCS Total Energy          =    -520.4943418646271311 [Eh]
	-----------------------------------------------------------

  Dipole Moment: [D]
     X:     0.6273      Y:    -0.1080      Z:     1.1751     Total:     1.3364

*** Psi4 exiting successfully. Buy a developer a beer!
