                               Psi4 1.4a3.dev225

  ==> Input File <==

--------------------------------------------------------------------------
#psi4
#
memory 32 gb

molecule  {
0 1
  F        0.8801740    -2.1570240    -0.2741980
  O        1.6462780     0.5481910    -0.4350190
  O       -0.2367630     2.4625430    -0.1451660
  C        0.3476580     0.1463710    -0.1857710
  C       -0.6195240     1.1555560    -0.0645140
  C       -0.1045326    -1.0470924    -0.1240663
  C       -1.9594950     0.8272070     0.1461580
  C       -1.3851280    -1.5362190     0.0940810
  C       -2.3313710    -0.5151580     0.2215980
  C        2.5704260     0.1676860     0.6054290
  H       -2.6878360     1.6271100     0.2387920
  H       -1.6577150    -2.5857400     0.1384780
  H       -3.3736110    -0.7729470     0.3882060
  H        2.6849170    -0.9163680     0.6377720
  H        2.2243420     0.5379400     1.5755890
  H        3.5186220     0.6362700     0.3424670
  H        0.7214210     2.4415090    -0.3472440
units angstrom
no_reorient  #important for SAPT in psi4, default
symmetry c1  #important for SAPT in psi4, default
}

set PROPERTIES_ORIGIN ["COM"]
properties('MP2/aug-cc-pvtz', properties = ['dipole'])
--------------------------------------------------------------------------

    Molecular point group: c1
  Charge       = 0
  Multiplicity = 1
  Basis Set: AUG-CC-PVTZ
    Blend: AUG-CC-PVTZ
  Basis Set: (AUG-CC-PVTZ AUX)
    Blend: AUG-CC-PVTZ-JKFIT

    Orbital Energies [Eh]
    ---------------------

    Doubly Occupied:

       1A    -26.281323     2A    -20.604939     3A    -20.601584
       4A    -11.331983     5A    -11.322712     6A    -11.300927
       7A    -11.292485     8A    -11.259218     9A    -11.249362
      10A    -11.242214    11A     -1.562518    12A     -1.432776
      13A     -1.399932    14A     -1.181870    15A     -1.051913
      16A     -1.022402    17A     -0.952784    18A     -0.863901
      19A     -0.841006    20A     -0.761735    21A     -0.728213
      22A     -0.697955    23A     -0.671986    24A     -0.661404
      25A     -0.648579    26A     -0.641815    27A     -0.623051
      28A     -0.622228    29A     -0.595177    30A     -0.574214
      31A     -0.563061    32A     -0.544392    33A     -0.520611
      34A     -0.504149    35A     -0.479889    36A     -0.365835
      37A     -0.327287

  @DF-RHF Final Energy:  -518.45160901346958

   => Energetics <=

    Nuclear Repulsion Energy =            530.1366115203596792
    One-Electron Energy =               -1762.5215832810872598
    Two-Electron Energy =                 713.9333627472581156
    Total Energy =                       -518.4516090134695787
  Basis Set: (AUG-CC-PVTZ AUX)
    Blend: AUG-CC-PVTZ-RI
    Molecular point group: c1

    Geometry (in Angstrom), charge = 0, multiplicity = 1:

       Center              X                  Y                   Z               Mass
    ------------   -----------------  -----------------  -----------------  -----------------
         F            0.887744212297    -2.146688931254    -0.251831357483    18.998403162730
         O            1.653848212297     0.558526068746    -0.412652357483    15.994914619570
         O           -0.229192787703     2.472878068746    -0.122799357483    15.994914619570
         C            0.355228212297     0.156706068746    -0.163404357483    12.000000000000
         C           -0.611953787703     1.165891068746    -0.042147357483    12.000000000000
         C           -0.096962387703    -1.036757331254    -0.101699657483    12.000000000000
         C           -1.951924787703     0.837542068746     0.168524642517    12.000000000000
         C           -1.377557787703    -1.525883931254     0.116447642517    12.000000000000
         C           -2.323800787703    -0.504822931254     0.243964642517    12.000000000000
         C            2.577996212297     0.178021068746     0.627795642517    12.000000000000
         H           -2.680265787703     1.637445068746     0.261158642517     1.007825032230
         H           -1.650144787703    -2.575404931254     0.160844642517     1.007825032230
         H           -3.366040787703    -0.762611931254     0.410572642517     1.007825032230
         H            2.692487212297    -0.906032931254     0.660138642517     1.007825032230
         H            2.231912212297     0.548275068746     1.597955642517     1.007825032230
         H            3.526192212297     0.646605068746     0.364833642517     1.007825032230
         H            0.728991212297     2.451844068746    -0.324877357483     1.007825032230

  Basis Set: AUG-CC-PVTZ
    Blend: AUG-CC-PVTZ
  Basis Set: (AUG-CC-PVTZ AUX)
    Blend: AUG-CC-PVTZ-JKFIT
	 Reference Energy          =    -518.4516090134695787 [Eh]
	 Singles Energy            =      -0.0000000000000000 [Eh]
	 Same-Spin Energy          =      -0.5092707035437497 [Eh]
	 Opposite-Spin Energy      =      -1.5410935594778823 [Eh]
	 Correlation Energy        =      -2.0503642630216321 [Eh]
	 Total Energy              =    -520.5019732764911851 [Eh]

	 ================> DF-SCS-MP2 Energies <==================
	-----------------------------------------------------------
	 SCS Same-Spin Scale       =       0.3333333333333333 [-]
	 SCS Opposite-Spin Scale   =       1.2000000000000000 [-]
	 SCS Same-Spin Energy      =      -0.1697569011812499 [Eh]
	 SCS Opposite-Spin Energy  =      -1.8493122713734587 [Eh]
	 SCS Correlation Energy    =      -2.0190691725547087 [Eh]
	 SCS Total Energy          =    -520.4706781860243154 [Eh]
	-----------------------------------------------------------

  Dipole Moment: [D]
     X:     0.2396      Y:     0.4232      Z:     1.2626     Total:     1.3530

*** Psi4 exiting successfully. Buy a developer a beer!
