                               Psi4 1.4a3.dev225

  ==> Input File <==

--------------------------------------------------------------------------
#psi4
#
memory 32 gb

molecule  {
0 1
  F        0.8801740    -2.1570240    -0.2741980
  O        1.6462780     0.5481910    -0.4350190
  O       -0.2367630     2.4625430    -0.1451660
  C        0.3476580     0.1463710    -0.1857710
  C       -0.6195240     1.1555560    -0.0645140
  C       -0.0605370    -1.1855140    -0.1277800
  C       -1.9594950     0.8272070     0.1461580
  C       -1.3851280    -1.5362190     0.0940810
  C       -2.3447002    -0.5632727     0.2243020
  C        2.5704260     0.1676860     0.6054290
  H       -2.6878360     1.6271100     0.2387920
  H       -1.6577150    -2.5857400     0.1384780
  H       -3.3736110    -0.7729470     0.3882060
  H        2.6849170    -0.9163680     0.6377720
  H        2.2243420     0.5379400     1.5755890
  H        3.5186220     0.6362700     0.3424670
  H        0.7214210     2.4415090    -0.3472440
units angstrom
no_reorient  #important for SAPT in psi4, default
symmetry c1  #important for SAPT in psi4, default
}

set PROPERTIES_ORIGIN ["COM"]
properties('MP2/aug-cc-pvtz', properties = ['dipole'])
--------------------------------------------------------------------------

    Molecular point group: c1
  Charge       = 0
  Multiplicity = 1
  Basis Set: AUG-CC-PVTZ
    Blend: AUG-CC-PVTZ
  Basis Set: (AUG-CC-PVTZ AUX)
    Blend: AUG-CC-PVTZ-JKFIT

    Orbital Energies [Eh]
    ---------------------

    Doubly Occupied:

       1A    -26.318846     2A    -20.599518     3A    -20.594958
       4A    -11.339517     5A    -11.314545     6A    -11.305391
       7A    -11.291852     8A    -11.255551     9A    -11.243224
      10A    -11.242975    11A     -1.630986    12A     -1.426806
      13A     -1.394419    14A     -1.157079    15A     -1.029825
      16A     -1.019796    17A     -0.948387    18A     -0.852126
      19A     -0.850748    20A     -0.759348    21A     -0.748908
      22A     -0.711664    23A     -0.700651    24A     -0.678221
      25A     -0.654263    26A     -0.645957    27A     -0.636358
      28A     -0.620813    29A     -0.589088    30A     -0.576161
      31A     -0.552773    32A     -0.538135    33A     -0.521601
      34A     -0.489944    35A     -0.472931    36A     -0.337906
      37A     -0.328788

  @DF-RHF Final Energy:  -518.47593738237288

   => Energetics <=

    Nuclear Repulsion Energy =            528.5021433508695736
    One-Electron Energy =               -1759.1960454393451982
    Two-Electron Energy =                 712.2179647061027481
    Total Energy =                       -518.4759373823728765
  Basis Set: (AUG-CC-PVTZ AUX)
    Blend: AUG-CC-PVTZ-RI
    Molecular point group: c1

    Geometry (in Angstrom), charge = 0, multiplicity = 1:

       Center              X                  Y                   Z               Mass
    ------------   -----------------  -----------------  -----------------  -----------------
         F            0.885153470196    -2.130930073163    -0.251746056558    18.998403162730
         O            1.651257470196     0.574284926837    -0.412567056558    15.994914619570
         O           -0.231783529804     2.488636926837    -0.122714056558    15.994914619570
         C            0.352637470196     0.172464926837    -0.163319056558    12.000000000000
         C           -0.614544529804     1.181649926837    -0.042062056558    12.000000000000
         C           -0.055557529804    -1.159420073163    -0.105328056558    12.000000000000
         C           -1.954515529804     0.853300926837     0.168609943442    12.000000000000
         C           -1.380148529804    -1.510125073163     0.116532943442    12.000000000000
         C           -2.339720729804    -0.537178773163     0.246753943442    12.000000000000
         C            2.575405470196     0.193779926837     0.627880943442    12.000000000000
         H           -2.682856529804     1.653203926837     0.261243943442     1.007825032230
         H           -1.652735529804    -2.559646073163     0.160929943442     1.007825032230
         H           -3.368631529804    -0.746853073163     0.410657943442     1.007825032230
         H            2.689896470196    -0.890274073163     0.660223943442     1.007825032230
         H            2.229321470196     0.564033926837     1.598040943442     1.007825032230
         H            3.523601470196     0.662363926837     0.364918943442     1.007825032230
         H            0.726400470196     2.467602926837    -0.324792056558     1.007825032230

  Basis Set: AUG-CC-PVTZ
    Blend: AUG-CC-PVTZ
  Basis Set: (AUG-CC-PVTZ AUX)
    Blend: AUG-CC-PVTZ-JKFIT
	 Reference Energy          =    -518.4759373823728765 [Eh]
	 Singles Energy            =      -0.0000000000000000 [Eh]
	 Same-Spin Energy          =      -0.5088678988318980 [Eh]
	 Opposite-Spin Energy      =      -1.5386357950167415 [Eh]
	 Correlation Energy        =      -2.0475036938486397 [Eh]
	 Total Energy              =    -520.5234410762215020 [Eh]

	 ================> DF-SCS-MP2 Energies <==================
	-----------------------------------------------------------
	 SCS Same-Spin Scale       =       0.3333333333333333 [-]
	 SCS Opposite-Spin Scale   =       1.2000000000000000 [-]
	 SCS Same-Spin Energy      =      -0.1696226329439660 [Eh]
	 SCS Opposite-Spin Energy  =      -1.8463629540200897 [Eh]
	 SCS Correlation Energy    =      -2.0159855869640557 [Eh]
	 SCS Total Energy          =    -520.4919229693368834 [Eh]
	-----------------------------------------------------------

  Dipole Moment: [D]
     X:     0.6608      Y:    -0.2028      Z:     1.1700     Total:     1.3589

*** Psi4 exiting successfully. Buy a developer a beer!
