                               Psi4 1.4a3.dev225

  ==> Input File <==

--------------------------------------------------------------------------
#psi4
#
memory 32 gb

molecule  {
0 1
  F        0.8801740    -2.1570240    -0.2741980
  O        1.6462780     0.5481910    -0.4350190
  O       -0.2367630     2.4625430    -0.1451660
  C        0.3476580     0.1463710    -0.1857710
  C       -0.6195240     1.1555560    -0.0645140
  C       -0.0605370    -1.1855140    -0.1277800
  C       -2.0075018     0.8154433     0.1537057
  C       -1.3851280    -1.5362190     0.0940810
  C       -2.3313710    -0.5151580     0.2215980
  C        2.5704260     0.1676860     0.6054290
  H       -2.6878360     1.6271100     0.2387920
  H       -1.6577150    -2.5857400     0.1384780
  H       -3.3736110    -0.7729470     0.3882060
  H        2.6849170    -0.9163680     0.6377720
  H        2.2243420     0.5379400     1.5755890
  H        3.5186220     0.6362700     0.3424670
  H        0.7214210     2.4415090    -0.3472440
units angstrom
no_reorient  #important for SAPT in psi4, default
symmetry c1  #important for SAPT in psi4, default
}

set PROPERTIES_ORIGIN ["COM"]
properties('MP2/aug-cc-pvtz', properties = ['dipole'])
--------------------------------------------------------------------------

    Molecular point group: c1
  Charge       = 0
  Multiplicity = 1
  Basis Set: AUG-CC-PVTZ
    Blend: AUG-CC-PVTZ
  Basis Set: (AUG-CC-PVTZ AUX)
    Blend: AUG-CC-PVTZ-JKFIT

    Orbital Energies [Eh]
    ---------------------

    Doubly Occupied:

       1A    -26.318658     2A    -20.598518     3A    -20.597848
       4A    -11.340457     5A    -11.321136     6A    -11.302565
       7A    -11.291137     8A    -11.252471     9A    -11.242685
      10A    -11.241558    11A     -1.630885    12A     -1.426880
      13A     -1.394940    14A     -1.157198    15A     -1.033256
      16A     -1.016495    17A     -0.946178    18A     -0.856544
      19A     -0.846916    20A     -0.759933    21A     -0.747317
      22A     -0.712934    23A     -0.700618    24A     -0.676432
      25A     -0.653617    26A     -0.648887    27A     -0.633467
      28A     -0.621261    29A     -0.589258    30A     -0.577994
      31A     -0.553893    32A     -0.541744    33A     -0.515048
      34A     -0.490950    35A     -0.473471    36A     -0.346758
      37A     -0.320444

  @DF-RHF Final Energy:  -518.47592074162344

   => Energetics <=

    Nuclear Repulsion Energy =            528.2610195993445359
    One-Electron Energy =               -1758.7131729927577908
    Two-Electron Energy =                 711.9762326517898146
    Total Energy =                       -518.4759207416234403
  Basis Set: (AUG-CC-PVTZ AUX)
    Blend: AUG-CC-PVTZ-RI
    Molecular point group: c1

    Geometry (in Angstrom), charge = 0, multiplicity = 1:

       Center              X                  Y                   Z               Mass
    ------------   -----------------  -----------------  -----------------  -----------------
         F            0.888083084311    -2.134001058545    -0.252155259383    18.998403162730
         O            1.654187084311     0.571213941455    -0.412976259383    15.994914619570
         O           -0.228853915689     2.485565941455    -0.123123259383    15.994914619570
         C            0.355567084311     0.169393941455    -0.163728259383    12.000000000000
         C           -0.611614915689     1.178578941455    -0.042471259383    12.000000000000
         C           -0.052627915689    -1.162491058545    -0.105737259383    12.000000000000
         C           -1.999592715689     0.838466241455     0.175748440617    12.000000000000
         C           -1.377218915689    -1.513196058545     0.116123740617    12.000000000000
         C           -2.323461915689    -0.492135058545     0.243640740617    12.000000000000
         C            2.578335084311     0.190708941455     0.627471740617    12.000000000000
         H           -2.679926915689     1.650132941455     0.260834740617     1.007825032230
         H           -1.649805915689    -2.562717058545     0.160520740617     1.007825032230
         H           -3.365701915689    -0.749924058545     0.410248740617     1.007825032230
         H            2.692826084311    -0.893345058545     0.659814740617     1.007825032230
         H            2.232251084311     0.560962941455     1.597631740617     1.007825032230
         H            3.526531084311     0.659292941455     0.364509740617     1.007825032230
         H            0.729330084311     2.464531941455    -0.325201259383     1.007825032230

  Basis Set: AUG-CC-PVTZ
    Blend: AUG-CC-PVTZ
  Basis Set: (AUG-CC-PVTZ AUX)
    Blend: AUG-CC-PVTZ-JKFIT
	 Reference Energy          =    -518.4759207416234403 [Eh]
	 Singles Energy            =      -0.0000000000000000 [Eh]
	 Same-Spin Energy          =      -0.5087840637146527 [Eh]
	 Opposite-Spin Energy      =      -1.5385291318559395 [Eh]
	 Correlation Energy        =      -2.0473131955705921 [Eh]
	 Total Energy              =    -520.5232339371940498 [Eh]

	 ================> DF-SCS-MP2 Energies <==================
	-----------------------------------------------------------
	 SCS Same-Spin Scale       =       0.3333333333333333 [-]
	 SCS Opposite-Spin Scale   =       1.2000000000000000 [-]
	 SCS Same-Spin Energy      =      -0.1695946879048842 [Eh]
	 SCS Opposite-Spin Energy  =      -1.8462349582271274 [Eh]
	 SCS Correlation Energy    =      -2.0158296461320115 [Eh]
	 SCS Total Energy          =    -520.4917503877554736 [Eh]
	-----------------------------------------------------------

  Dipole Moment: [D]
     X:     0.6612      Y:    -0.1013      Z:     1.1647     Total:     1.3431

*** Psi4 exiting successfully. Buy a developer a beer!
