                               Psi4 1.4a3.dev225

  ==> Input File <==

--------------------------------------------------------------------------
#psi4
#
memory 32 gb

molecule  {
0 1
  F        0.8801740    -2.1570240    -0.2741980
  O        1.6532787     0.5964299    -0.4223770
  O       -0.2367630     2.4625430    -0.1451660
  C        0.3476580     0.1463710    -0.1857710
  C       -0.6195240     1.1555560    -0.0645140
  C       -0.0605370    -1.1855140    -0.1277800
  C       -1.9594950     0.8272070     0.1461580
  C       -1.3851280    -1.5362190     0.0940810
  C       -2.3313710    -0.5151580     0.2215980
  C        2.5704260     0.1676860     0.6054290
  H       -2.6878360     1.6271100     0.2387920
  H       -1.6577150    -2.5857400     0.1384780
  H       -3.3736110    -0.7729470     0.3882060
  H        2.6849170    -0.9163680     0.6377720
  H        2.2243420     0.5379400     1.5755890
  H        3.5186220     0.6362700     0.3424670
  H        0.7214210     2.4415090    -0.3472440
units angstrom
no_reorient  #important for SAPT in psi4, default
symmetry c1  #important for SAPT in psi4, default
}

set PROPERTIES_ORIGIN ["COM"]
properties('MP2/aug-cc-pvtz', properties = ['dipole'])
--------------------------------------------------------------------------

    Molecular point group: c1
  Charge       = 0
  Multiplicity = 1
  Basis Set: AUG-CC-PVTZ
    Blend: AUG-CC-PVTZ
  Basis Set: (AUG-CC-PVTZ AUX)
    Blend: AUG-CC-PVTZ-JKFIT

    Orbital Energies [Eh]
    ---------------------

    Doubly Occupied:

       1A    -26.319069     2A    -20.600535     3A    -20.594795
       4A    -11.341628     5A    -11.315743     6A    -11.305154
       7A    -11.290526     8A    -11.255926     9A    -11.244804
      10A    -11.240053    11A     -1.631405    12A     -1.424308
      13A     -1.391050    14A     -1.159880    15A     -1.030126
      16A     -1.022197    17A     -0.945889    18A     -0.853708
      19A     -0.850090    20A     -0.759101    21A     -0.747488
      22A     -0.709959    23A     -0.700100    24A     -0.677567
      25A     -0.653694    26A     -0.646775    27A     -0.635402
      28A     -0.617326    29A     -0.589226    30A     -0.573715
      31A     -0.554651    32A     -0.540017    33A     -0.517618
      34A     -0.492695    35A     -0.474639    36A     -0.344773
      37A     -0.325626

  @DF-RHF Final Energy:  -518.47724776252778

   => Energetics <=

    Nuclear Repulsion Energy =            528.4872558490369556
    One-Electron Energy =               -1759.1744930935949469
    Two-Electron Energy =                 712.2099894820302097
    Total Energy =                       -518.4772477625277816
  Basis Set: (AUG-CC-PVTZ AUX)
    Blend: AUG-CC-PVTZ-RI
    Molecular point group: c1

    Geometry (in Angstrom), charge = 0, multiplicity = 1:

       Center              X                  Y                   Z               Mass
    ------------   -----------------  -----------------  -----------------  -----------------
         F            0.883239078187    -2.140426869305    -0.252941185508    18.998403162730
         O            1.656343778187     0.613027030695    -0.401120185508    15.994914619570
         O           -0.233697921813     2.479140130695    -0.123909185508    15.994914619570
         C            0.350723078187     0.162968130695    -0.164514185508    12.000000000000
         C           -0.616458921813     1.172153130695    -0.043257185508    12.000000000000
         C           -0.057471921813    -1.168916869305    -0.106523185508    12.000000000000
         C           -1.956429921813     0.843804130695     0.167414814492    12.000000000000
         C           -1.382062921813    -1.519621869305     0.115337814492    12.000000000000
         C           -2.328305921813    -0.498560869305     0.242854814492    12.000000000000
         C            2.573491078187     0.184283130695     0.626685814492    12.000000000000
         H           -2.684770921813     1.643707130695     0.260048814492     1.007825032230
         H           -1.654649921813    -2.569142869305     0.159734814492     1.007825032230
         H           -3.370545921813    -0.756349869305     0.409462814492     1.007825032230
         H            2.687982078187    -0.899770869305     0.659028814492     1.007825032230
         H            2.227407078187     0.554537130695     1.596845814492     1.007825032230
         H            3.521687078187     0.652867130695     0.363723814492     1.007825032230
         H            0.724486078187     2.458106130695    -0.325987185508     1.007825032230

  Basis Set: AUG-CC-PVTZ
    Blend: AUG-CC-PVTZ
  Basis Set: (AUG-CC-PVTZ AUX)
    Blend: AUG-CC-PVTZ-JKFIT
	 Reference Energy          =    -518.4772477625277816 [Eh]
	 Singles Energy            =      -0.0000000000000000 [Eh]
	 Same-Spin Energy          =      -0.5090987856932503 [Eh]
	 Opposite-Spin Energy      =      -1.5390095215077142 [Eh]
	 Correlation Energy        =      -2.0481083072009643 [Eh]
	 Total Energy              =    -520.5253560697287867 [Eh]

	 ================> DF-SCS-MP2 Energies <==================
	-----------------------------------------------------------
	 SCS Same-Spin Scale       =       0.3333333333333333 [-]
	 SCS Opposite-Spin Scale   =       1.2000000000000000 [-]
	 SCS Same-Spin Energy      =      -0.1696995952310834 [Eh]
	 SCS Opposite-Spin Energy  =      -1.8468114258092569 [Eh]
	 SCS Correlation Energy    =      -2.0165110210403405 [Eh]
	 SCS Total Energy          =    -520.4937587835680688 [Eh]
	-----------------------------------------------------------

  Dipole Moment: [D]
     X:     0.5967      Y:    -0.2520      Z:     1.1491     Total:     1.3190

*** Psi4 exiting successfully. Buy a developer a beer!
