                               Psi4 1.4a3.dev225

  ==> Input File <==

--------------------------------------------------------------------------
#psi4
#
memory 32 gb

molecule  {
0 1
  F        0.8801740    -2.1570240    -0.2741980
  O        1.6462780     0.5481910    -0.4350190
  O       -0.2367630     2.4625430    -0.1451660
  C        0.3476580     0.1463710    -0.1857710
  C       -0.6195240     1.1555560    -0.0645140
  C       -0.0605370    -1.1855140    -0.1277800
  C       -1.9594950     0.8272070     0.1461580
  C       -1.3851280    -1.5362190     0.0940810
  C       -2.3580295    -0.6113873     0.2270060
  C        2.5704260     0.1676860     0.6054290
  H       -2.6878360     1.6271100     0.2387920
  H       -1.6577150    -2.5857400     0.1384780
  H       -3.3736110    -0.7729470     0.3882060
  H        2.6849170    -0.9163680     0.6377720
  H        2.2243420     0.5379400     1.5755890
  H        3.5186220     0.6362700     0.3424670
  H        0.7214210     2.4415090    -0.3472440
units angstrom
no_reorient  #important for SAPT in psi4, default
symmetry c1  #important for SAPT in psi4, default
}

set PROPERTIES_ORIGIN ["COM"]
properties('MP2/aug-cc-pvtz', properties = ['dipole'])
--------------------------------------------------------------------------

    Molecular point group: c1
  Charge       = 0
  Multiplicity = 1
  Basis Set: AUG-CC-PVTZ
    Blend: AUG-CC-PVTZ
  Basis Set: (AUG-CC-PVTZ AUX)
    Blend: AUG-CC-PVTZ-JKFIT

    Orbital Energies [Eh]
    ---------------------

    Doubly Occupied:

       1A    -26.319350     2A    -20.600181     3A    -20.594226
       4A    -11.339621     5A    -11.313704     6A    -11.307065
       7A    -11.292328     8A    -11.255772     9A    -11.245903
      10A    -11.242100    11A     -1.631357    12A     -1.426974
      13A     -1.394325    14A     -1.155859    15A     -1.033058
      16A     -1.015054    17A     -0.949760    18A     -0.854154
      19A     -0.848349    20A     -0.759083    21A     -0.750329
      22A     -0.711981    23A     -0.701050    24A     -0.680451
      25A     -0.654928    26A     -0.645945    27A     -0.637243
      28A     -0.620540    29A     -0.588447    30A     -0.581611
      31A     -0.552415    32A     -0.532100    33A     -0.519969
      34A     -0.489376    35A     -0.472694    36A     -0.336536
      37A     -0.329064

  @DF-RHF Final Energy:  -518.46735879761991

   => Energetics <=

    Nuclear Repulsion Energy =            528.0350769159235824
    One-Electron Energy =               -1758.2390672257606639
    Two-Electron Energy =                 711.7366315122171727
    Total Energy =                       -518.4673587976199087
  Basis Set: (AUG-CC-PVTZ AUX)
    Blend: AUG-CC-PVTZ-RI
    Molecular point group: c1

    Geometry (in Angstrom), charge = 0, multiplicity = 1:

       Center              X                  Y                   Z               Mass
    ------------   -----------------  -----------------  -----------------  -----------------
         F            0.886279548858    -2.126865281734    -0.251974494413    18.998403162730
         O            1.652383548858     0.578349718266    -0.412795494413    15.994914619570
         O           -0.230657451142     2.492701718266    -0.122942494413    15.994914619570
         C            0.353763548858     0.176529718266    -0.163547494413    12.000000000000
         C           -0.613418451142     1.185714718266    -0.042290494413    12.000000000000
         C           -0.054431451142    -1.155355281734    -0.105556494413    12.000000000000
         C           -1.953389451142     0.857365718266     0.168381505587    12.000000000000
         C           -1.379022451142    -1.506060281734     0.116304505587    12.000000000000
         C           -2.351923951142    -0.581228581734     0.249229505587    12.000000000000
         C            2.576531548858     0.197844718266     0.627652505587    12.000000000000
         H           -2.681730451142     1.657268718266     0.261015505587     1.007825032230
         H           -1.651609451142    -2.555581281734     0.160701505587     1.007825032230
         H           -3.367505451142    -0.742788281734     0.410429505587     1.007825032230
         H            2.691022548858    -0.886209281734     0.659995505587     1.007825032230
         H            2.230447548858     0.568098718266     1.597812505587     1.007825032230
         H            3.524727548858     0.666428718266     0.364690505587     1.007825032230
         H            0.727526548858     2.471667718266    -0.325020494413     1.007825032230

  Basis Set: AUG-CC-PVTZ
    Blend: AUG-CC-PVTZ
  Basis Set: (AUG-CC-PVTZ AUX)
    Blend: AUG-CC-PVTZ-JKFIT
	 Reference Energy          =    -518.4673587976199087 [Eh]
	 Singles Energy            =      -0.0000000000000000 [Eh]
	 Same-Spin Energy          =      -0.5087820428111194 [Eh]
	 Opposite-Spin Energy      =      -1.5392180681946288 [Eh]
	 Correlation Energy        =      -2.0480001110057482 [Eh]
	 Total Energy              =    -520.5153589086256716 [Eh]

	 ================> DF-SCS-MP2 Energies <==================
	-----------------------------------------------------------
	 SCS Same-Spin Scale       =       0.3333333333333333 [-]
	 SCS Opposite-Spin Scale   =       1.2000000000000000 [-]
	 SCS Same-Spin Energy      =      -0.1695940142703731 [Eh]
	 SCS Opposite-Spin Energy  =      -1.8470616818335546 [Eh]
	 SCS Correlation Energy    =      -2.0166556961039275 [Eh]
	 SCS Total Energy          =    -520.4840144937238620 [Eh]
	-----------------------------------------------------------

  Dipole Moment: [D]
     X:     0.6723      Y:    -0.2406      Z:     1.1710     Total:     1.3715

*** Psi4 exiting successfully. Buy a developer a beer!
