                               Psi4 1.4a3.dev225

  ==> Input File <==

--------------------------------------------------------------------------
#psi4
#
memory 32 gb

molecule  {
0 1
  F        0.8801740    -2.1570240    -0.2741980
  O        1.6462780     0.5481910    -0.4350190
  O       -0.2367630     2.4625430    -0.1451660
  C        0.3476580     0.1463710    -0.1857710
  C       -0.6195240     1.1555560    -0.0645140
  C       -0.0605370    -1.1855140    -0.1277800
  C       -1.9594950     0.8272070     0.1461580
  C       -1.3851280    -1.5362190     0.0940810
  C       -2.3313710    -0.5151580     0.2215980
  C        2.5704260     0.1676860     0.6054290
  H       -2.5536754     1.4797676     0.2217288
  H       -1.6577150    -2.5857400     0.1384780
  H       -3.3736110    -0.7729470     0.3882060
  H        2.6849170    -0.9163680     0.6377720
  H        2.2243420     0.5379400     1.5755890
  H        3.5186220     0.6362700     0.3424670
  H        0.7214210     2.4415090    -0.3472440
units angstrom
no_reorient  #important for SAPT in psi4, default
symmetry c1  #important for SAPT in psi4, default
}

set PROPERTIES_ORIGIN ["COM"]
properties('MP2/aug-cc-pvtz', properties = ['dipole'])
--------------------------------------------------------------------------

    Molecular point group: c1
  Charge       = 0
  Multiplicity = 1
  Basis Set: AUG-CC-PVTZ
    Blend: AUG-CC-PVTZ
  Basis Set: (AUG-CC-PVTZ AUX)
    Blend: AUG-CC-PVTZ-JKFIT

    Orbital Energies [Eh]
    ---------------------

    Doubly Occupied:

       1A    -26.318136     2A    -20.598434     3A    -20.595965
       4A    -11.339264     5A    -11.314368     6A    -11.302810
       7A    -11.291148     8A    -11.254269     9A    -11.243104
      10A    -11.216727    11A     -1.630405    12A     -1.426567
      13A     -1.394510    14A     -1.160003    15A     -1.038093
      16A     -1.023573    17A     -0.946697    18A     -0.865614
      19A     -0.851678    20A     -0.760514    21A     -0.747323
      22A     -0.728736    23A     -0.701501    24A     -0.677477
      25A     -0.663812    26A     -0.652446    27A     -0.634647
      28A     -0.621001    29A     -0.589914    30A     -0.579514
      31A     -0.553146    32A     -0.548873    33A     -0.521107
      34A     -0.490298    35A     -0.473265    36A     -0.343292
      37A     -0.324620

  @DF-RHF Final Energy:  -518.44403759530007

   => Energetics <=

    Nuclear Repulsion Energy =            530.2111206253738374
    One-Electron Energy =               -1762.4646127475832600
    Two-Electron Energy =                 713.8094545269094624
    Total Energy =                       -518.4440375953000739
  Basis Set: (AUG-CC-PVTZ AUX)
    Blend: AUG-CC-PVTZ-RI
    Molecular point group: c1

    Geometry (in Angstrom), charge = 0, multiplicity = 1:

       Center              X                  Y                   Z               Mass
    ------------   -----------------  -----------------  -----------------  -----------------
         F            0.883075502291    -2.133949447704    -0.251396551708    18.998403162730
         O            1.649179502291     0.571265552296    -0.412217551708    15.994914619570
         O           -0.233861497709     2.485617552296    -0.122364551708    15.994914619570
         C            0.350559502291     0.169445552296    -0.162969551708    12.000000000000
         C           -0.616622497709     1.178630552296    -0.041712551708    12.000000000000
         C           -0.057635497709    -1.162439447704    -0.104978551708    12.000000000000
         C           -1.956593497709     0.850281552296     0.168959448292    12.000000000000
         C           -1.382226497709    -1.513144447704     0.116882448292    12.000000000000
         C           -2.328469497709    -0.492083447704     0.244399448292    12.000000000000
         C            2.573327502291     0.190760552296     0.628230448292    12.000000000000
         H           -2.550773897709     1.502842152296     0.244530248292     1.007825032230
         H           -1.654813497709    -2.562665447704     0.161279448292     1.007825032230
         H           -3.370709497709    -0.749872447704     0.411007448292     1.007825032230
         H            2.687818502291    -0.893293447704     0.660573448292     1.007825032230
         H            2.227243502291     0.561014552296     1.598390448292     1.007825032230
         H            3.521523502291     0.659344552296     0.365268448292     1.007825032230
         H            0.724322502291     2.464583552296    -0.324442551708     1.007825032230

  Basis Set: AUG-CC-PVTZ
    Blend: AUG-CC-PVTZ
  Basis Set: (AUG-CC-PVTZ AUX)
    Blend: AUG-CC-PVTZ-JKFIT
	 Reference Energy          =    -518.4440375953000739 [Eh]
	 Singles Energy            =      -0.0000000000000000 [Eh]
	 Same-Spin Energy          =      -0.5086839126715990 [Eh]
	 Opposite-Spin Energy      =      -1.5379801126529475 [Eh]
	 Correlation Energy        =      -2.0466640253245467 [Eh]
	 Total Energy              =    -520.4907016206245771 [Eh]

	 ================> DF-SCS-MP2 Energies <==================
	-----------------------------------------------------------
	 SCS Same-Spin Scale       =       0.3333333333333333 [-]
	 SCS Opposite-Spin Scale   =       1.2000000000000000 [-]
	 SCS Same-Spin Energy      =      -0.1695613042238663 [Eh]
	 SCS Opposite-Spin Energy  =      -1.8455761351835369 [Eh]
	 SCS Correlation Energy    =      -2.0151374394074031 [Eh]
	 SCS Total Energy          =    -520.4591750347075276 [Eh]
	-----------------------------------------------------------

  Dipole Moment: [D]
     X:     0.6504      Y:    -0.1675      Z:     1.1674     Total:     1.3468

*** Psi4 exiting successfully. Buy a developer a beer!
