                               Psi4 1.4a3.dev225

  ==> Input File <==

--------------------------------------------------------------------------
#psi4
#
memory 32 gb

molecule  {
0 1
  F        0.8801740    -2.1570240    -0.2741980
  O        1.6462780     0.5481910    -0.4350190
  O       -0.2367630     2.4625430    -0.1451660
  C        0.3476580     0.1463710    -0.1857710
  C       -0.6195240     1.1555560    -0.0645140
  C       -0.0605370    -1.1855140    -0.1277800
  C       -1.9133619     0.8131651     0.1394220
  C       -1.3851280    -1.5362190     0.0940810
  C       -2.3313710    -0.5151580     0.2215980
  C        2.5704260     0.1676860     0.6054290
  H       -2.6878360     1.6271100     0.2387920
  H       -1.6577150    -2.5857400     0.1384780
  H       -3.3736110    -0.7729470     0.3882060
  H        2.6849170    -0.9163680     0.6377720
  H        2.2243420     0.5379400     1.5755890
  H        3.5186220     0.6362700     0.3424670
  H        0.7214210     2.4415090    -0.3472440
units angstrom
no_reorient  #important for SAPT in psi4, default
symmetry c1  #important for SAPT in psi4, default
}

set PROPERTIES_ORIGIN ["COM"]
properties('MP2/aug-cc-pvtz', properties = ['dipole'])
--------------------------------------------------------------------------

    Molecular point group: c1
  Charge       = 0
  Multiplicity = 1
  Basis Set: AUG-CC-PVTZ
    Blend: AUG-CC-PVTZ
  Basis Set: (AUG-CC-PVTZ AUX)
    Blend: AUG-CC-PVTZ-JKFIT

    Orbital Energies [Eh]
    ---------------------

    Doubly Occupied:

       1A    -26.317658     2A    -20.598979     3A    -20.594780
       4A    -11.337979     5A    -11.309956     6A    -11.304484
       7A    -11.291528     8A    -11.255138     9A    -11.244762
      10A    -11.238257    11A     -1.629993    12A     -1.426628
      13A     -1.394273    14A     -1.163156    15A     -1.029190
      16A     -1.026586    17A     -0.948031    18A     -0.854415
      19A     -0.848712    20A     -0.759815    21A     -0.747748
      22A     -0.708920    23A     -0.699331    24A     -0.678921
      25A     -0.653762    26A     -0.642220    27A     -0.637707
      28A     -0.621612    29A     -0.591103    30A     -0.571173
      31A     -0.558022    32A     -0.533902    33A     -0.519912
      34A     -0.491641    35A     -0.472714    36A     -0.343679
      37A     -0.328251

  @DF-RHF Final Energy:  -518.47641382641746

   => Energetics <=

    Nuclear Repulsion Energy =            529.9845039275869567
    One-Electron Energy =               -1762.1719629254894244
    Two-Electron Energy =                 713.7110451714850115
    Total Energy =                       -518.4764138264174562
  Basis Set: (AUG-CC-PVTZ AUX)
    Blend: AUG-CC-PVTZ-RI
    Molecular point group: c1

    Geometry (in Angstrom), charge = 0, multiplicity = 1:

       Center              X                  Y                   Z               Mass
    ------------   -----------------  -----------------  -----------------  -----------------
         F            0.880130008556    -2.133808592893    -0.250948551620    18.998403162730
         O            1.646234008556     0.571406407107    -0.411769551620    15.994914619570
         O           -0.236806991444     2.485758407107    -0.121916551620    15.994914619570
         C            0.347614008556     0.169586407107    -0.162521551620    12.000000000000
         C           -0.619567991444     1.178771407107    -0.041264551620    12.000000000000
         C           -0.060580991444    -1.162298592893    -0.104530551620    12.000000000000
         C           -1.913405891444     0.836380507107     0.162671448380    12.000000000000
         C           -1.385171991444    -1.513003592893     0.117330448380    12.000000000000
         C           -2.331414991444    -0.491942592893     0.244847448380    12.000000000000
         C            2.570382008556     0.190901407107     0.628678448380    12.000000000000
         H           -2.687879991444     1.650325407107     0.262041448380     1.007825032230
         H           -1.657758991444    -2.562524592893     0.161727448380     1.007825032230
         H           -3.373654991444    -0.749731592893     0.411455448380     1.007825032230
         H            2.684873008556    -0.893152592893     0.661021448380     1.007825032230
         H            2.224298008556     0.561155407107     1.598838448380     1.007825032230
         H            3.518578008556     0.659485407107     0.365716448380     1.007825032230
         H            0.721377008556     2.464724407107    -0.323994551620     1.007825032230

  Basis Set: AUG-CC-PVTZ
    Blend: AUG-CC-PVTZ
  Basis Set: (AUG-CC-PVTZ AUX)
    Blend: AUG-CC-PVTZ-JKFIT
	 Reference Energy          =    -518.4764138264174562 [Eh]
	 Singles Energy            =      -0.0000000000000000 [Eh]
	 Same-Spin Energy          =      -0.5090493953793624 [Eh]
	 Opposite-Spin Energy      =      -1.5383651504321492 [Eh]
	 Correlation Energy        =      -2.0474145458115114 [Eh]
	 Total Energy              =    -520.5238283722289907 [Eh]

	 ================> DF-SCS-MP2 Energies <==================
	-----------------------------------------------------------
	 SCS Same-Spin Scale       =       0.3333333333333333 [-]
	 SCS Opposite-Spin Scale   =       1.2000000000000000 [-]
	 SCS Same-Spin Energy      =      -0.1696831317931208 [Eh]
	 SCS Opposite-Spin Energy  =      -1.8460381805185788 [Eh]
	 SCS Correlation Energy    =      -2.0157213123116997 [Eh]
	 SCS Total Energy          =    -520.4921351387291679 [Eh]
	-----------------------------------------------------------

  Dipole Moment: [D]
     X:     0.6330      Y:    -0.2209      Z:     1.1720     Total:     1.3502

*** Psi4 exiting successfully. Buy a developer a beer!
