                               Psi4 1.4a3.dev225

  ==> Input File <==

--------------------------------------------------------------------------
#psi4
#
memory 32 gb

molecule  {
0 1
  F        0.8801740    -2.1570240    -0.2741980
  O        1.6462780     0.5481910    -0.4350190
  O       -0.2367630     2.4625430    -0.1451660
  C        0.3476580     0.1463710    -0.1857710
  C       -0.6195240     1.1555560    -0.0645140
  C       -0.0605370    -1.1855140    -0.1277800
  C       -1.9594950     0.8272070     0.1461580
  C       -1.3851280    -1.5362190     0.0940810
  C       -2.3313710    -0.5151580     0.2215980
  C        2.5704260     0.1676860     0.6054290
  H       -2.6878360     1.6271100     0.2387920
  H       -1.6451563    -2.5373861     0.1364325
  H       -3.3736110    -0.7729470     0.3882060
  H        2.6849170    -0.9163680     0.6377720
  H        2.2243420     0.5379400     1.5755890
  H        3.5186220     0.6362700     0.3424670
  H        0.7214210     2.4415090    -0.3472440
units angstrom
no_reorient  #important for SAPT in psi4, default
symmetry c1  #important for SAPT in psi4, default
}

set PROPERTIES_ORIGIN ["COM"]
properties('MP2/aug-cc-pvtz', properties = ['dipole'])
--------------------------------------------------------------------------

    Molecular point group: c1
  Charge       = 0
  Multiplicity = 1
  Basis Set: AUG-CC-PVTZ
    Blend: AUG-CC-PVTZ
  Basis Set: (AUG-CC-PVTZ AUX)
    Blend: AUG-CC-PVTZ-JKFIT

    Orbital Energies [Eh]
    ---------------------

    Doubly Occupied:

       1A    -26.318370     2A    -20.598734     3A    -20.595665
       4A    -11.339026     5A    -11.315324     6A    -11.303490
       7A    -11.291325     8A    -11.254817     9A    -11.239601
      10A    -11.238271    11A     -1.630660    12A     -1.426584
      13A     -1.394414    14A     -1.159156    15A     -1.029955
      16A     -1.023497    17A     -0.947102    18A     -0.856175
      19A     -0.849606    20A     -0.759885    21A     -0.747539
      22A     -0.712749    23A     -0.700601    24A     -0.680680
      25A     -0.653767    26A     -0.647530    27A     -0.636695
      28A     -0.621121    29A     -0.589808    30A     -0.574868
      31A     -0.555508    32A     -0.541874    33A     -0.519802
      34A     -0.490571    35A     -0.473168    36A     -0.343266
      37A     -0.325062

  @DF-RHF Final Energy:  -518.47835556301175

   => Energetics <=

    Nuclear Repulsion Energy =            529.2721035395645686
    One-Electron Energy =               -1760.7283882644346704
    Two-Electron Energy =                 712.9779291618583557
    Total Energy =                       -518.4783555630117462
  Basis Set: (AUG-CC-PVTZ AUX)
    Blend: AUG-CC-PVTZ-RI
    Molecular point group: c1

    Geometry (in Angstrom), charge = 0, multiplicity = 1:

       Center              X                  Y                   Z               Mass
    ------------   -----------------  -----------------  -----------------  -----------------
         F            0.883938293363    -2.135337954137    -0.251503105450    18.998403162730
         O            1.650042293363     0.569877045863    -0.412324105450    15.994914619570
         O           -0.232998706637     2.484229045863    -0.122471105450    15.994914619570
         C            0.351422293363     0.168057045863    -0.163076105450    12.000000000000
         C           -0.615759706637     1.177242045863    -0.041819105450    12.000000000000
         C           -0.056772706637    -1.163827954137    -0.105085105450    12.000000000000
         C           -1.955730706637     0.848893045863     0.168852894550    12.000000000000
         C           -1.381363706637    -1.514532954137     0.116775894550    12.000000000000
         C           -2.327606706637    -0.493471954137     0.244292894550    12.000000000000
         C            2.574190293363     0.189372045863     0.628123894550    12.000000000000
         H           -2.684071706637     1.648796045863     0.261486894550     1.007825032230
         H           -1.641392006637    -2.515700054137     0.159127394550     1.007825032230
         H           -3.369846706637    -0.751260954137     0.410900894550     1.007825032230
         H            2.688681293363    -0.894681954137     0.660466894550     1.007825032230
         H            2.228106293363     0.559626045863     1.598283894550     1.007825032230
         H            3.522386293363     0.657956045863     0.365161894550     1.007825032230
         H            0.725185293363     2.463195045863    -0.324549105450     1.007825032230

  Basis Set: AUG-CC-PVTZ
    Blend: AUG-CC-PVTZ
  Basis Set: (AUG-CC-PVTZ AUX)
    Blend: AUG-CC-PVTZ-JKFIT
	 Reference Energy          =    -518.4783555630117462 [Eh]
	 Singles Energy            =      -0.0000000000000000 [Eh]
	 Same-Spin Energy          =      -0.5088119226424169 [Eh]
	 Opposite-Spin Energy      =      -1.5380897211325137 [Eh]
	 Correlation Energy        =      -2.0469016437749308 [Eh]
	 Total Energy              =    -520.5252572067867050 [Eh]

	 ================> DF-SCS-MP2 Energies <==================
	-----------------------------------------------------------
	 SCS Same-Spin Scale       =       0.3333333333333333 [-]
	 SCS Opposite-Spin Scale   =       1.2000000000000000 [-]
	 SCS Same-Spin Energy      =      -0.1696039742141390 [Eh]
	 SCS Opposite-Spin Energy  =      -1.8457076653590163 [Eh]
	 SCS Correlation Energy    =      -2.0153116395731554 [Eh]
	 SCS Total Energy          =    -520.4936672025849020 [Eh]
	-----------------------------------------------------------

  Dipole Moment: [D]
     X:     0.6492      Y:    -0.1676      Z:     1.1687     Total:     1.3473

*** Psi4 exiting successfully. Buy a developer a beer!
