                               Psi4 1.4a3.dev225

  ==> Input File <==

--------------------------------------------------------------------------
#psi4
#
memory 32 gb

molecule  {
0 1
  F        0.8801740    -2.1570240    -0.2741980
  O        1.6159062     0.6394390    -0.4274903
  O       -0.2367630     2.4625430    -0.1451660
  C        0.3476580     0.1463710    -0.1857710
  C       -0.6195240     1.1555560    -0.0645140
  C       -0.0605370    -1.1855140    -0.1277800
  C       -1.9594950     0.8272070     0.1461580
  C       -1.3851280    -1.5362190     0.0940810
  C       -2.3313710    -0.5151580     0.2215980
  C        2.5704260     0.1676860     0.6054290
  H       -2.6878360     1.6271100     0.2387920
  H       -1.6577150    -2.5857400     0.1384780
  H       -3.3736110    -0.7729470     0.3882060
  H        2.6849170    -0.9163680     0.6377720
  H        2.2243420     0.5379400     1.5755890
  H        3.5186220     0.6362700     0.3424670
  H        0.7214210     2.4415090    -0.3472440
units angstrom
no_reorient  #important for SAPT in psi4, default
symmetry c1  #important for SAPT in psi4, default
}

set PROPERTIES_ORIGIN ["COM"]
properties('MP2/aug-cc-pvtz', properties = ['dipole'])
--------------------------------------------------------------------------

    Molecular point group: c1
  Charge       = 0
  Multiplicity = 1
  Basis Set: AUG-CC-PVTZ
    Blend: AUG-CC-PVTZ
  Basis Set: (AUG-CC-PVTZ AUX)
    Blend: AUG-CC-PVTZ-JKFIT

    Orbital Energies [Eh]
    ---------------------

    Doubly Occupied:

       1A    -26.318332     2A    -20.602538     3A    -20.591963
       4A    -11.340019     5A    -11.311964     6A    -11.302990
       7A    -11.296991     8A    -11.253624     9A    -11.243624
      10A    -11.237991    11A     -1.630840    12A     -1.424474
      13A     -1.387115    14A     -1.157467    15A     -1.027035
      16A     -1.020281    17A     -0.950090    18A     -0.852277
      19A     -0.848805    20A     -0.757911    21A     -0.746826
      22A     -0.708691    23A     -0.699594    24A     -0.676498
      25A     -0.653212    26A     -0.645639    27A     -0.633943
      28A     -0.611018    29A     -0.586491    30A     -0.571731
      31A     -0.556612    32A     -0.540007    33A     -0.520670
      34A     -0.494031    35A     -0.477172    36A     -0.342259
      37A     -0.322568

  @DF-RHF Final Energy:  -518.47402396175630

   => Energetics <=

    Nuclear Repulsion Energy =            528.6435987369839040
    One-Electron Energy =               -1759.5486577169426710
    Two-Electron Energy =                 712.4310350182024649
    Total Energy =                       -518.4740239617563020
  Basis Set: (AUG-CC-PVTZ AUX)
    Blend: AUG-CC-PVTZ-RI
    Molecular point group: c1

    Geometry (in Angstrom), charge = 0, multiplicity = 1:

       Center              X                  Y                   Z               Mass
    ------------   -----------------  -----------------  -----------------  -----------------
         F            0.887447451106    -2.145269957986    -0.252365396539    18.998403162730
         O            1.623179651106     0.651193042014    -0.405657696539    15.994914619570
         O           -0.229489548894     2.474297042014    -0.123333396539    15.994914619570
         C            0.354931451106     0.158125042014    -0.163938396539    12.000000000000
         C           -0.612250548894     1.167310042014    -0.042681396539    12.000000000000
         C           -0.053263548894    -1.173759957986    -0.105947396539    12.000000000000
         C           -1.952221548894     0.838961042014     0.167990603461    12.000000000000
         C           -1.377854548894    -1.524464957986     0.115913603461    12.000000000000
         C           -2.324097548894    -0.503403957986     0.243430603461    12.000000000000
         C            2.577699451106     0.179440042014     0.627261603461    12.000000000000
         H           -2.680562548894     1.638864042014     0.260624603461     1.007825032230
         H           -1.650441548894    -2.573985957986     0.160310603461     1.007825032230
         H           -3.366337548894    -0.761192957986     0.410038603461     1.007825032230
         H            2.692190451106    -0.904613957986     0.659604603461     1.007825032230
         H            2.231615451106     0.549694042014     1.597421603461     1.007825032230
         H            3.525895451106     0.648024042014     0.364299603461     1.007825032230
         H            0.728694451106     2.453263042014    -0.325411396539     1.007825032230

  Basis Set: AUG-CC-PVTZ
    Blend: AUG-CC-PVTZ
  Basis Set: (AUG-CC-PVTZ AUX)
    Blend: AUG-CC-PVTZ-JKFIT
	 Reference Energy          =    -518.4740239617563020 [Eh]
	 Singles Energy            =      -0.0000000000000000 [Eh]
	 Same-Spin Energy          =      -0.5095736032839702 [Eh]
	 Opposite-Spin Energy      =      -1.5399366748769214 [Eh]
	 Correlation Energy        =      -2.0495102781608914 [Eh]
	 Total Energy              =    -520.5235342399172396 [Eh]

	 ================> DF-SCS-MP2 Energies <==================
	-----------------------------------------------------------
	 SCS Same-Spin Scale       =       0.3333333333333333 [-]
	 SCS Opposite-Spin Scale   =       1.2000000000000000 [-]
	 SCS Same-Spin Energy      =      -0.1698578677613234 [Eh]
	 SCS Opposite-Spin Energy  =      -1.8479240098523055 [Eh]
	 SCS Correlation Energy    =      -2.0177818776136287 [Eh]
	 SCS Total Energy          =    -520.4918058393699312 [Eh]
	-----------------------------------------------------------

  Dipole Moment: [D]
     X:     0.8604      Y:    -0.3146      Z:     1.1982     Total:     1.5083

*** Psi4 exiting successfully. Buy a developer a beer!
