                               Psi4 1.4a3.dev225

  ==> Input File <==

--------------------------------------------------------------------------
#psi4
#
memory 32 gb

molecule  {
0 1
  F        0.8801740    -2.1570240    -0.2741980
  O        1.6462780     0.5481910    -0.4350190
  O       -0.2367630     2.4625430    -0.1451660
  C        0.3476580     0.1463710    -0.1857710
  C       -0.6195240     1.1555560    -0.0645140
  C       -0.0605370    -1.1855140    -0.1277800
  C       -1.9594950     0.8272070     0.1461580
  C       -1.3851280    -1.5362190     0.0940810
  C       -2.3313710    -0.5151580     0.2215980
  C        2.5704260     0.1676860     0.6054290
  H       -2.6878360     1.6271100     0.2387920
  H       -1.6627385    -2.6050815     0.1392962
  H       -3.3736110    -0.7729470     0.3882060
  H        2.6849170    -0.9163680     0.6377720
  H        2.2243420     0.5379400     1.5755890
  H        3.5186220     0.6362700     0.3424670
  H        0.7214210     2.4415090    -0.3472440
units angstrom
no_reorient  #important for SAPT in psi4, default
symmetry c1  #important for SAPT in psi4, default
}

set PROPERTIES_ORIGIN ["COM"]
properties('MP2/aug-cc-pvtz', properties = ['dipole'])
--------------------------------------------------------------------------

    Molecular point group: c1
  Charge       = 0
  Multiplicity = 1
  Basis Set: AUG-CC-PVTZ
    Blend: AUG-CC-PVTZ
  Basis Set: (AUG-CC-PVTZ AUX)
    Blend: AUG-CC-PVTZ-JKFIT

    Orbital Energies [Eh]
    ---------------------

    Doubly Occupied:

       1A    -26.318248     2A    -20.598942     3A    -20.595750
       4A    -11.339525     5A    -11.315429     6A    -11.303858
       7A    -11.291413     8A    -11.255275     9A    -11.246159
      10A    -11.239961    11A     -1.630520    12A     -1.426731
      13A     -1.394548    14A     -1.158920    15A     -1.030153
      16A     -1.021155    17A     -0.947063    18A     -0.852962
      19A     -0.849644    20A     -0.759372    21A     -0.747484
      22A     -0.710902    23A     -0.700092    24A     -0.675488
      25A     -0.653732    26A     -0.646011    27A     -0.634439
      28A     -0.621248    29A     -0.589886    30A     -0.573283
      31A     -0.553092    32A     -0.540310    33A     -0.519644
      34A     -0.490673    35A     -0.473167    36A     -0.343555
      37A     -0.325201

  @DF-RHF Final Energy:  -518.47853059595218

   => Energetics <=

    Nuclear Repulsion Energy =            528.8893166275111071
    One-Electron Energy =               -1759.9880245572380773
    Two-Electron Energy =                 712.6201773337747909
    Total Energy =                       -518.4785305959521793
  Basis Set: (AUG-CC-PVTZ AUX)
    Blend: AUG-CC-PVTZ-RI
    Molecular point group: c1

    Geometry (in Angstrom), charge = 0, multiplicity = 1:

       Center              X                  Y                   Z               Mass
    ------------   -----------------  -----------------  -----------------  -----------------
         F            0.884063042772    -2.134857641028    -0.251523424004    18.998403162730
         O            1.650167042772     0.570357358972    -0.412344424004    15.994914619570
         O           -0.232873957228     2.484709358972    -0.122491424004    15.994914619570
         C            0.351547042772     0.168537358972    -0.163096424004    12.000000000000
         C           -0.615634957228     1.177722358972    -0.041839424004    12.000000000000
         C           -0.056647957228    -1.163347641028    -0.105105424004    12.000000000000
         C           -1.955605957228     0.849373358972     0.168832575996    12.000000000000
         C           -1.381238957228    -1.514052641028     0.116755575996    12.000000000000
         C           -2.327481957228    -0.492991641028     0.244272575996    12.000000000000
         C            2.574315042772     0.189852358972     0.628103575996    12.000000000000
         H           -2.683946957228     1.649276358972     0.261466575996     1.007825032230
         H           -1.658849457228    -2.582915141028     0.161970775996     1.007825032230
         H           -3.369721957228    -0.750780641028     0.410880575996     1.007825032230
         H            2.688806042772    -0.894201641028     0.660446575996     1.007825032230
         H            2.228231042772     0.560106358972     1.598263575996     1.007825032230
         H            3.522511042772     0.658436358972     0.365141575996     1.007825032230
         H            0.725310042772     2.463675358972    -0.324569424004     1.007825032230

  Basis Set: AUG-CC-PVTZ
    Blend: AUG-CC-PVTZ
  Basis Set: (AUG-CC-PVTZ AUX)
    Blend: AUG-CC-PVTZ-JKFIT
	 Reference Energy          =    -518.4785305959521793 [Eh]
	 Singles Energy            =      -0.0000000000000000 [Eh]
	 Same-Spin Energy          =      -0.5089443830508502 [Eh]
	 Opposite-Spin Energy      =      -1.5384748705707096 [Eh]
	 Correlation Energy        =      -2.0474192536215599 [Eh]
	 Total Energy              =    -520.5259498495737489 [Eh]

	 ================> DF-SCS-MP2 Energies <==================
	-----------------------------------------------------------
	 SCS Same-Spin Scale       =       0.3333333333333333 [-]
	 SCS Opposite-Spin Scale   =       1.2000000000000000 [-]
	 SCS Same-Spin Energy      =      -0.1696481276836167 [Eh]
	 SCS Opposite-Spin Energy  =      -1.8461698446848516 [Eh]
	 SCS Correlation Energy    =      -2.0158179723684682 [Eh]
	 SCS Total Energy          =    -520.4943485683206745 [Eh]
	-----------------------------------------------------------

  Dipole Moment: [D]
     X:     0.6484      Y:    -0.1646      Z:     1.1692     Total:     1.3470

*** Psi4 exiting successfully. Buy a developer a beer!
