                               Psi4 1.4a3.dev225

  ==> Input File <==

--------------------------------------------------------------------------
#psi4
#
memory 32 gb

molecule  {
0 1
  F        0.8801740    -2.1570240    -0.2741980
  O        1.6462780     0.5481910    -0.4350190
  O       -0.2367630     2.4625430    -0.1451660
  C        0.3476580     0.1463710    -0.1857710
  C       -0.6195240     1.1555560    -0.0645140
  C       -0.0605370    -1.1855140    -0.1277800
  C       -1.9594950     0.8272070     0.1461580
  C       -1.3851280    -1.5362190     0.0940810
  C       -2.3313710    -0.5151580     0.2215980
  C        2.5704260     0.1676860     0.6054290
  H       -2.6878360     1.6271100     0.2387920
  H       -1.6577150    -2.5857400     0.1384780
  H       -3.3736110    -0.7729470     0.3882060
  H        2.6849170    -0.9163680     0.6377720
  H        2.2243420     0.5379400     1.5755890
  H        3.5186220     0.6362700     0.3424670
  H        0.5257708     2.4458039    -0.3059820
units angstrom
no_reorient  #important for SAPT in psi4, default
symmetry c1  #important for SAPT in psi4, default
}

set PROPERTIES_ORIGIN ["COM"]
properties('MP2/aug-cc-pvtz', properties = ['dipole'])
--------------------------------------------------------------------------

    Molecular point group: c1
  Charge       = 0
  Multiplicity = 1
  Basis Set: AUG-CC-PVTZ
    Blend: AUG-CC-PVTZ
  Basis Set: (AUG-CC-PVTZ AUX)
    Blend: AUG-CC-PVTZ-JKFIT

    Orbital Energies [Eh]
    ---------------------

    Doubly Occupied:

       1A    -26.318982     2A    -20.596433     3A    -20.579620
       4A    -11.340298     5A    -11.317697     6A    -11.305972
       7A    -11.289903     8A    -11.256241     9A    -11.245954
      10A    -11.242010    11A     -1.631190    12A     -1.472490
      13A     -1.406806    14A     -1.163274    15A     -1.031793
      16A     -1.030858    17A     -0.947297    18A     -0.869897
      19A     -0.852472    20A     -0.786968    21A     -0.748835
      22A     -0.711279    23A     -0.700714    24A     -0.686845
      25A     -0.653568    26A     -0.647496    27A     -0.637682
      28A     -0.625127    29A     -0.598775    30A     -0.583372
      31A     -0.554551    32A     -0.544367    33A     -0.521155
      34A     -0.492889    35A     -0.471877    36A     -0.344461
      37A     -0.328473

  @DF-RHF Final Energy:  -518.43622396416140

   => Energetics <=

    Nuclear Repulsion Energy =            530.2229709619343794
    One-Electron Energy =               -1762.2431479033261894
    Two-Electron Energy =                 713.5839529772304104
    Total Energy =                       -518.4362239641613996
  Basis Set: (AUG-CC-PVTZ AUX)
    Blend: AUG-CC-PVTZ-RI
    Molecular point group: c1

    Geometry (in Angstrom), charge = 0, multiplicity = 1:

       Center              X                  Y                   Z               Mass
    ------------   -----------------  -----------------  -----------------  -----------------
         F            0.885415579326    -2.135025346260    -0.251810381276    18.998403162730
         O            1.651519579326     0.570189653740    -0.412631381276    15.994914619570
         O           -0.231521420674     2.484541653740    -0.122778381276    15.994914619570
         C            0.352899579326     0.168369653740    -0.163383381276    12.000000000000
         C           -0.614282420674     1.177554653740    -0.042126381276    12.000000000000
         C           -0.055295420674    -1.163515346260    -0.105392381276    12.000000000000
         C           -1.954253420674     0.849205653740     0.168545618724    12.000000000000
         C           -1.379886420674    -1.514220346260     0.116468618724    12.000000000000
         C           -2.326129420674    -0.493159346260     0.243985618724    12.000000000000
         C            2.575667579326     0.189684653740     0.627816618724    12.000000000000
         H           -2.682594420674     1.649108653740     0.261179618724     1.007825032230
         H           -1.652473420674    -2.563741346260     0.160865618724     1.007825032230
         H           -3.368369420674    -0.750948346260     0.410593618724     1.007825032230
         H            2.690158579326    -0.894369346260     0.660159618724     1.007825032230
         H            2.229583579326     0.559938653740     1.597976618724     1.007825032230
         H            3.523863579326     0.658268653740     0.364854618724     1.007825032230
         H            0.531012379326     2.467802553740    -0.283594381276     1.007825032230

  Basis Set: AUG-CC-PVTZ
    Blend: AUG-CC-PVTZ
  Basis Set: (AUG-CC-PVTZ AUX)
    Blend: AUG-CC-PVTZ-JKFIT
	 Reference Energy          =    -518.4362239641613996 [Eh]
	 Singles Energy            =      -0.0000000000000000 [Eh]
	 Same-Spin Energy          =      -0.5060976397162622 [Eh]
	 Opposite-Spin Energy      =      -1.5325538412119022 [Eh]
	 Correlation Energy        =      -2.0386514809281646 [Eh]
	 Total Energy              =    -520.4748754450895376 [Eh]

	 ================> DF-SCS-MP2 Energies <==================
	-----------------------------------------------------------
	 SCS Same-Spin Scale       =       0.3333333333333333 [-]
	 SCS Opposite-Spin Scale   =       1.2000000000000000 [-]
	 SCS Same-Spin Energy      =      -0.1686992132387541 [Eh]
	 SCS Opposite-Spin Energy  =      -1.8390646094542826 [Eh]
	 SCS Correlation Energy    =      -2.0077638226930365 [Eh]
	 SCS Total Energy          =    -520.4439877868544500 [Eh]
	-----------------------------------------------------------

  Dipole Moment: [D]
     X:     0.3791      Y:    -0.2431      Z:     1.2132     Total:     1.2941

*** Psi4 exiting successfully. Buy a developer a beer!
