                               Psi4 1.4a3.dev225

  ==> Input File <==

--------------------------------------------------------------------------
#psi4
#
memory 32 gb

molecule  {
0 1
  F        0.8801740    -2.1570240    -0.2741980
  O        1.7605207     0.6245917    -0.4975924
  O       -0.2367630     2.4625430    -0.1451660
  C        0.3476580     0.1463710    -0.1857710
  C       -0.6195240     1.1555560    -0.0645140
  C       -0.0605370    -1.1855140    -0.1277800
  C       -1.9594950     0.8272070     0.1461580
  C       -1.3851280    -1.5362190     0.0940810
  C       -2.3313710    -0.5151580     0.2215980
  C        2.5704260     0.1676860     0.6054290
  H       -2.6878360     1.6271100     0.2387920
  H       -1.6577150    -2.5857400     0.1384780
  H       -3.3736110    -0.7729470     0.3882060
  H        2.6849170    -0.9163680     0.6377720
  H        2.2243420     0.5379400     1.5755890
  H        3.5186220     0.6362700     0.3424670
  H        0.7214210     2.4415090    -0.3472440
units angstrom
no_reorient  #important for SAPT in psi4, default
symmetry c1  #important for SAPT in psi4, default
}

set PROPERTIES_ORIGIN ["COM"]
properties('MP2/aug-cc-pvtz', properties = ['dipole'])
--------------------------------------------------------------------------

    Molecular point group: c1
  Charge       = 0
  Multiplicity = 1
  Basis Set: AUG-CC-PVTZ
    Blend: AUG-CC-PVTZ
  Basis Set: (AUG-CC-PVTZ AUX)
    Blend: AUG-CC-PVTZ-JKFIT

    Orbital Energies [Eh]
    ---------------------

    Doubly Occupied:

       1A    -26.321737     2A    -20.604210     3A    -20.597429
       4A    -11.349630     5A    -11.323665     6A    -11.311768
       7A    -11.283788     8A    -11.261986     9A    -11.248734
      10A    -11.244144    11A     -1.633855    12A     -1.416082
      13A     -1.368925    14A     -1.165363    15A     -1.032340
      16A     -1.024670    17A     -0.933328    18A     -0.856993
      19A     -0.853508    20A     -0.759208    21A     -0.747070
      22A     -0.705664    23A     -0.694205    24A     -0.680506
      25A     -0.645790    26A     -0.638766    27A     -0.636035
      28A     -0.612265    29A     -0.587314    30A     -0.577013
      31A     -0.557385    32A     -0.542418    33A     -0.503175
      34A     -0.496265    35A     -0.474463    36A     -0.353147
      37A     -0.331826

  @DF-RHF Final Energy:  -518.45763392038884

   => Energetics <=

    Nuclear Repulsion Energy =            524.8978420177264752
    One-Electron Energy =               -1751.9616059023173875
    Two-Electron Energy =                 708.6061299642021822
    Total Energy =                       -518.4576339203888438
  Basis Set: (AUG-CC-PVTZ AUX)
    Blend: AUG-CC-PVTZ-RI
    Molecular point group: c1

    Geometry (in Angstrom), charge = 0, multiplicity = 1:

       Center              X                  Y                   Z               Mass
    ------------   -----------------  -----------------  -----------------  -----------------
         F            0.871162970659    -2.143598060862    -0.244471469743    18.998403162730
         O            1.751509670659     0.638017639138    -0.467865869743    15.994914619570
         O           -0.245774029341     2.475968939138    -0.115439469743    15.994914619570
         C            0.338646970659     0.159796939138    -0.156044469743    12.000000000000
         C           -0.628535029341     1.168981939138    -0.034787469743    12.000000000000
         C           -0.069548029341    -1.172088060862    -0.098053469743    12.000000000000
         C           -1.968506029341     0.840632939138     0.175884530257    12.000000000000
         C           -1.394139029341    -1.522793060862     0.123807530257    12.000000000000
         C           -2.340382029341    -0.501732060862     0.251324530257    12.000000000000
         C            2.561414970659     0.181111939138     0.635155530257    12.000000000000
         H           -2.696847029341     1.640535939138     0.268518530257     1.007825032230
         H           -1.666726029341    -2.572314060862     0.168204530257     1.007825032230
         H           -3.382622029341    -0.759521060862     0.417932530257     1.007825032230
         H            2.675905970659    -0.902942060862     0.667498530257     1.007825032230
         H            2.215330970659     0.551365939138     1.605315530257     1.007825032230
         H            3.509610970659     0.649695939138     0.372193530257     1.007825032230
         H            0.712409970659     2.454934939138    -0.317517469743     1.007825032230

  Basis Set: AUG-CC-PVTZ
    Blend: AUG-CC-PVTZ
  Basis Set: (AUG-CC-PVTZ AUX)
    Blend: AUG-CC-PVTZ-JKFIT
	 Reference Energy          =    -518.4576339203888438 [Eh]
	 Singles Energy            =      -0.0000000000000000 [Eh]
	 Same-Spin Energy          =      -0.5099386859451478 [Eh]
	 Opposite-Spin Energy      =      -1.5432994701288969 [Eh]
	 Correlation Energy        =      -2.0532381560740447 [Eh]
	 Total Energy              =    -520.5108720764628742 [Eh]

	 ================> DF-SCS-MP2 Energies <==================
	-----------------------------------------------------------
	 SCS Same-Spin Scale       =       0.3333333333333333 [-]
	 SCS Opposite-Spin Scale   =       1.2000000000000000 [-]
	 SCS Same-Spin Energy      =      -0.1699795619817159 [Eh]
	 SCS Opposite-Spin Energy  =      -1.8519593641546761 [Eh]
	 SCS Correlation Energy    =      -2.0219389261363920 [Eh]
	 SCS Total Energy          =    -520.4795728465252296 [Eh]
	-----------------------------------------------------------

  Dipole Moment: [D]
     X:     0.0102      Y:    -0.3511      Z:     1.2318     Total:     1.2809

*** Psi4 exiting successfully. Buy a developer a beer!
