                               Psi4 1.4a3.dev225

  ==> Input File <==

--------------------------------------------------------------------------
#psi4
#
memory 32 gb

molecule  {
0 1
  F        0.8801740    -2.1570240    -0.2741980
  O        1.6706224     0.6912825    -0.3933531
  O       -0.2367630     2.4625430    -0.1451660
  C        0.3476580     0.1463710    -0.1857710
  C       -0.6195240     1.1555560    -0.0645140
  C       -0.0605370    -1.1855140    -0.1277800
  C       -1.9594950     0.8272070     0.1461580
  C       -1.3851280    -1.5362190     0.0940810
  C       -2.3313710    -0.5151580     0.2215980
  C        2.5704260     0.1676860     0.6054290
  H       -2.6878360     1.6271100     0.2387920
  H       -1.6577150    -2.5857400     0.1384780
  H       -3.3736110    -0.7729470     0.3882060
  H        2.6849170    -0.9163680     0.6377720
  H        2.2243420     0.5379400     1.5755890
  H        3.5186220     0.6362700     0.3424670
  H        0.7214210     2.4415090    -0.3472440
units angstrom
no_reorient  #important for SAPT in psi4, default
symmetry c1  #important for SAPT in psi4, default
}

set PROPERTIES_ORIGIN ["COM"]
properties('MP2/aug-cc-pvtz', properties = ['dipole'])
--------------------------------------------------------------------------

    Molecular point group: c1
  Charge       = 0
  Multiplicity = 1
  Basis Set: AUG-CC-PVTZ
    Blend: AUG-CC-PVTZ
  Basis Set: (AUG-CC-PVTZ AUX)
    Blend: AUG-CC-PVTZ-JKFIT

    Orbital Energies [Eh]
    ---------------------

    Doubly Occupied:

       1A    -26.320703     2A    -20.603659     3A    -20.592975
       4A    -11.346307     5A    -11.316818     6A    -11.308246
       7A    -11.288628     8A    -11.257758     9A    -11.246555
      10A    -11.240592    11A     -1.633163    12A     -1.420166
      13A     -1.382941    14A     -1.161888    15A     -1.030625
      16A     -1.023017    17A     -0.943041    18A     -0.854157
      19A     -0.850774    20A     -0.758444    21A     -0.747388
      22A     -0.708081    23A     -0.698746    24A     -0.679156
      25A     -0.653364    26A     -0.646900    27A     -0.636466
      28A     -0.608451    29A     -0.587653    30A     -0.574189
      31A     -0.556529    32A     -0.539154    33A     -0.512474
      34A     -0.496016    35A     -0.476355    36A     -0.347690
      37A     -0.326812

  @DF-RHF Final Energy:  -518.46869422952193

   => Energetics <=

    Nuclear Repulsion Energy =            527.3894152086347731
    One-Electron Energy =               -1756.9644551623084681
    Two-Electron Energy =                 711.1063457241517654
    Total Energy =                       -518.4686942295219296
  Basis Set: (AUG-CC-PVTZ AUX)
    Blend: AUG-CC-PVTZ-RI
    Molecular point group: c1

    Geometry (in Angstrom), charge = 0, multiplicity = 1:

       Center              X                  Y                   Z               Mass
    ------------   -----------------  -----------------  -----------------  -----------------
         F            0.881286071099    -2.151107854338    -0.256209454817    18.998403162730
         O            1.671734471099     0.697198645662    -0.375364554817    15.994914619570
         O           -0.235650928901     2.468459145662    -0.127177454817    15.994914619570
         C            0.348770071099     0.152287145662    -0.167782454817    12.000000000000
         C           -0.618411928901     1.161472145662    -0.046525454817    12.000000000000
         C           -0.059424928901    -1.179597854338    -0.109791454817    12.000000000000
         C           -1.958382928901     0.833123145662     0.164146545183    12.000000000000
         C           -1.384015928901    -1.530302854338     0.112069545183    12.000000000000
         C           -2.330258928901    -0.509241854338     0.239586545183    12.000000000000
         C            2.571538071099     0.173602145662     0.623417545183    12.000000000000
         H           -2.686723928901     1.633026145662     0.256780545183     1.007825032230
         H           -1.656602928901    -2.579823854338     0.156466545183     1.007825032230
         H           -3.372498928901    -0.767030854338     0.406194545183     1.007825032230
         H            2.686029071099    -0.910451854338     0.655760545183     1.007825032230
         H            2.225454071099     0.543856145662     1.593577545183     1.007825032230
         H            3.519734071099     0.642186145662     0.360455545183     1.007825032230
         H            0.722533071099     2.447425145662    -0.329255454817     1.007825032230

  Basis Set: AUG-CC-PVTZ
    Blend: AUG-CC-PVTZ
  Basis Set: (AUG-CC-PVTZ AUX)
    Blend: AUG-CC-PVTZ-JKFIT
	 Reference Energy          =    -518.4686942295219296 [Eh]
	 Singles Energy            =      -0.0000000000000000 [Eh]
	 Same-Spin Energy          =      -0.5096803795736178 [Eh]
	 Opposite-Spin Energy      =      -1.5408181985606770 [Eh]
	 Correlation Energy        =      -2.0504985781342948 [Eh]
	 Total Energy              =    -520.5191928076561680 [Eh]

	 ================> DF-SCS-MP2 Energies <==================
	-----------------------------------------------------------
	 SCS Same-Spin Scale       =       0.3333333333333333 [-]
	 SCS Opposite-Spin Scale   =       1.2000000000000000 [-]
	 SCS Same-Spin Energy      =      -0.1698934598578726 [Eh]
	 SCS Opposite-Spin Energy  =      -1.8489818382728123 [Eh]
	 SCS Correlation Energy    =      -2.0188752981306850 [Eh]
	 SCS Total Energy          =    -520.4875695276525676 [Eh]
	-----------------------------------------------------------

  Dipole Moment: [D]
     X:     0.4738      Y:    -0.4209      Z:     1.1042     Total:     1.2732

*** Psi4 exiting successfully. Buy a developer a beer!
