                               Psi4 1.4a3.dev225

  ==> Input File <==

--------------------------------------------------------------------------
#psi4
#
memory 32 gb

molecule  {
0 1
  F        0.8801740    -2.1570240    -0.2741980
  O        1.6462780     0.5481910    -0.4350190
  O       -0.2367630     2.4625430    -0.1451660
  C        0.3476580     0.1463710    -0.1857710
  C       -0.6195240     1.1555560    -0.0645140
  C       -0.0668729    -1.1621353    -0.1273291
  C       -1.9594950     0.8272070     0.1461580
  C       -1.3851280    -1.5362190     0.0940810
  C       -2.3313710    -0.5151580     0.2215980
  C        2.5704260     0.1676860     0.6054290
  H       -2.6878360     1.6271100     0.2387920
  H       -1.6577150    -2.5857400     0.1384780
  H       -3.3736110    -0.7729470     0.3882060
  H        2.6849170    -0.9163680     0.6377720
  H        2.2243420     0.5379400     1.5755890
  H        3.5186220     0.6362700     0.3424670
  H        0.7214210     2.4415090    -0.3472440
units angstrom
no_reorient  #important for SAPT in psi4, default
symmetry c1  #important for SAPT in psi4, default
}

set PROPERTIES_ORIGIN ["COM"]
properties('MP2/aug-cc-pvtz', properties = ['dipole'])
--------------------------------------------------------------------------

    Molecular point group: c1
  Charge       = 0
  Multiplicity = 1
  Basis Set: AUG-CC-PVTZ
    Blend: AUG-CC-PVTZ
  Basis Set: (AUG-CC-PVTZ AUX)
    Blend: AUG-CC-PVTZ-JKFIT

    Orbital Energies [Eh]
    ---------------------

    Doubly Occupied:

       1A    -26.312279     2A    -20.599782     3A    -20.596663
       4A    -11.337725     5A    -11.316553     6A    -11.303419
       7A    -11.291546     8A    -11.255738     9A    -11.244770
      10A    -11.240278    11A     -1.618316    12A     -1.427666
      13A     -1.395386    14A     -1.162258    15A     -1.033345
      16A     -1.021843    17A     -0.947960    18A     -0.854815
      19A     -0.847848    20A     -0.759337    21A     -0.742339
      22A     -0.709247    23A     -0.693363    24A     -0.674018
      25A     -0.653734    26A     -0.646479    27A     -0.635297
      28A     -0.621874    29A     -0.590735    30A     -0.574037
      31A     -0.555138    32A     -0.541838    33A     -0.520323
      34A     -0.492835    35A     -0.474477    36A     -0.347102
      37A     -0.325515

  @DF-RHF Final Energy:  -518.47813773259941

   => Energetics <=

    Nuclear Repulsion Energy =            529.1641995545784312
    One-Electron Energy =               -1760.5529202673212694
    Two-Electron Energy =                 712.9105829801433174
    Total Energy =                       -518.4781377325994072
  Basis Set: (AUG-CC-PVTZ AUX)
    Blend: AUG-CC-PVTZ-RI
    Molecular point group: c1

    Geometry (in Angstrom), charge = 0, multiplicity = 1:

       Center              X                  Y                   Z               Mass
    ------------   -----------------  -----------------  -----------------  -----------------
         F            0.884562666035    -2.136969939640    -0.251555711391    18.998403162730
         O            1.650666666035     0.568245060360    -0.412376711391    15.994914619570
         O           -0.232374333965     2.482597060360    -0.122523711391    15.994914619570
         C            0.352046666035     0.166425060360    -0.163128711391    12.000000000000
         C           -0.615135333965     1.175610060360    -0.041871711391    12.000000000000
         C           -0.062484233965    -1.142081239640    -0.104686811391    12.000000000000
         C           -1.955106333965     0.847261060360     0.168800288609    12.000000000000
         C           -1.380739333965    -1.516164939640     0.116723288609    12.000000000000
         C           -2.326982333965    -0.495103939640     0.244240288609    12.000000000000
         C            2.574814666035     0.187740060360     0.628071288609    12.000000000000
         H           -2.683447333965     1.647164060360     0.261434288609     1.007825032230
         H           -1.653326333965    -2.565685939640     0.161120288609     1.007825032230
         H           -3.369222333965    -0.752892939640     0.410848288609     1.007825032230
         H            2.689305666035    -0.896313939640     0.660414288609     1.007825032230
         H            2.228730666035     0.557994060360     1.598231288609     1.007825032230
         H            3.523010666035     0.656324060360     0.365109288609     1.007825032230
         H            0.725809666035     2.461563060360    -0.324601711391     1.007825032230

  Basis Set: AUG-CC-PVTZ
    Blend: AUG-CC-PVTZ
  Basis Set: (AUG-CC-PVTZ AUX)
    Blend: AUG-CC-PVTZ-JKFIT
	 Reference Energy          =    -518.4781377325994072 [Eh]
	 Singles Energy            =      -0.0000000000000000 [Eh]
	 Same-Spin Energy          =      -0.5089150780383725 [Eh]
	 Opposite-Spin Energy      =      -1.5386399935932686 [Eh]
	 Correlation Energy        =      -2.0475550716316411 [Eh]
	 Total Energy              =    -520.5256928042310847 [Eh]

	 ================> DF-SCS-MP2 Energies <==================
	-----------------------------------------------------------
	 SCS Same-Spin Scale       =       0.3333333333333333 [-]
	 SCS Opposite-Spin Scale   =       1.2000000000000000 [-]
	 SCS Same-Spin Energy      =      -0.1696383593461242 [Eh]
	 SCS Opposite-Spin Energy  =      -1.8463679923119223 [Eh]
	 SCS Correlation Energy    =      -2.0160063516580466 [Eh]
	 SCS Total Energy          =    -520.4941440842574139 [Eh]
	-----------------------------------------------------------

  Dipole Moment: [D]
     X:     0.5771      Y:    -0.0664      Z:     1.1850     Total:     1.3197

*** Psi4 exiting successfully. Buy a developer a beer!
