                               Psi4 1.4a3.dev225

  ==> Input File <==

--------------------------------------------------------------------------
#psi4
#
memory 32 gb

molecule  {
0 1
  F        0.8801740    -2.1570240    -0.2741980
  O        1.6462780     0.5481910    -0.4350190
  O       -0.2367630     2.4625430    -0.1451660
  C        0.3476580     0.1463710    -0.1857710
  C       -0.6195240     1.1555560    -0.0645140
  C       -0.0605370    -1.1855140    -0.1277800
  C       -1.9594950     0.8272070     0.1461580
  C       -1.3851280    -1.5362190     0.0940810
  C       -2.3313710    -0.5151580     0.2215980
  C        2.5704260     0.1676860     0.6054290
  H       -2.6878360     1.6271100     0.2387920
  H       -1.6577150    -2.5857400     0.1384780
  H       -3.3736110    -0.7729470     0.3882060
  H        2.6665397    -0.9180022     0.6424501
  H        2.2243420     0.5379400     1.5755890
  H        3.5186220     0.6362700     0.3424670
  H        0.7214210     2.4415090    -0.3472440
units angstrom
no_reorient  #important for SAPT in psi4, default
symmetry c1  #important for SAPT in psi4, default
}

set PROPERTIES_ORIGIN ["COM"]
properties('MP2/aug-cc-pvtz', properties = ['dipole'])
--------------------------------------------------------------------------

    Molecular point group: c1
  Charge       = 0
  Multiplicity = 1
  Basis Set: AUG-CC-PVTZ
    Blend: AUG-CC-PVTZ
  Basis Set: (AUG-CC-PVTZ AUX)
    Blend: AUG-CC-PVTZ-JKFIT

    Orbital Energies [Eh]
    ---------------------

    Doubly Occupied:

       1A    -26.318394     2A    -20.598634     3A    -20.595705
       4A    -11.339405     5A    -11.315395     6A    -11.303758
       7A    -11.291366     8A    -11.255146     9A    -11.243980
      10A    -11.239869    11A     -1.630698    12A     -1.426636
      13A     -1.394465    14A     -1.158984    15A     -1.030082
      16A     -1.021775    17A     -0.946997    18A     -0.853823
      19A     -0.849670    20A     -0.759566    21A     -0.747547
      22A     -0.711540    23A     -0.700280    24A     -0.676927
      25A     -0.652964    26A     -0.646383    27A     -0.635250
      28A     -0.621746    29A     -0.589739    30A     -0.573734
      31A     -0.554223    32A     -0.540725    33A     -0.519993
      34A     -0.490576    35A     -0.472807    36A     -0.343497
      37A     -0.325156

  @DF-RHF Final Energy:  -518.47912468420066

   => Energetics <=

    Nuclear Repulsion Energy =            529.0371094241625087
    One-Electron Energy =               -1760.2775943802889742
    Two-Electron Energy =                 712.7613602719258097
    Total Energy =                       -518.4791246842006558
  Basis Set: (AUG-CC-PVTZ AUX)
    Blend: AUG-CC-PVTZ-RI
    Molecular point group: c1

    Geometry (in Angstrom), charge = 0, multiplicity = 1:

       Center              X                  Y                   Z               Mass
    ------------   -----------------  -----------------  -----------------  -----------------
         F            0.884157790793    -2.134983278048    -0.251550810807    18.998403162730
         O            1.650261790793     0.570231721952    -0.412371810807    15.994914619570
         O           -0.232779209207     2.484583721952    -0.122518810807    15.994914619570
         C            0.351641790793     0.168411721952    -0.163123810807    12.000000000000
         C           -0.615540209207     1.177596721952    -0.041866810807    12.000000000000
         C           -0.056553209207    -1.163473278048    -0.105132810807    12.000000000000
         C           -1.955511209207     0.849247721952     0.168805189193    12.000000000000
         C           -1.381144209207    -1.514178278048     0.116728189193    12.000000000000
         C           -2.327387209207    -0.493117278048     0.244245189193    12.000000000000
         C            2.574409790793     0.189726721952     0.628076189193    12.000000000000
         H           -2.683852209207     1.649150721952     0.261439189193     1.007825032230
         H           -1.653731209207    -2.563699278048     0.161125189193     1.007825032230
         H           -3.369627209207    -0.750906278048     0.410853189193     1.007825032230
         H            2.670523490793    -0.895961478048     0.665097289193     1.007825032230
         H            2.228325790793     0.559980721952     1.598236189193     1.007825032230
         H            3.522605790793     0.658310721952     0.365114189193     1.007825032230
         H            0.725404790793     2.463549721952    -0.324596810807     1.007825032230

  Basis Set: AUG-CC-PVTZ
    Blend: AUG-CC-PVTZ
  Basis Set: (AUG-CC-PVTZ AUX)
    Blend: AUG-CC-PVTZ-JKFIT
	 Reference Energy          =    -518.4791246842006558 [Eh]
	 Singles Energy            =      -0.0000000000000000 [Eh]
	 Same-Spin Energy          =      -0.5089161046505459 [Eh]
	 Opposite-Spin Energy      =      -1.5383582699965879 [Eh]
	 Correlation Energy        =      -2.0472743746471336 [Eh]
	 Total Energy              =    -520.5263990588478009 [Eh]

	 ================> DF-SCS-MP2 Energies <==================
	-----------------------------------------------------------
	 SCS Same-Spin Scale       =       0.3333333333333333 [-]
	 SCS Opposite-Spin Scale   =       1.2000000000000000 [-]
	 SCS Same-Spin Energy      =      -0.1696387015501820 [Eh]
	 SCS Opposite-Spin Energy  =      -1.8460299239959053 [Eh]
	 SCS Correlation Energy    =      -2.0156686255460872 [Eh]
	 SCS Total Energy          =    -520.4947933097467967 [Eh]
	-----------------------------------------------------------

  Dipole Moment: [D]
     X:     0.6425      Y:    -0.1647      Z:     1.1708     Total:     1.3456

*** Psi4 exiting successfully. Buy a developer a beer!
