                               Psi4 1.4a3.dev225

  ==> Input File <==

--------------------------------------------------------------------------
#psi4
#
memory 32 gb

molecule  {
0 1
  F        0.8801740    -2.1570240    -0.2741980
  O        1.6462780     0.5481910    -0.4350190
  O       -0.2367630     2.4625430    -0.1451660
  C        0.3476580     0.1463710    -0.1857710
  C       -0.6195240     1.1555560    -0.0645140
  C       -0.0605370    -1.1855140    -0.1277800
  C       -1.9594950     0.8272070     0.1461580
  C       -1.3851280    -1.5362190     0.0940810
  C       -2.3313710    -0.5151580     0.2215980
  C        2.5704260     0.1676860     0.6054290
  H       -2.6878360     1.6271100     0.2387920
  H       -1.6577150    -2.5857400     0.1384780
  H       -3.3736110    -0.7729470     0.3882060
  H        2.7942534    -0.8996526     0.6095468
  H        2.2243420     0.5379400     1.5755890
  H        3.5186220     0.6362700     0.3424670
  H        0.7214210     2.4415090    -0.3472440
units angstrom
no_reorient  #important for SAPT in psi4, default
symmetry c1  #important for SAPT in psi4, default
}

set PROPERTIES_ORIGIN ["COM"]
properties('MP2/aug-cc-pvtz', properties = ['dipole'])
--------------------------------------------------------------------------

    Molecular point group: c1
  Charge       = 0
  Multiplicity = 1
  Basis Set: AUG-CC-PVTZ
    Blend: AUG-CC-PVTZ
  Basis Set: (AUG-CC-PVTZ AUX)
    Blend: AUG-CC-PVTZ-JKFIT

    Orbital Energies [Eh]
    ---------------------

    Doubly Occupied:

       1A    -26.317611     2A    -20.600306     3A    -20.595806
       4A    -11.339172     5A    -11.315382     6A    -11.303696
       7A    -11.291506     8A    -11.255045     9A    -11.243754
      10A    -11.239756    11A     -1.629740    12A     -1.426978
      13A     -1.394750    14A     -1.158847    15A     -1.030106
      16A     -1.021663    17A     -0.947683    18A     -0.853503
      19A     -0.849516    20A     -0.759069    21A     -0.747173
      22A     -0.710142    23A     -0.699911    24A     -0.676473
      25A     -0.659124    26A     -0.646094    27A     -0.634931
      28A     -0.617910    29A     -0.590542    30A     -0.573540
      31A     -0.551109    32A     -0.541822    33A     -0.517916
      34A     -0.490792    35A     -0.474651    36A     -0.343296
      37A     -0.325126

  @DF-RHF Final Energy:  -518.47791700836899

   => Energetics <=

    Nuclear Repulsion Energy =            528.7569722553449765
    One-Electron Energy =               -1759.7208963624248099
    Two-Electron Energy =                 712.4860070987109566
    Total Energy =                       -518.4779170083689905
  Basis Set: (AUG-CC-PVTZ AUX)
    Blend: AUG-CC-PVTZ-RI
    Molecular point group: c1

    Geometry (in Angstrom), charge = 0, multiplicity = 1:

       Center              X                  Y                   Z               Mass
    ------------   -----------------  -----------------  -----------------  -----------------
         F            0.883251635214    -2.135113472321    -0.251317354969    18.998403162730
         O            1.649355635214     0.570101527679    -0.412138354969    15.994914619570
         O           -0.233685364786     2.484453527679    -0.122285354969    15.994914619570
         C            0.350735635214     0.168281527679    -0.162890354969    12.000000000000
         C           -0.616446364786     1.177466527679    -0.041633354969    12.000000000000
         C           -0.057459364786    -1.163603472321    -0.104899354969    12.000000000000
         C           -1.956417364786     0.849117527679     0.169038645031    12.000000000000
         C           -1.382050364786    -1.514308472321     0.116961645031    12.000000000000
         C           -2.328293364786    -0.493247472321     0.244478645031    12.000000000000
         C            2.573503635214     0.189596527679     0.628309645031    12.000000000000
         H           -2.684758364786     1.649020527679     0.261672645031     1.007825032230
         H           -1.654637364786    -2.563829472321     0.161358645031     1.007825032230
         H           -3.370533364786    -0.751036472321     0.411086645031     1.007825032230
         H            2.797331035214    -0.877742072321     0.632427445031     1.007825032230
         H            2.227419635214     0.559850527679     1.598469645031     1.007825032230
         H            3.521699635214     0.658180527679     0.365347645031     1.007825032230
         H            0.724498635214     2.463419527679    -0.324363354969     1.007825032230

  Basis Set: AUG-CC-PVTZ
    Blend: AUG-CC-PVTZ
  Basis Set: (AUG-CC-PVTZ AUX)
    Blend: AUG-CC-PVTZ-JKFIT
	 Reference Energy          =    -518.4779170083689905 [Eh]
	 Singles Energy            =      -0.0000000000000000 [Eh]
	 Same-Spin Energy          =      -0.5088948315842248 [Eh]
	 Opposite-Spin Energy      =      -1.5383537704876546 [Eh]
	 Correlation Energy        =      -2.0472486020718792 [Eh]
	 Total Energy              =    -520.5251656104409221 [Eh]

	 ================> DF-SCS-MP2 Energies <==================
	-----------------------------------------------------------
	 SCS Same-Spin Scale       =       0.3333333333333333 [-]
	 SCS Opposite-Spin Scale   =       1.2000000000000000 [-]
	 SCS Same-Spin Energy      =      -0.1696316105280749 [Eh]
	 SCS Opposite-Spin Energy  =      -1.8460245245851854 [Eh]
	 SCS Correlation Energy    =      -2.0156561351132605 [Eh]
	 SCS Total Energy          =    -520.4935731434821946 [Eh]
	-----------------------------------------------------------

  Dipole Moment: [D]
     X:     0.6847      Y:    -0.1710      Z:     1.1567     Total:     1.3550

*** Psi4 exiting successfully. Buy a developer a beer!
