                               Psi4 1.4a3.dev225

  ==> Input File <==

--------------------------------------------------------------------------
#psi4
#
memory 32 gb

molecule  {
0 1
  F        0.8801740    -2.1570240    -0.2741980
  O        1.6462780     0.5481910    -0.4350190
  O       -0.2367630     2.4625430    -0.1451660
  C        0.3476580     0.1463710    -0.1857710
  C       -0.6195240     1.1555560    -0.0645140
  C       -0.0605370    -1.1855140    -0.1277800
  C       -1.9594950     0.8272070     0.1461580
  C       -1.3851280    -1.5362190     0.0940810
  C       -2.3313710    -0.5151580     0.2215980
  C        2.5704260     0.1676860     0.6054290
  H       -2.6878360     1.6271100     0.2387920
  H       -1.6074802    -2.3923246     0.1302961
  H       -3.3736110    -0.7729470     0.3882060
  H        2.6849170    -0.9163680     0.6377720
  H        2.2243420     0.5379400     1.5755890
  H        3.5186220     0.6362700     0.3424670
  H        0.7214210     2.4415090    -0.3472440
units angstrom
no_reorient  #important for SAPT in psi4, default
symmetry c1  #important for SAPT in psi4, default
}

set PROPERTIES_ORIGIN ["COM"]
properties('MP2/aug-cc-pvtz', properties = ['dipole'])
--------------------------------------------------------------------------

    Molecular point group: c1
  Charge       = 0
  Multiplicity = 1
  Basis Set: AUG-CC-PVTZ
    Blend: AUG-CC-PVTZ
  Basis Set: (AUG-CC-PVTZ AUX)
    Blend: AUG-CC-PVTZ-JKFIT

    Orbital Energies [Eh]
    ---------------------

    Doubly Occupied:

       1A    -26.318736     2A    -20.598439     3A    -20.595677
       4A    -11.338437     5A    -11.315362     6A    -11.302899
       7A    -11.291224     8A    -11.254287     9A    -11.239053
      10A    -11.220946    11A     -1.631043    12A     -1.426435
      13A     -1.394294    14A     -1.160687    15A     -1.032785
      16A     -1.028609    17A     -0.947502    18A     -0.866839
      19A     -0.849532    20A     -0.762428    21A     -0.747943
      22A     -0.722282    23A     -0.702330    24A     -0.691192
      25A     -0.654151    26A     -0.650243    27A     -0.638728
      28A     -0.621006    29A     -0.589839    30A     -0.578677
      31A     -0.559107    32A     -0.543111    33A     -0.519936
      34A     -0.490492    35A     -0.473200    36A     -0.342850
      37A     -0.325120

  @DF-RHF Final Energy:  -518.44387299683763

   => Energetics <=

    Nuclear Repulsion Energy =            530.2134995076386303
    One-Electron Energy =               -1762.4639080763083712
    Two-Electron Energy =                 713.8065355718320006
    Total Energy =                       -518.4438729968376265
  Basis Set: (AUG-CC-PVTZ AUX)
    Blend: AUG-CC-PVTZ-RI
    Molecular point group: c1

    Geometry (in Angstrom), charge = 0, multiplicity = 1:

       Center              X                  Y                   Z               Mass
    ------------   -----------------  -----------------  -----------------  -----------------
         F            0.883670973504    -2.136367196008    -0.251459566400    18.998403162730
         O            1.649774973504     0.568847803992    -0.412280566400    15.994914619570
         O           -0.233266026496     2.483199803992    -0.122427566400    15.994914619570
         C            0.351154973504     0.167027803992    -0.163032566400    12.000000000000
         C           -0.616027026496     1.176212803992    -0.041775566400    12.000000000000
         C           -0.057040026496    -1.164857196008    -0.105041566400    12.000000000000
         C           -1.955998026496     0.847863803992     0.168896433600    12.000000000000
         C           -1.381631026496    -1.515562196008     0.116819433600    12.000000000000
         C           -2.327874026496    -0.494501196008     0.244336433600    12.000000000000
         C            2.573922973504     0.188342803992     0.628167433600    12.000000000000
         H           -2.684339026496     1.647766803992     0.261530433600     1.007825032230
         H           -1.603983226496    -2.371667796008     0.153034533600     1.007825032230
         H           -3.370114026496    -0.752290196008     0.410944433600     1.007825032230
         H            2.688413973504    -0.895711196008     0.660510433600     1.007825032230
         H            2.227838973504     0.558596803992     1.598327433600     1.007825032230
         H            3.522118973504     0.656926803992     0.365205433600     1.007825032230
         H            0.724917973504     2.462165803992    -0.324505566400     1.007825032230

  Basis Set: AUG-CC-PVTZ
    Blend: AUG-CC-PVTZ
  Basis Set: (AUG-CC-PVTZ AUX)
    Blend: AUG-CC-PVTZ-JKFIT
	 Reference Energy          =    -518.4438729968376265 [Eh]
	 Singles Energy            =      -0.0000000000000000 [Eh]
	 Same-Spin Energy          =      -0.5086931675989188 [Eh]
	 Opposite-Spin Energy      =      -1.5380212261650010 [Eh]
	 Correlation Energy        =      -2.0467143937639198 [Eh]
	 Total Energy              =    -520.4905873906014904 [Eh]

	 ================> DF-SCS-MP2 Energies <==================
	-----------------------------------------------------------
	 SCS Same-Spin Scale       =       0.3333333333333333 [-]
	 SCS Opposite-Spin Scale   =       1.2000000000000000 [-]
	 SCS Same-Spin Energy      =      -0.1695643891996396 [Eh]
	 SCS Opposite-Spin Energy  =      -1.8456254713980011 [Eh]
	 SCS Correlation Energy    =      -2.0151898605976406 [Eh]
	 SCS Total Energy          =    -520.4590628574352422 [Eh]
	-----------------------------------------------------------

  Dipole Moment: [D]
     X:     0.6573      Y:    -0.1557      Z:     1.1669     Total:     1.3483

*** Psi4 exiting successfully. Buy a developer a beer!
