                               Psi4 1.4a3.dev225

  ==> Input File <==

--------------------------------------------------------------------------
#psi4
#
memory 32 gb

molecule  {
0 1
  F        0.8801740    -2.1570240    -0.2741980
  O        1.6462780     0.5481910    -0.4350190
  O       -0.2367630     2.4625430    -0.1451660
  C        0.3476580     0.1463710    -0.1857710
  C       -0.6195240     1.1555560    -0.0645140
  C       -0.0605370    -1.1855140    -0.1277800
  C       -2.0555085     0.8036797     0.1612534
  C       -1.3851280    -1.5362190     0.0940810
  C       -2.3313710    -0.5151580     0.2215980
  C        2.5704260     0.1676860     0.6054290
  H       -2.6878360     1.6271100     0.2387920
  H       -1.6577150    -2.5857400     0.1384780
  H       -3.3736110    -0.7729470     0.3882060
  H        2.6849170    -0.9163680     0.6377720
  H        2.2243420     0.5379400     1.5755890
  H        3.5186220     0.6362700     0.3424670
  H        0.7214210     2.4415090    -0.3472440
units angstrom
no_reorient  #important for SAPT in psi4, default
symmetry c1  #important for SAPT in psi4, default
}

set PROPERTIES_ORIGIN ["COM"]
properties('MP2/aug-cc-pvtz', properties = ['dipole'])
--------------------------------------------------------------------------

    Molecular point group: c1
  Charge       = 0
  Multiplicity = 1
  Basis Set: AUG-CC-PVTZ
    Blend: AUG-CC-PVTZ
  Basis Set: (AUG-CC-PVTZ AUX)
    Blend: AUG-CC-PVTZ-JKFIT

    Orbital Energies [Eh]
    ---------------------

    Doubly Occupied:

       1A    -26.319094     2A    -20.599677     3A    -20.598109
       4A    -11.341608     5A    -11.325802     6A    -11.301326
       7A    -11.290859     8A    -11.250067     9A    -11.243179
      10A    -11.241531    11A     -1.631262    12A     -1.426995
      13A     -1.395218    14A     -1.155845    15A     -1.036596
      16A     -1.012217    17A     -0.945123    18A     -0.859211
      19A     -0.844336    20A     -0.760297    21A     -0.747157
      22A     -0.714958    23A     -0.701059    24A     -0.677133
      25A     -0.653550    26A     -0.650659    27A     -0.631484
      28A     -0.621335    29A     -0.588986    30A     -0.582743
      31A     -0.555843    32A     -0.539540    33A     -0.508077
      34A     -0.491264    35A     -0.473568    36A     -0.350685
      37A     -0.316035

  @DF-RHF Final Energy:  -518.46738277248801

   => Energetics <=

    Nuclear Repulsion Energy =            527.5586346416881725
    One-Electron Energy =               -1757.2871797063023678
    Two-Electron Energy =                 711.2611622921260732
    Total Energy =                       -518.4673827724880084
  Basis Set: (AUG-CC-PVTZ AUX)
    Blend: AUG-CC-PVTZ-RI
    Molecular point group: c1

    Geometry (in Angstrom), charge = 0, multiplicity = 1:

       Center              X                  Y                   Z               Mass
    ------------   -----------------  -----------------  -----------------  -----------------
         F            0.892138760191    -2.133007252497    -0.252792900063    18.998403162730
         O            1.658242760191     0.572207747503    -0.413613900063    15.994914619570
         O           -0.224798239809     2.486559747503    -0.123760900063    15.994914619570
         C            0.359622760191     0.170387747503    -0.164365900063    12.000000000000
         C           -0.607559239809     1.179572747503    -0.043108900063    12.000000000000
         C           -0.048572239809    -1.161497252497    -0.106374900063    12.000000000000
         C           -2.043543739809     0.827696447503     0.182658499937    12.000000000000
         C           -1.373163239809    -1.512202252497     0.115486099937    12.000000000000
         C           -2.319406239809    -0.491141252497     0.243003099937    12.000000000000
         C            2.582390760191     0.191702747503     0.626834099937    12.000000000000
         H           -2.675871239809     1.651126747503     0.260197099937     1.007825032230
         H           -1.645750239809    -2.561723252497     0.159883099937     1.007825032230
         H           -3.361646239809    -0.748930252497     0.409611099937     1.007825032230
         H            2.696881760191    -0.892351252497     0.659177099937     1.007825032230
         H            2.236306760191     0.561956747503     1.596994099937     1.007825032230
         H            3.530586760191     0.660286747503     0.363872099937     1.007825032230
         H            0.733385760191     2.465525747503    -0.325838900063     1.007825032230

  Basis Set: AUG-CC-PVTZ
    Blend: AUG-CC-PVTZ
  Basis Set: (AUG-CC-PVTZ AUX)
    Blend: AUG-CC-PVTZ-JKFIT
	 Reference Energy          =    -518.4673827724880084 [Eh]
	 Singles Energy            =      -0.0000000000000000 [Eh]
	 Same-Spin Energy          =      -0.5086172625417138 [Eh]
	 Opposite-Spin Energy      =      -1.5389459546562221 [Eh]
	 Correlation Energy        =      -2.0475632171979359 [Eh]
	 Total Energy              =    -520.5149459896859980 [Eh]

	 ================> DF-SCS-MP2 Energies <==================
	-----------------------------------------------------------
	 SCS Same-Spin Scale       =       0.3333333333333333 [-]
	 SCS Opposite-Spin Scale   =       1.2000000000000000 [-]
	 SCS Same-Spin Energy      =      -0.1695390875139046 [Eh]
	 SCS Opposite-Spin Energy  =      -1.8467351455874663 [Eh]
	 SCS Correlation Energy    =      -2.0162742331013708 [Eh]
	 SCS Total Energy          =    -520.4836570055894072 [Eh]
	-----------------------------------------------------------

  Dipole Moment: [D]
     X:     0.6670      Y:    -0.0462      Z:     1.1614     Total:     1.3401

*** Psi4 exiting successfully. Buy a developer a beer!
