                               Psi4 1.4a3.dev225

  ==> Input File <==

--------------------------------------------------------------------------
#psi4
#
memory 32 gb

molecule  {
0 1
  F        0.8801740    -2.1570240    -0.2741980
  O        1.6462780     0.5481910    -0.4350190
  O       -0.2367630     2.4625430    -0.1451660
  C        0.3476580     0.1463710    -0.1857710
  C       -0.6195240     1.1555560    -0.0645140
  C       -0.0605370    -1.1855140    -0.1277800
  C       -1.9594950     0.8272070     0.1461580
  C       -1.3851280    -1.5362190     0.0940810
  C       -2.3313710    -0.5151580     0.2215980
  C        2.5704260     0.1676860     0.6054290
  H       -2.6207557     1.5534388     0.2302604
  H       -1.6577150    -2.5857400     0.1384780
  H       -3.3736110    -0.7729470     0.3882060
  H        2.6849170    -0.9163680     0.6377720
  H        2.2243420     0.5379400     1.5755890
  H        3.5186220     0.6362700     0.3424670
  H        0.7214210     2.4415090    -0.3472440
units angstrom
no_reorient  #important for SAPT in psi4, default
symmetry c1  #important for SAPT in psi4, default
}

set PROPERTIES_ORIGIN ["COM"]
properties('MP2/aug-cc-pvtz', properties = ['dipole'])
--------------------------------------------------------------------------

    Molecular point group: c1
  Charge       = 0
  Multiplicity = 1
  Basis Set: AUG-CC-PVTZ
    Blend: AUG-CC-PVTZ
  Basis Set: (AUG-CC-PVTZ AUX)
    Blend: AUG-CC-PVTZ-JKFIT

    Orbital Energies [Eh]
    ---------------------

    Doubly Occupied:

       1A    -26.318146     2A    -20.598608     3A    -20.595806
       4A    -11.339233     5A    -11.314728     6A    -11.303211
       7A    -11.291234     8A    -11.254558     9A    -11.243454
      10A    -11.228303    11A     -1.630421    12A     -1.426580
      13A     -1.394468    14A     -1.159211    15A     -1.032763
      16A     -1.022869    17A     -0.946835    18A     -0.857632
      19A     -0.851402    20A     -0.759740    21A     -0.747340
      22A     -0.718315    23A     -0.701007    24A     -0.676972
      25A     -0.657258    26A     -0.651945    27A     -0.634861
      28A     -0.621060    29A     -0.589845    30A     -0.576683
      31A     -0.553396    32A     -0.545678    33A     -0.520649
      34A     -0.490415    35A     -0.473212    36A     -0.343268
      37A     -0.324811

  @DF-RHF Final Energy:  -518.47322516783163

   => Energetics <=

    Nuclear Repulsion Energy =            529.5643733893019771
    One-Electron Energy =               -1761.2833616427412835
    Two-Electron Energy =                 713.2457630856077913
    Total Energy =                       -518.4732251678316288
  Basis Set: (AUG-CC-PVTZ AUX)
    Blend: AUG-CC-PVTZ-RI
    Molecular point group: c1

    Geometry (in Angstrom), charge = 0, multiplicity = 1:

       Center              X                  Y                   Z               Mass
    ------------   -----------------  -----------------  -----------------  -----------------
         F            0.883551451136    -2.134472160373    -0.251457085205    18.998403162730
         O            1.649655451136     0.570742839627    -0.412278085205    15.994914619570
         O           -0.233385548864     2.485094839627    -0.122425085205    15.994914619570
         C            0.351035451136     0.168922839627    -0.163030085205    12.000000000000
         C           -0.616146548864     1.178107839627    -0.041773085205    12.000000000000
         C           -0.057159548864    -1.162962160373    -0.105039085205    12.000000000000
         C           -1.956117548864     0.849758839627     0.168898914795    12.000000000000
         C           -1.381750548864    -1.513667160373     0.116821914795    12.000000000000
         C           -2.327993548864    -0.492606160373     0.244338914795    12.000000000000
         C            2.573803451136     0.190237839627     0.628169914795    12.000000000000
         H           -2.617378248864     1.575990639627     0.253001314795     1.007825032230
         H           -1.654337548864    -2.563188160373     0.161218914795     1.007825032230
         H           -3.370233548864    -0.750395160373     0.410946914795     1.007825032230
         H            2.688294451136    -0.893816160373     0.660512914795     1.007825032230
         H            2.227719451136     0.560491839627     1.598329914795     1.007825032230
         H            3.521999451136     0.658821839627     0.365207914795     1.007825032230
         H            0.724798451136     2.464060839627    -0.324503085205     1.007825032230

  Basis Set: AUG-CC-PVTZ
    Blend: AUG-CC-PVTZ
  Basis Set: (AUG-CC-PVTZ AUX)
    Blend: AUG-CC-PVTZ-JKFIT
	 Reference Energy          =    -518.4732251678316288 [Eh]
	 Singles Energy            =      -0.0000000000000000 [Eh]
	 Same-Spin Energy          =      -0.5087396351893074 [Eh]
	 Opposite-Spin Energy      =      -1.5379242420164752 [Eh]
	 Correlation Energy        =      -2.0466638772057824 [Eh]
	 Total Energy              =    -520.5198890450374165 [Eh]

	 ================> DF-SCS-MP2 Energies <==================
	-----------------------------------------------------------
	 SCS Same-Spin Scale       =       0.3333333333333333 [-]
	 SCS Opposite-Spin Scale   =       1.2000000000000000 [-]
	 SCS Same-Spin Energy      =      -0.1695798783964358 [Eh]
	 SCS Opposite-Spin Energy  =      -1.8455090904197702 [Eh]
	 SCS Correlation Energy    =      -2.0150889688162059 [Eh]
	 SCS Total Energy          =    -520.4883141366478867 [Eh]
	-----------------------------------------------------------

  Dipole Moment: [D]
     X:     0.6447      Y:    -0.1626      Z:     1.1687     Total:     1.3446

*** Psi4 exiting successfully. Buy a developer a beer!
