                               Psi4 1.4a3.dev225

  ==> Input File <==

--------------------------------------------------------------------------
#psi4
#
memory 32 gb

molecule  {
0 1
  F        0.8801740    -2.1570240    -0.2741980
  O        1.6462780     0.5481910    -0.4350190
  O       -0.2367630     2.4625430    -0.1451660
  C        0.3476580     0.1463710    -0.1857710
  C       -0.6195240     1.1555560    -0.0645140
  C       -0.0605370    -1.1855140    -0.1277800
  C       -1.9594950     0.8272070     0.1461580
  C       -1.3851280    -1.5362190     0.0940810
  C       -2.3313710    -0.5151580     0.2215980
  C        2.5704260     0.1676860     0.6054290
  H       -2.6878360     1.6271100     0.2387920
  H       -1.6577150    -2.5857400     0.1384780
  H       -3.3736110    -0.7729470     0.3882060
  H        2.6849170    -0.9163680     0.6377720
  H        2.2306657     0.5311747     1.5578621
  H        3.5186220     0.6362700     0.3424670
  H        0.7214210     2.4415090    -0.3472440
units angstrom
no_reorient  #important for SAPT in psi4, default
symmetry c1  #important for SAPT in psi4, default
}

set PROPERTIES_ORIGIN ["COM"]
properties('MP2/aug-cc-pvtz', properties = ['dipole'])
--------------------------------------------------------------------------

    Molecular point group: c1
  Charge       = 0
  Multiplicity = 1
  Basis Set: AUG-CC-PVTZ
    Blend: AUG-CC-PVTZ
  Basis Set: (AUG-CC-PVTZ AUX)
    Blend: AUG-CC-PVTZ-JKFIT

    Orbital Energies [Eh]
    ---------------------

    Doubly Occupied:

       1A    -26.318220     2A    -20.598537     3A    -20.595697
       4A    -11.339317     5A    -11.315341     6A    -11.303686
       7A    -11.288988     8A    -11.255092     9A    -11.243918
      10A    -11.239825    11A     -1.630498    12A     -1.426581
      13A     -1.394414    14A     -1.158933    15A     -1.030225
      16A     -1.021771    17A     -0.948721    18A     -0.853731
      19A     -0.849941    20A     -0.759448    21A     -0.747732
      22A     -0.711687    23A     -0.700299    24A     -0.676815
      25A     -0.654323    26A     -0.646333    27A     -0.635465
      28A     -0.621744    29A     -0.590034    30A     -0.573672
      31A     -0.553955    32A     -0.541624    33A     -0.520106
      34A     -0.490617    35A     -0.473579    36A     -0.343412
      37A     -0.325105

  @DF-RHF Final Energy:  -518.47924574648744

   => Energetics <=

    Nuclear Repulsion Energy =            529.0822741928935784
    One-Electron Energy =               -1760.3642659772790466
    Two-Electron Energy =                 712.8027460378979185
    Total Energy =                       -518.4792457464874360
  Basis Set: (AUG-CC-PVTZ AUX)
    Blend: AUG-CC-PVTZ-RI
    Molecular point group: c1

    Geometry (in Angstrom), charge = 0, multiplicity = 1:

       Center              X                  Y                   Z               Mass
    ------------   -----------------  -----------------  -----------------  -----------------
         F            0.883982532000    -2.134946871813    -0.251391842616    18.998403162730
         O            1.650086532000     0.570268128187    -0.412212842616    15.994914619570
         O           -0.232954468000     2.484620128187    -0.122359842616    15.994914619570
         C            0.351466532000     0.168448128187    -0.162964842616    12.000000000000
         C           -0.615715468000     1.177633128187    -0.041707842616    12.000000000000
         C           -0.056728468000    -1.163436871813    -0.104973842616    12.000000000000
         C           -1.955686468000     0.849284128187     0.168964157384    12.000000000000
         C           -1.381319468000    -1.514141871813     0.116887157384    12.000000000000
         C           -2.327562468000    -0.493080871813     0.244404157384    12.000000000000
         C            2.574234532000     0.189763128187     0.628235157384    12.000000000000
         H           -2.684027468000     1.649187128187     0.261598157384     1.007825032230
         H           -1.653906468000    -2.563662871813     0.161284157384     1.007825032230
         H           -3.369802468000    -0.750869871813     0.411012157384     1.007825032230
         H            2.688725532000    -0.894290871813     0.660578157384     1.007825032230
         H            2.234474232000     0.553251828187     1.580668257384     1.007825032230
         H            3.522430532000     0.658347128187     0.365273157384     1.007825032230
         H            0.725229532000     2.463586128187    -0.324437842616     1.007825032230

  Basis Set: AUG-CC-PVTZ
    Blend: AUG-CC-PVTZ
  Basis Set: (AUG-CC-PVTZ AUX)
    Blend: AUG-CC-PVTZ-JKFIT
	 Reference Energy          =    -518.4792457464874360 [Eh]
	 Singles Energy            =      -0.0000000000000000 [Eh]
	 Same-Spin Energy          =      -0.5088871259904868 [Eh]
	 Opposite-Spin Energy      =      -1.5382067285943588 [Eh]
	 Correlation Energy        =      -2.0470938545848458 [Eh]
	 Total Energy              =    -520.5263396010723227 [Eh]

	 ================> DF-SCS-MP2 Energies <==================
	-----------------------------------------------------------
	 SCS Same-Spin Scale       =       0.3333333333333333 [-]
	 SCS Opposite-Spin Scale   =       1.2000000000000000 [-]
	 SCS Same-Spin Energy      =      -0.1696290419968289 [Eh]
	 SCS Opposite-Spin Energy  =      -1.8458480743132304 [Eh]
	 SCS Correlation Energy    =      -2.0154771163100591 [Eh]
	 SCS Total Energy          =    -520.4947228627975164 [Eh]
	-----------------------------------------------------------

  Dipole Moment: [D]
     X:     0.6526      Y:    -0.1629      Z:     1.1801     Total:     1.3583

*** Psi4 exiting successfully. Buy a developer a beer!
