                               Psi4 1.4a3.dev225

  ==> Input File <==

--------------------------------------------------------------------------
#psi4
#
memory 32 gb

molecule  {
0 1
  F        0.8801740    -2.1570240    -0.2741980
  O        1.6462780     0.5481910    -0.4350190
  O       -0.2367630     2.4625430    -0.1451660
  C        0.3476580     0.1463710    -0.1857710
  C       -0.6456210     1.2493670    -0.0617703
  C       -0.0605370    -1.1855140    -0.1277800
  C       -1.9594950     0.8272070     0.1461580
  C       -1.3851280    -1.5362190     0.0940810
  C       -2.3313710    -0.5151580     0.2215980
  C        2.5704260     0.1676860     0.6054290
  H       -2.6878360     1.6271100     0.2387920
  H       -1.6577150    -2.5857400     0.1384780
  H       -3.3736110    -0.7729470     0.3882060
  H        2.6849170    -0.9163680     0.6377720
  H        2.2243420     0.5379400     1.5755890
  H        3.5186220     0.6362700     0.3424670
  H        0.7214210     2.4415090    -0.3472440
units angstrom
no_reorient  #important for SAPT in psi4, default
symmetry c1  #important for SAPT in psi4, default
}

set PROPERTIES_ORIGIN ["COM"]
properties('MP2/aug-cc-pvtz', properties = ['dipole'])
--------------------------------------------------------------------------

    Molecular point group: c1
  Charge       = 0
  Multiplicity = 1
  Basis Set: AUG-CC-PVTZ
    Blend: AUG-CC-PVTZ
  Basis Set: (AUG-CC-PVTZ AUX)
    Blend: AUG-CC-PVTZ-JKFIT

    Orbital Energies [Eh]
    ---------------------

    Doubly Occupied:

       1A    -26.315279     2A    -20.610853     3A    -20.597819
       4A    -11.335349     5A    -11.325288     6A    -11.305085
       7A    -11.290378     8A    -11.253363     9A    -11.238732
      10A    -11.234120    11A     -1.627495    12A     -1.460038
      13A     -1.405815    14A     -1.148294    15A     -1.025058
      16A     -1.013254    17A     -0.945236    18A     -0.859425
      19A     -0.839411    20A     -0.780967    21A     -0.745748
      22A     -0.709316    23A     -0.697306    24A     -0.684508
      25A     -0.654557    26A     -0.646685    27A     -0.635702
      28A     -0.626659    29A     -0.612782    30A     -0.571990
      31A     -0.555745    32A     -0.534395    33A     -0.510481
      34A     -0.486373    35A     -0.467319    36A     -0.341571
      37A     -0.310415

  @DF-RHF Final Energy:  -518.46773680910610

   => Energetics <=

    Nuclear Repulsion Energy =            528.2339117423264270
    One-Electron Energy =               -1758.5976707902398175
    Two-Electron Energy =                 711.8960222388072907
    Total Energy =                       -518.4677368091060998
  Basis Set: (AUG-CC-PVTZ AUX)
    Blend: AUG-CC-PVTZ-RI
    Molecular point group: c1

    Geometry (in Angstrom), charge = 0, multiplicity = 1:

       Center              X                  Y                   Z               Mass
    ------------   -----------------  -----------------  -----------------  -----------------
         F            0.886232112521    -2.142920162844    -0.251749410472    18.998403162730
         O            1.652336112521     0.562294837156    -0.412570410472    15.994914619570
         O           -0.230704887479     2.476646837156    -0.122717410472    15.994914619570
         C            0.353716112521     0.160474837156    -0.163322410472    12.000000000000
         C           -0.639562887479     1.263470837156    -0.039321710472    12.000000000000
         C           -0.054478887479    -1.171410162844    -0.105331410472    12.000000000000
         C           -1.953436887479     0.841310837156     0.168606589528    12.000000000000
         C           -1.379069887479    -1.522115162844     0.116529589528    12.000000000000
         C           -2.325312887479    -0.501054162844     0.244046589528    12.000000000000
         C            2.576484112521     0.181789837156     0.627877589528    12.000000000000
         H           -2.681777887479     1.641213837156     0.261240589528     1.007825032230
         H           -1.651656887479    -2.571636162844     0.160926589528     1.007825032230
         H           -3.367552887479    -0.758843162844     0.410654589528     1.007825032230
         H            2.690975112521    -0.902264162844     0.660220589528     1.007825032230
         H            2.230400112521     0.552043837156     1.598037589528     1.007825032230
         H            3.524680112521     0.650373837156     0.364915589528     1.007825032230
         H            0.727479112521     2.455612837156    -0.324795410472     1.007825032230

  Basis Set: AUG-CC-PVTZ
    Blend: AUG-CC-PVTZ
  Basis Set: (AUG-CC-PVTZ AUX)
    Blend: AUG-CC-PVTZ-JKFIT
	 Reference Energy          =    -518.4677368091060998 [Eh]
	 Singles Energy            =      -0.0000000000000000 [Eh]
	 Same-Spin Energy          =      -0.5091991588995515 [Eh]
	 Opposite-Spin Energy      =      -1.5382256854053582 [Eh]
	 Correlation Energy        =      -2.0474248443049099 [Eh]
	 Total Energy              =    -520.5151616534110417 [Eh]

	 ================> DF-SCS-MP2 Energies <==================
	-----------------------------------------------------------
	 SCS Same-Spin Scale       =       0.3333333333333333 [-]
	 SCS Opposite-Spin Scale   =       1.2000000000000000 [-]
	 SCS Same-Spin Energy      =      -0.1697330529665171 [Eh]
	 SCS Opposite-Spin Energy  =      -1.8458708224864298 [Eh]
	 SCS Correlation Energy    =      -2.0156038754529471 [Eh]
	 SCS Total Energy          =    -520.4833406845590389 [Eh]
	-----------------------------------------------------------

  Dipole Moment: [D]
     X:     0.8389      Y:     0.3784      Z:     1.1153     Total:     1.4460

*** Psi4 exiting successfully. Buy a developer a beer!
