                               Psi4 1.4a3.dev225

  ==> Input File <==

--------------------------------------------------------------------------
#psi4
#
memory 32 gb

molecule  {
0 1
  F        0.8801740    -2.1570240    -0.2741980
  O        1.6462780     0.5481910    -0.4350190
  O       -0.2367630     2.4625430    -0.1451660
  C        0.3476580     0.1463710    -0.1857710
  C       -0.6195240     1.1555560    -0.0645140
  C       -0.0605370    -1.1855140    -0.1277800
  C       -1.9594950     0.8272070     0.1461580
  C       -1.3851280    -1.5362190     0.0940810
  C       -2.3313710    -0.5151580     0.2215980
  C        2.5704260     0.1676860     0.6054290
  H       -2.6878360     1.6271100     0.2387920
  H       -1.6577150    -2.5857400     0.1384780
  H       -3.3736110    -0.7729470     0.3882060
  H        2.6744187    -0.8169648     0.6348063
  H        2.2243420     0.5379400     1.5755890
  H        3.5186220     0.6362700     0.3424670
  H        0.7214210     2.4415090    -0.3472440
units angstrom
no_reorient  #important for SAPT in psi4, default
symmetry c1  #important for SAPT in psi4, default
}

set PROPERTIES_ORIGIN ["COM"]
properties('MP2/aug-cc-pvtz', properties = ['dipole'])
--------------------------------------------------------------------------

    Molecular point group: c1
  Charge       = 0
  Multiplicity = 1
  Basis Set: AUG-CC-PVTZ
    Blend: AUG-CC-PVTZ
  Basis Set: (AUG-CC-PVTZ AUX)
    Blend: AUG-CC-PVTZ-JKFIT

    Orbital Energies [Eh]
    ---------------------

    Doubly Occupied:

       1A    -26.318403     2A    -20.597577     3A    -20.595441
       4A    -11.339172     5A    -11.315147     6A    -11.303460
       7A    -11.280051     8A    -11.254973     9A    -11.243824
      10A    -11.239692    11A     -1.630557    12A     -1.426239
      13A     -1.394134    14A     -1.158845    15A     -1.031268
      16A     -1.021930    17A     -0.957150    18A     -0.853679
      19A     -0.850903    20A     -0.759651    21A     -0.747431
      22A     -0.713253    23A     -0.700902    24A     -0.676887
      25A     -0.659722    26A     -0.648692    27A     -0.635056
      28A     -0.625168    29A     -0.589647    30A     -0.573493
      31A     -0.555930    32A     -0.541180    33A     -0.520023
      34A     -0.492220    35A     -0.476055    36A     -0.343310
      37A     -0.324929

  @DF-RHF Final Energy:  -518.47326574836745

   => Energetics <=

    Nuclear Repulsion Energy =            529.4168628341021758
    One-Electron Energy =               -1760.9882620189296176
    Two-Electron Energy =                 713.0981334364599888
    Total Energy =                       -518.4732657483674529
  Basis Set: (AUG-CC-PVTZ AUX)
    Blend: AUG-CC-PVTZ-RI
    Molecular point group: c1

    Geometry (in Angstrom), charge = 0, multiplicity = 1:

       Center              X                  Y                   Z               Mass
    ------------   -----------------  -----------------  -----------------  -----------------
         F            0.884101887630    -2.135700159664    -0.251496576437    18.998403162730
         O            1.650205887630     0.569514840336    -0.412317576437    15.994914619570
         O           -0.232835112370     2.483866840336    -0.122464576437    15.994914619570
         C            0.351585887630     0.167694840336    -0.163069576437    12.000000000000
         C           -0.615596112370     1.176879840336    -0.041812576437    12.000000000000
         C           -0.056609112370    -1.164190159664    -0.105078576437    12.000000000000
         C           -1.955567112370     0.848530840336     0.168859423563    12.000000000000
         C           -1.381200112370    -1.514895159664     0.116782423563    12.000000000000
         C           -2.327443112370    -0.493834159664     0.244299423563    12.000000000000
         C            2.574353887630     0.189009840336     0.628130423563    12.000000000000
         H           -2.683908112370     1.648433840336     0.261493423563     1.007825032230
         H           -1.653787112370    -2.564416159664     0.161179423563     1.007825032230
         H           -3.369683112370    -0.751623159664     0.410907423563     1.007825032230
         H            2.678346587630    -0.795640959664     0.657507723563     1.007825032230
         H            2.228269887630     0.559263840336     1.598290423563     1.007825032230
         H            3.522549887630     0.657593840336     0.365168423563     1.007825032230
         H            0.725348887630     2.462832840336    -0.324542576437     1.007825032230

  Basis Set: AUG-CC-PVTZ
    Blend: AUG-CC-PVTZ
  Basis Set: (AUG-CC-PVTZ AUX)
    Blend: AUG-CC-PVTZ-JKFIT
	 Reference Energy          =    -518.4732657483674529 [Eh]
	 Singles Energy            =      -0.0000000000000000 [Eh]
	 Same-Spin Energy          =      -0.5087526365735991 [Eh]
	 Opposite-Spin Energy      =      -1.5376919500475903 [Eh]
	 Correlation Energy        =      -2.0464445866211896 [Eh]
	 Total Energy              =    -520.5197103349886447 [Eh]

	 ================> DF-SCS-MP2 Energies <==================
	-----------------------------------------------------------
	 SCS Same-Spin Scale       =       0.3333333333333333 [-]
	 SCS Opposite-Spin Scale   =       1.2000000000000000 [-]
	 SCS Same-Spin Energy      =      -0.1695842121911997 [Eh]
	 SCS Opposite-Spin Energy  =      -1.8452303400571082 [Eh]
	 SCS Correlation Energy    =      -2.0148145522483079 [Eh]
	 SCS Total Energy          =    -520.4880803006157066 [Eh]
	-----------------------------------------------------------

  Dipole Moment: [D]
     X:     0.6835      Y:    -0.1854      Z:     1.1866     Total:     1.3819

*** Psi4 exiting successfully. Buy a developer a beer!
