                               Psi4 1.4a3.dev225

  ==> Input File <==

--------------------------------------------------------------------------
#psi4
#
memory 32 gb

molecule  {
0 1
  F        0.8801740    -2.1570240    -0.2741980
  O        1.6462780     0.5481910    -0.4350190
  O       -0.2367630     2.4625430    -0.1451660
  C        0.3476580     0.1463710    -0.1857710
  C       -0.6195240     1.1555560    -0.0645140
  C       -0.0605370    -1.1855140    -0.1277800
  C       -1.9594950     0.8272070     0.1461580
  C       -1.3851280    -1.5362190     0.0940810
  C       -2.3313710    -0.5151580     0.2215980
  C        2.5704260     0.1676860     0.6054290
  H       -2.6878360     1.6271100     0.2387920
  H       -1.6577150    -2.5857400     0.1384780
  H       -3.3736110    -0.7729470     0.3882060
  H        2.6849170    -0.9163680     0.6377720
  H        2.2243420     0.5379400     1.5755890
  H        3.5186220     0.6362700     0.3424670
  H        0.6725085     2.4425827    -0.3369285
units angstrom
no_reorient  #important for SAPT in psi4, default
symmetry c1  #important for SAPT in psi4, default
}

set PROPERTIES_ORIGIN ["COM"]
properties('MP2/aug-cc-pvtz', properties = ['dipole'])
--------------------------------------------------------------------------

    Molecular point group: c1
  Charge       = 0
  Multiplicity = 1
  Basis Set: AUG-CC-PVTZ
    Blend: AUG-CC-PVTZ
  Basis Set: (AUG-CC-PVTZ AUX)
    Blend: AUG-CC-PVTZ-JKFIT

    Orbital Energies [Eh]
    ---------------------

    Doubly Occupied:

       1A    -26.318433     2A    -20.598151     3A    -20.592668
       4A    -11.339577     5A    -11.315961     6A    -11.304263
       7A    -11.290964     8A    -11.255397     9A    -11.244437
      10A    -11.240373    11A     -1.630693    12A     -1.432672
      13A     -1.399843    14A     -1.159919    15A     -1.030298
      16A     -1.023778    17A     -0.947019    18A     -0.856283
      19A     -0.850760    20A     -0.766408    21A     -0.747859
      22A     -0.711271    23A     -0.700315    24A     -0.679758
      25A     -0.653580    26A     -0.646655    27A     -0.635910
      28A     -0.622156    29A     -0.592038    30A     -0.576497
      31A     -0.553945    32A     -0.541872    33A     -0.520200
      34A     -0.491174    35A     -0.472837    36A     -0.343692
      37A     -0.325966

  @DF-RHF Final Energy:  -518.48011884274058

   => Energetics <=

    Nuclear Repulsion Energy =            529.2580945559764132
    One-Electron Energy =               -1760.6491810868562879
    Two-Electron Energy =                 712.9109676881392943
    Total Energy =                       -518.4801188427405805
  Basis Set: (AUG-CC-PVTZ AUX)
    Blend: AUG-CC-PVTZ-RI
    Molecular point group: c1

    Geometry (in Angstrom), charge = 0, multiplicity = 1:

       Center              X                  Y                   Z               Mass
    ------------   -----------------  -----------------  -----------------  -----------------
         F            0.884374444463    -2.135002491168    -0.251590809346    18.998403162730
         O            1.650478444463     0.570212508832    -0.412411809346    15.994914619570
         O           -0.232562555537     2.484564508832    -0.122558809346    15.994914619570
         C            0.351858444463     0.168392508832    -0.163163809346    12.000000000000
         C           -0.615323555537     1.177577508832    -0.041906809346    12.000000000000
         C           -0.056336555537    -1.163492491168    -0.105172809346    12.000000000000
         C           -1.955294555537     0.849228508832     0.168765190654    12.000000000000
         C           -1.380927555537    -1.514197491168     0.116688190654    12.000000000000
         C           -2.327170555537    -0.493136491168     0.244205190654    12.000000000000
         C            2.574626444463     0.189707508832     0.628036190654    12.000000000000
         H           -2.683635555537     1.649131508832     0.261399190654     1.007825032230
         H           -1.653514555537    -2.563718491168     0.161085190654     1.007825032230
         H           -3.369410555537    -0.750925491168     0.410813190654     1.007825032230
         H            2.689117444463    -0.894346491168     0.660379190654     1.007825032230
         H            2.228542444463     0.559961508832     1.598196190654     1.007825032230
         H            3.522822444463     0.658291508832     0.365074190654     1.007825032230
         H            0.676708944463     2.464604208832    -0.314321309346     1.007825032230

  Basis Set: AUG-CC-PVTZ
    Blend: AUG-CC-PVTZ
  Basis Set: (AUG-CC-PVTZ AUX)
    Blend: AUG-CC-PVTZ-JKFIT
	 Reference Energy          =    -518.4801188427405805 [Eh]
	 Singles Energy            =      -0.0000000000000000 [Eh]
	 Same-Spin Energy          =      -0.5081603261637522 [Eh]
	 Opposite-Spin Energy      =      -1.5367519710660211 [Eh]
	 Correlation Energy        =      -2.0449122972297733 [Eh]
	 Total Energy              =    -520.5250311399703378 [Eh]

	 ================> DF-SCS-MP2 Energies <==================
	-----------------------------------------------------------
	 SCS Same-Spin Scale       =       0.3333333333333333 [-]
	 SCS Opposite-Spin Scale   =       1.2000000000000000 [-]
	 SCS Same-Spin Energy      =      -0.1693867753879174 [Eh]
	 SCS Opposite-Spin Energy  =      -1.8441023652792252 [Eh]
	 SCS Correlation Energy    =      -2.0134891406671427 [Eh]
	 SCS Total Energy          =    -520.4936079834077418 [Eh]
	-----------------------------------------------------------

  Dipole Moment: [D]
     X:     0.5776      Y:    -0.1794      Z:     1.1800     Total:     1.3260

*** Psi4 exiting successfully. Buy a developer a beer!
