                               Psi4 1.4a3.dev225

  ==> Input File <==

--------------------------------------------------------------------------
#psi4
#
memory 32 gb

molecule  {
0 1
  F        0.8801740    -2.1570240    -0.2741980
  O        1.6496381     0.5723721    -0.4288555
  O       -0.2367630     2.4625430    -0.1451660
  C        0.3476580     0.1463710    -0.1857710
  C       -0.6195240     1.1555560    -0.0645140
  C       -0.0605370    -1.1855140    -0.1277800
  C       -1.9594950     0.8272070     0.1461580
  C       -1.3851280    -1.5362190     0.0940810
  C       -2.3313710    -0.5151580     0.2215980
  C        2.5704260     0.1676860     0.6054290
  H       -2.6878360     1.6271100     0.2387920
  H       -1.6577150    -2.5857400     0.1384780
  H       -3.3736110    -0.7729470     0.3882060
  H        2.6849170    -0.9163680     0.6377720
  H        2.2243420     0.5379400     1.5755890
  H        3.5186220     0.6362700     0.3424670
  H        0.7214210     2.4415090    -0.3472440
units angstrom
no_reorient  #important for SAPT in psi4, default
symmetry c1  #important for SAPT in psi4, default
}

set PROPERTIES_ORIGIN ["COM"]
properties('MP2/aug-cc-pvtz', properties = ['dipole'])
--------------------------------------------------------------------------

    Molecular point group: c1
  Charge       = 0
  Multiplicity = 1
  Basis Set: AUG-CC-PVTZ
    Blend: AUG-CC-PVTZ
  Basis Set: (AUG-CC-PVTZ AUX)
    Blend: AUG-CC-PVTZ-JKFIT

    Orbital Energies [Eh]
    ---------------------

    Doubly Occupied:

       1A    -26.318672     2A    -20.599711     3A    -20.595257
       4A    -11.340490     5A    -11.315551     6A    -11.304437
       7A    -11.290966     8A    -11.255517     9A    -11.244373
      10A    -11.239946    11A     -1.630978    12A     -1.425478
      13A     -1.392832    14A     -1.159413    15A     -1.030088
      16A     -1.021979    17A     -0.946500    18A     -0.853720
      19A     -0.849873    20A     -0.759292    21A     -0.747494
      22A     -0.710623    23A     -0.700189    24A     -0.677205
      25A     -0.653724    26A     -0.646616    27A     -0.635258
      28A     -0.619353    29A     -0.589551    30A     -0.573690
      31A     -0.554216    32A     -0.540424    33A     -0.518699
      34A     -0.491678    35A     -0.473959    36A     -0.344106
      37A     -0.325378

  @DF-RHF Final Energy:  -518.47840455237895

   => Energetics <=

    Nuclear Repulsion Energy =            528.7450977040418820
    One-Electron Energy =               -1759.6925304605135807
    Two-Electron Energy =                 712.4690282040927514
    Total Energy =                       -518.4784045523789473
  Basis Set: (AUG-CC-PVTZ AUX)
    Blend: AUG-CC-PVTZ-RI
    Molecular point group: c1

    Geometry (in Angstrom), charge = 0, multiplicity = 1:

       Center              X                  Y                   Z               Mass
    ------------   -----------------  -----------------  -----------------  -----------------
         F            0.883649032095    -2.137717813341    -0.252211666639    18.998403162730
         O            1.653113132095     0.591678286659    -0.406869166639    15.994914619570
         O           -0.233287967905     2.481849186659    -0.123179666639    15.994914619570
         C            0.351133032095     0.165677186659    -0.163784666639    12.000000000000
         C           -0.616048967905     1.174862186659    -0.042527666639    12.000000000000
         C           -0.057061967905    -1.166207813341    -0.105793666639    12.000000000000
         C           -1.956019967905     0.846513186659     0.168144333361    12.000000000000
         C           -1.381652967905    -1.516912813341     0.116067333361    12.000000000000
         C           -2.327895967905    -0.495851813341     0.243584333361    12.000000000000
         C            2.573901032095     0.186992186659     0.627415333361    12.000000000000
         H           -2.684360967905     1.646416186659     0.260778333361     1.007825032230
         H           -1.654239967905    -2.566433813341     0.160464333361     1.007825032230
         H           -3.370135967905    -0.753640813341     0.410192333361     1.007825032230
         H            2.688392032095    -0.897061813341     0.659758333361     1.007825032230
         H            2.227817032095     0.557246186659     1.597575333361     1.007825032230
         H            3.522097032095     0.655576186659     0.364453333361     1.007825032230
         H            0.724896032095     2.460815186659    -0.325257666639     1.007825032230

  Basis Set: AUG-CC-PVTZ
    Blend: AUG-CC-PVTZ
  Basis Set: (AUG-CC-PVTZ AUX)
    Blend: AUG-CC-PVTZ-JKFIT
	 Reference Energy          =    -518.4784045523789473 [Eh]
	 Singles Energy            =      -0.0000000000000000 [Eh]
	 Same-Spin Energy          =      -0.5089928434336395 [Eh]
	 Opposite-Spin Energy      =      -1.5386562782640651 [Eh]
	 Correlation Energy        =      -2.0476491216977046 [Eh]
	 Total Energy              =    -520.5260536740767066 [Eh]

	 ================> DF-SCS-MP2 Energies <==================
	-----------------------------------------------------------
	 SCS Same-Spin Scale       =       0.3333333333333333 [-]
	 SCS Opposite-Spin Scale   =       1.2000000000000000 [-]
	 SCS Same-Spin Energy      =      -0.1696642811445465 [Eh]
	 SCS Opposite-Spin Energy  =      -1.8463875339168780 [Eh]
	 SCS Correlation Energy    =      -2.0160518150614246 [Eh]
	 SCS Total Energy          =    -520.4944563674404208 [Eh]
	-----------------------------------------------------------

  Dipole Moment: [D]
     X:     0.6234      Y:    -0.2091      Z:     1.1593     Total:     1.3328

*** Psi4 exiting successfully. Buy a developer a beer!
