                               Psi4 1.4a3.dev225

  ==> Input File <==

--------------------------------------------------------------------------
#psi4
#
memory 32 gb

molecule  {
0 1
  F        0.8801740    -2.1570240    -0.2741980
  O        1.6392729     0.5712041    -0.4332493
  O       -0.2367630     2.4625430    -0.1451660
  C        0.3476580     0.1463710    -0.1857710
  C       -0.6195240     1.1555560    -0.0645140
  C       -0.0605370    -1.1855140    -0.1277800
  C       -1.9594950     0.8272070     0.1461580
  C       -1.3851280    -1.5362190     0.0940810
  C       -2.3313710    -0.5151580     0.2215980
  C        2.5704260     0.1676860     0.6054290
  H       -2.6878360     1.6271100     0.2387920
  H       -1.6577150    -2.5857400     0.1384780
  H       -3.3736110    -0.7729470     0.3882060
  H        2.6849170    -0.9163680     0.6377720
  H        2.2243420     0.5379400     1.5755890
  H        3.5186220     0.6362700     0.3424670
  H        0.7214210     2.4415090    -0.3472440
units angstrom
no_reorient  #important for SAPT in psi4, default
symmetry c1  #important for SAPT in psi4, default
}

set PROPERTIES_ORIGIN ["COM"]
properties('MP2/aug-cc-pvtz', properties = ['dipole'])
--------------------------------------------------------------------------

    Molecular point group: c1
  Charge       = 0
  Multiplicity = 1
  Basis Set: AUG-CC-PVTZ
    Blend: AUG-CC-PVTZ
  Basis Set: (AUG-CC-PVTZ AUX)
    Blend: AUG-CC-PVTZ-JKFIT

    Orbital Energies [Eh]
    ---------------------

    Doubly Occupied:

       1A    -26.318315     2A    -20.599817     3A    -20.594827
       4A    -11.339549     5A    -11.314553     6A    -11.303556
       7A    -11.292698     8A    -11.254774     9A    -11.243887
      10A    -11.239410    11A     -1.630645    12A     -1.426084
      13A     -1.392750    14A     -1.158609    15A     -1.029323
      16A     -1.021434    17A     -0.947767    18A     -0.853423
      19A     -0.849456    20A     -0.759096    21A     -0.747337
      22A     -0.710665    23A     -0.700107    24A     -0.676769
      25A     -0.653614    26A     -0.646289    27A     -0.634795
      28A     -0.618849    29A     -0.589070    30A     -0.573222
      31A     -0.554411    32A     -0.540608    33A     -0.520062
      34A     -0.491371    35A     -0.474458    36A     -0.343175
      37A     -0.324536

  @DF-RHF Final Energy:  -518.47845601815379

   => Energetics <=

    Nuclear Repulsion Energy =            528.9008674664748924
    One-Electron Energy =               -1760.0200289731074008
    Two-Electron Energy =                 712.6407054884787158
    Total Energy =                       -518.4784560181537927
  Basis Set: (AUG-CC-PVTZ AUX)
    Blend: AUG-CC-PVTZ-RI
    Molecular point group: c1

    Geometry (in Angstrom), charge = 0, multiplicity = 1:

       Center              X                  Y                   Z               Mass
    ------------   -----------------  -----------------  -----------------  -----------------
         F            0.884816217244    -2.137586289371    -0.251716897786    18.998403162730
         O            1.643915117244     0.590641810629    -0.410768197786    15.994914619570
         O           -0.232120782756     2.481980710629    -0.122684897786    15.994914619570
         C            0.352300217244     0.165808710629    -0.163289897786    12.000000000000
         C           -0.614881782756     1.174993710629    -0.042032897786    12.000000000000
         C           -0.055894782756    -1.166076289371    -0.105298897786    12.000000000000
         C           -1.954852782756     0.846644710629     0.168639102214    12.000000000000
         C           -1.380485782756    -1.516781289371     0.116562102214    12.000000000000
         C           -2.326728782756    -0.495720289371     0.244079102214    12.000000000000
         C            2.575068217244     0.187123710629     0.627910102214    12.000000000000
         H           -2.683193782756     1.646547710629     0.261273102214     1.007825032230
         H           -1.653072782756    -2.566302289371     0.160959102214     1.007825032230
         H           -3.368968782756    -0.753509289371     0.410687102214     1.007825032230
         H            2.689559217244    -0.896930289371     0.660253102214     1.007825032230
         H            2.228984217244     0.557377710629     1.598070102214     1.007825032230
         H            3.523264217244     0.655707710629     0.364948102214     1.007825032230
         H            0.726063217244     2.460946710629    -0.324762897786     1.007825032230

  Basis Set: AUG-CC-PVTZ
    Blend: AUG-CC-PVTZ
  Basis Set: (AUG-CC-PVTZ AUX)
    Blend: AUG-CC-PVTZ-JKFIT
	 Reference Energy          =    -518.4784560181537927 [Eh]
	 Singles Energy            =      -0.0000000000000000 [Eh]
	 Same-Spin Energy          =      -0.5090428326651708 [Eh]
	 Opposite-Spin Energy      =      -1.5386834540720067 [Eh]
	 Correlation Energy        =      -2.0477262867371775 [Eh]
	 Total Energy              =    -520.5261823048909946 [Eh]

	 ================> DF-SCS-MP2 Energies <==================
	-----------------------------------------------------------
	 SCS Same-Spin Scale       =       0.3333333333333333 [-]
	 SCS Opposite-Spin Scale   =       1.2000000000000000 [-]
	 SCS Same-Spin Energy      =      -0.1696809442217236 [Eh]
	 SCS Opposite-Spin Energy  =      -1.8464201448864079 [Eh]
	 SCS Correlation Energy    =      -2.0161010891081315 [Eh]
	 SCS Total Energy          =    -520.4945571072619259 [Eh]
	-----------------------------------------------------------

  Dipole Moment: [D]
     X:     0.6991      Y:    -0.2042      Z:     1.1762     Total:     1.3834

*** Psi4 exiting successfully. Buy a developer a beer!
