                               Psi4 1.4a3.dev225

  ==> Input File <==

--------------------------------------------------------------------------
#psi4
#
memory 32 gb

molecule  {
0 1
  F        0.8801740    -2.1570240    -0.2741980
  O        1.6462780     0.5481910    -0.4350190
  O       -0.2367630     2.4625430    -0.1451660
  C        0.3476580     0.1463710    -0.1857710
  C       -0.6195240     1.1555560    -0.0645140
  C       -0.0605370    -1.1855140    -0.1277800
  C       -1.9594950     0.8272070     0.1461580
  C       -1.3851280    -1.5362190     0.0940810
  C       -2.3313710    -0.5151580     0.2215980
  C        2.5704260     0.1676860     0.6054290
  H       -2.7549163     1.7007812     0.2473236
  H       -1.6577150    -2.5857400     0.1384780
  H       -3.3736110    -0.7729470     0.3882060
  H        2.6849170    -0.9163680     0.6377720
  H        2.2243420     0.5379400     1.5755890
  H        3.5186220     0.6362700     0.3424670
  H        0.7214210     2.4415090    -0.3472440
units angstrom
no_reorient  #important for SAPT in psi4, default
symmetry c1  #important for SAPT in psi4, default
}

set PROPERTIES_ORIGIN ["COM"]
properties('MP2/aug-cc-pvtz', properties = ['dipole'])
--------------------------------------------------------------------------

    Molecular point group: c1
  Charge       = 0
  Multiplicity = 1
  Basis Set: AUG-CC-PVTZ
    Blend: AUG-CC-PVTZ
  Basis Set: (AUG-CC-PVTZ AUX)
    Blend: AUG-CC-PVTZ-JKFIT

    Orbital Energies [Eh]
    ---------------------

    Doubly Occupied:

       1A    -26.318541     2A    -20.599244     3A    -20.595716
       4A    -11.339675     5A    -11.316322     6A    -11.304420
       7A    -11.291603     8A    -11.255986     9A    -11.250608
      10A    -11.244582    11A     -1.630816    12A     -1.426883
      13A     -1.394626    14A     -1.159126    15A     -1.029158
      16A     -1.020574    17A     -0.947388    18A     -0.853391
      19A     -0.846490    20A     -0.759532    21A     -0.747772
      22A     -0.707844    23A     -0.699088    24A     -0.677036
      25A     -0.653636    26A     -0.637624    27A     -0.635599
      28A     -0.621443    29A     -0.589958    30A     -0.571049
      31A     -0.554344    32A     -0.534822    33A     -0.517151
      34A     -0.490951    35A     -0.473037    36A     -0.343879
      37A     -0.325640

  @DF-RHF Final Energy:  -518.47173108484503

   => Energetics <=

    Nuclear Repulsion Energy =            528.4875196700838842
    One-Electron Energy =               -1759.1873910007641371
    Two-Electron Energy =                 712.2281402458352204
    Total Energy =                       -518.4717310848450325
  Basis Set: (AUG-CC-PVTZ AUX)
    Blend: AUG-CC-PVTZ-RI
    Molecular point group: c1

    Geometry (in Angstrom), charge = 0, multiplicity = 1:

       Center              X                  Y                   Z               Mass
    ------------   -----------------  -----------------  -----------------  -----------------
         F            0.884503348828    -2.135517585709    -0.251578152200    18.998403162730
         O            1.650607348828     0.569697414291    -0.412399152200    15.994914619570
         O           -0.232433651172     2.484049414291    -0.122546152200    15.994914619570
         C            0.351987348828     0.167877414291    -0.163151152200    12.000000000000
         C           -0.615194651172     1.177062414291    -0.041894152200    12.000000000000
         C           -0.056207651172    -1.164007585709    -0.105160152200    12.000000000000
         C           -1.955165651172     0.848713414291     0.168777847800    12.000000000000
         C           -1.380798651172    -1.514712585709     0.116700847800    12.000000000000
         C           -2.327041651172    -0.493651585709     0.244217847800    12.000000000000
         C            2.574755348828     0.189192414291     0.628048847800    12.000000000000
         H           -2.750586951172     1.722287614291     0.269943447800     1.007825032230
         H           -1.653385651172    -2.564233585709     0.161097847800     1.007825032230
         H           -3.369281651172    -0.751440585709     0.410825847800     1.007825032230
         H            2.689246348828    -0.894861585709     0.660391847800     1.007825032230
         H            2.228671348828     0.559446414291     1.598208847800     1.007825032230
         H            3.522951348828     0.657776414291     0.365086847800     1.007825032230
         H            0.725750348828     2.463015414291    -0.324624152200     1.007825032230

  Basis Set: AUG-CC-PVTZ
    Blend: AUG-CC-PVTZ
  Basis Set: (AUG-CC-PVTZ AUX)
    Blend: AUG-CC-PVTZ-JKFIT
	 Reference Energy          =    -518.4717310848450325 [Eh]
	 Singles Energy            =      -0.0000000000000000 [Eh]
	 Same-Spin Energy          =      -0.5091414025029407 [Eh]
	 Opposite-Spin Energy      =      -1.5392009001629405 [Eh]
	 Correlation Energy        =      -2.0483423026658811 [Eh]
	 Total Energy              =    -520.5200733875109336 [Eh]

	 ================> DF-SCS-MP2 Energies <==================
	-----------------------------------------------------------
	 SCS Same-Spin Scale       =       0.3333333333333333 [-]
	 SCS Opposite-Spin Scale   =       1.2000000000000000 [-]
	 SCS Same-Spin Energy      =      -0.1697138008343136 [Eh]
	 SCS Opposite-Spin Energy  =      -1.8470410801955286 [Eh]
	 SCS Correlation Energy    =      -2.0167548810298421 [Eh]
	 SCS Total Energy          =    -520.4884859658749292 [Eh]
	-----------------------------------------------------------

  Dipole Moment: [D]
     X:     0.6616      Y:    -0.1779      Z:     1.1684     Total:     1.3545

*** Psi4 exiting successfully. Buy a developer a beer!
