                               Psi4 1.4a3.dev225

  ==> Input File <==

--------------------------------------------------------------------------
#psi4
#
memory 32 gb

molecule  {
0 1
  F        0.8801740    -2.1570240    -0.2741980
  O        1.6462780     0.5481910    -0.4350190
  O       -0.2367630     2.4625430    -0.1451660
  C        0.3476580     0.1463710    -0.1857710
  C       -0.6195240     1.1555560    -0.0645140
  C       -0.0392458    -1.2800253    -0.1289068
  C       -1.9594950     0.8272070     0.1461580
  C       -1.3851280    -1.5362190     0.0940810
  C       -2.3313710    -0.5151580     0.2215980
  C        2.5704260     0.1676860     0.6054290
  H       -2.6878360     1.6271100     0.2387920
  H       -1.6577150    -2.5857400     0.1384780
  H       -3.3736110    -0.7729470     0.3882060
  H        2.6849170    -0.9163680     0.6377720
  H        2.2243420     0.5379400     1.5755890
  H        3.5186220     0.6362700     0.3424670
  H        0.7214210     2.4415090    -0.3472440
units angstrom
no_reorient  #important for SAPT in psi4, default
symmetry c1  #important for SAPT in psi4, default
}

set PROPERTIES_ORIGIN ["COM"]
properties('MP2/aug-cc-pvtz', properties = ['dipole'])
--------------------------------------------------------------------------

    Molecular point group: c1
  Charge       = 0
  Multiplicity = 1
  Basis Set: AUG-CC-PVTZ
    Blend: AUG-CC-PVTZ
  Basis Set: (AUG-CC-PVTZ AUX)
    Blend: AUG-CC-PVTZ-JKFIT

    Orbital Energies [Eh]
    ---------------------

    Doubly Occupied:

       1A    -26.342498     2A    -20.595580     3A    -20.591934
       4A    -11.347530     5A    -11.310711     6A    -11.303934
       7A    -11.290827     8A    -11.252903     9A    -11.240913
      10A    -11.237867    11A     -1.683679    12A     -1.422803
      13A     -1.390985    14A     -1.147499    15A     -1.023001
      16A     -1.017391    17A     -0.944011    18A     -0.864393
      19A     -0.849694    20A     -0.769698    21A     -0.762360
      22A     -0.736338    23A     -0.713900    24A     -0.683010
      25A     -0.652544    26A     -0.650714    27A     -0.629173
      28A     -0.616728    29A     -0.586315    30A     -0.571742
      31A     -0.550131    32A     -0.535166    33A     -0.515433
      34A     -0.481935    35A     -0.466450    36A     -0.331260
      37A     -0.321882

  @DF-RHF Final Energy:  -518.46882960472021

   => Energetics <=

    Nuclear Repulsion Energy =            528.4099549679003758
    One-Electron Energy =               -1758.8917057714686507
    Two-Electron Energy =                 712.0129211988480620
    Total Energy =                       -518.4688296047202130
  Basis Set: (AUG-CC-PVTZ AUX)
    Blend: AUG-CC-PVTZ-RI
    Molecular point group: c1

    Geometry (in Angstrom), charge = 0, multiplicity = 1:

       Center              X                  Y                   Z               Mass
    ------------   -----------------  -----------------  -----------------  -----------------
         F            0.882228688421    -2.127010420874    -0.251422424999    18.998403162730
         O            1.648332688421     0.578204579126    -0.412243424999    15.994914619570
         O           -0.234708311579     2.492556579126    -0.122390424999    15.994914619570
         C            0.349712688421     0.176384579126    -0.162995424999    12.000000000000
         C           -0.617469311579     1.185569579126    -0.041738424999    12.000000000000
         C           -0.037191111579    -1.250011720874    -0.106131224999    12.000000000000
         C           -1.957440311579     0.857220579126     0.168933575001    12.000000000000
         C           -1.383073311579    -1.506205420874     0.116856575001    12.000000000000
         C           -2.329316311579    -0.485144420874     0.244373575001    12.000000000000
         C            2.572480688421     0.197699579126     0.628204575001    12.000000000000
         H           -2.685781311579     1.657123579126     0.261567575001     1.007825032230
         H           -1.655660311579    -2.555726420874     0.161253575001     1.007825032230
         H           -3.371556311579    -0.742933420874     0.410981575001     1.007825032230
         H            2.686971688421    -0.886354420874     0.660547575001     1.007825032230
         H            2.226396688421     0.567953579126     1.598364575001     1.007825032230
         H            3.520676688421     0.666283579126     0.365242575001     1.007825032230
         H            0.723475688421     2.471522579126    -0.324468424999     1.007825032230

  Basis Set: AUG-CC-PVTZ
    Blend: AUG-CC-PVTZ
  Basis Set: (AUG-CC-PVTZ AUX)
    Blend: AUG-CC-PVTZ-JKFIT
	 Reference Energy          =    -518.4688296047202130 [Eh]
	 Singles Energy            =      -0.0000000000000000 [Eh]
	 Same-Spin Energy          =      -0.5090066967961787 [Eh]
	 Opposite-Spin Energy      =      -1.5378751453680986 [Eh]
	 Correlation Energy        =      -2.0468818421642774 [Eh]
	 Total Energy              =    -520.5157114468844384 [Eh]

	 ================> DF-SCS-MP2 Energies <==================
	-----------------------------------------------------------
	 SCS Same-Spin Scale       =       0.3333333333333333 [-]
	 SCS Opposite-Spin Scale   =       1.2000000000000000 [-]
	 SCS Same-Spin Energy      =      -0.1696688989320596 [Eh]
	 SCS Opposite-Spin Energy  =      -1.8454501744417182 [Eh]
	 SCS Correlation Energy    =      -2.0151190733737776 [Eh]
	 SCS Total Energy          =    -520.4839486780939524 [Eh]
	-----------------------------------------------------------

  Dipole Moment: [D]
     X:     0.9486      Y:    -0.5807      Z:     1.1032     Total:     1.5665

*** Psi4 exiting successfully. Buy a developer a beer!
