                               Psi4 1.4a3.dev225

  ==> Input File <==

--------------------------------------------------------------------------
#psi4
#
memory 32 gb

molecule  {
0 1
  F        0.8801740    -2.1570240    -0.2741980
  O        1.6462780     0.5481910    -0.4350190
  O       -0.2367630     2.4625430    -0.1451660
  C        0.3476580     0.1463710    -0.1857710
  C       -0.6195240     1.1555560    -0.0645140
  C       -0.0605370    -1.1855140    -0.1277800
  C       -2.0530637     0.8503693     0.1598975
  C       -1.3851280    -1.5362190     0.0940810
  C       -2.3313710    -0.5151580     0.2215980
  C        2.5704260     0.1676860     0.6054290
  H       -2.6878360     1.6271100     0.2387920
  H       -1.6577150    -2.5857400     0.1384780
  H       -3.3736110    -0.7729470     0.3882060
  H        2.6849170    -0.9163680     0.6377720
  H        2.2243420     0.5379400     1.5755890
  H        3.5186220     0.6362700     0.3424670
  H        0.7214210     2.4415090    -0.3472440
units angstrom
no_reorient  #important for SAPT in psi4, default
symmetry c1  #important for SAPT in psi4, default
}

set PROPERTIES_ORIGIN ["COM"]
properties('MP2/aug-cc-pvtz', properties = ['dipole'])
--------------------------------------------------------------------------

    Molecular point group: c1
  Charge       = 0
  Multiplicity = 1
  Basis Set: AUG-CC-PVTZ
    Blend: AUG-CC-PVTZ
  Basis Set: (AUG-CC-PVTZ AUX)
    Blend: AUG-CC-PVTZ-JKFIT

    Orbital Energies [Eh]
    ---------------------

    Doubly Occupied:

       1A    -26.319801     2A    -20.598736     3A    -20.597717
       4A    -11.342454     5A    -11.325269     6A    -11.302393
       7A    -11.291178     8A    -11.256168     9A    -11.243532
      10A    -11.242756    11A     -1.631944    12A     -1.426879
      13A     -1.394958    14A     -1.152382    15A     -1.032202
      16A     -1.014124    17A     -0.945265    18A     -0.859190
      19A     -0.846274    20A     -0.759657    21A     -0.747149
      22A     -0.718865    23A     -0.701952    24A     -0.676407
      25A     -0.654247    26A     -0.651663    27A     -0.631001
      28A     -0.620213    29A     -0.588126    30A     -0.582634
      31A     -0.554369    32A     -0.542036    33A     -0.511624
      34A     -0.489154    35A     -0.473244    36A     -0.345373
      37A     -0.318316

  @DF-RHF Final Energy:  -518.46585235083830

   => Energetics <=

    Nuclear Repulsion Energy =            527.1120382711284265
    One-Electron Energy =               -1756.3772743941801764
    Two-Electron Energy =                 710.7993837722133321
    Total Energy =                       -518.4658523508383041
  Basis Set: (AUG-CC-PVTZ AUX)
    Blend: AUG-CC-PVTZ-RI
    Molecular point group: c1

    Geometry (in Angstrom), charge = 0, multiplicity = 1:

       Center              X                  Y                   Z               Mass
    ------------   -----------------  -----------------  -----------------  -----------------
         F            0.891932219929    -2.136951657853    -0.252678351658    18.998403162730
         O            1.658036219929     0.568263342147    -0.413499351658    15.994914619570
         O           -0.225004780071     2.482615342147    -0.123646351658    15.994914619570
         C            0.359416219929     0.166443342147    -0.164251351658    12.000000000000
         C           -0.607765780071     1.175628342147    -0.042994351658    12.000000000000
         C           -0.048778780071    -1.165441657853    -0.106260351658    12.000000000000
         C           -2.041305480071     0.870441642147     0.181417148342    12.000000000000
         C           -1.373369780071    -1.516146657853     0.115600648342    12.000000000000
         C           -2.319612780071    -0.495085657853     0.243117648342    12.000000000000
         C            2.582184219929     0.187758342147     0.626948648342    12.000000000000
         H           -2.676077780071     1.647182342147     0.260311648342     1.007825032230
         H           -1.645956780071    -2.565667657853     0.159997648342     1.007825032230
         H           -3.361852780071    -0.752874657853     0.409725648342     1.007825032230
         H            2.696675219929    -0.896295657853     0.659291648342     1.007825032230
         H            2.236100219929     0.558012342147     1.597108648342     1.007825032230
         H            3.530380219929     0.656342342147     0.363986648342     1.007825032230
         H            0.733179219929     2.461581342147    -0.325724351658     1.007825032230

  Basis Set: AUG-CC-PVTZ
    Blend: AUG-CC-PVTZ
  Basis Set: (AUG-CC-PVTZ AUX)
    Blend: AUG-CC-PVTZ-JKFIT
	 Reference Energy          =    -518.4658523508383041 [Eh]
	 Singles Energy            =      -0.0000000000000000 [Eh]
	 Same-Spin Energy          =      -0.5087781326130341 [Eh]
	 Opposite-Spin Energy      =      -1.5392792250528440 [Eh]
	 Correlation Energy        =      -2.0480573576658783 [Eh]
	 Total Energy              =    -520.5139097085042295 [Eh]

	 ================> DF-SCS-MP2 Energies <==================
	-----------------------------------------------------------
	 SCS Same-Spin Scale       =       0.3333333333333333 [-]
	 SCS Opposite-Spin Scale   =       1.2000000000000000 [-]
	 SCS Same-Spin Energy      =      -0.1695927108710114 [Eh]
	 SCS Opposite-Spin Energy  =      -1.8471350700634126 [Eh]
	 SCS Correlation Energy    =      -2.0167277809344237 [Eh]
	 SCS Total Energy          =    -520.4825801317726928 [Eh]
	-----------------------------------------------------------

  Dipole Moment: [D]
     X:     0.6848      Y:    -0.0828      Z:     1.1626     Total:     1.3518

*** Psi4 exiting successfully. Buy a developer a beer!
