                               Psi4 1.4a3.dev225

  ==> Input File <==

--------------------------------------------------------------------------
#psi4
#
memory 32 gb

molecule  {
0 1
  F        0.8801740    -2.1570240    -0.2741980
  O        1.6281897     0.5350289    -0.4234614
  O       -0.2367630     2.4625430    -0.1451660
  C        0.3476580     0.1463710    -0.1857710
  C       -0.6195240     1.1555560    -0.0645140
  C       -0.0605370    -1.1855140    -0.1277800
  C       -1.9594950     0.8272070     0.1461580
  C       -1.3851280    -1.5362190     0.0940810
  C       -2.3313710    -0.5151580     0.2215980
  C        2.5704260     0.1676860     0.6054290
  H       -2.6878360     1.6271100     0.2387920
  H       -1.6577150    -2.5857400     0.1384780
  H       -3.3736110    -0.7729470     0.3882060
  H        2.6849170    -0.9163680     0.6377720
  H        2.2243420     0.5379400     1.5755890
  H        3.5186220     0.6362700     0.3424670
  H        0.7214210     2.4415090    -0.3472440
units angstrom
no_reorient  #important for SAPT in psi4, default
symmetry c1  #important for SAPT in psi4, default
}

set PROPERTIES_ORIGIN ["COM"]
properties('MP2/aug-cc-pvtz', properties = ['dipole'])
--------------------------------------------------------------------------

    Molecular point group: c1
  Charge       = 0
  Multiplicity = 1
  Basis Set: AUG-CC-PVTZ
    Blend: AUG-CC-PVTZ
  Basis Set: (AUG-CC-PVTZ AUX)
    Blend: AUG-CC-PVTZ-JKFIT

    Orbital Energies [Eh]
    ---------------------

    Doubly Occupied:

       1A    -26.317634     2A    -20.598022     3A    -20.595417
       4A    -11.337351     5A    -11.313789     6A    -11.302466
       7A    -11.293043     8A    -11.253766     9A    -11.243057
      10A    -11.239063    11A     -1.629950    12A     -1.431573
      13A     -1.397143    14A     -1.157775    15A     -1.030269
      16A     -1.021133    17A     -0.949374    18A     -0.853768
      19A     -0.848597    20A     -0.759805    21A     -0.747669
      22A     -0.713730    23A     -0.700396    24A     -0.676214
      25A     -0.656654    26A     -0.646611    27A     -0.635393
      28A     -0.622316    29A     -0.590053    30A     -0.573182
      31A     -0.553329    32A     -0.540970    33A     -0.521670
      34A     -0.489350    35A     -0.472595    36A     -0.341685
      37A     -0.323650

  @DF-RHF Final Energy:  -518.47996968621248

   => Energetics <=

    Nuclear Repulsion Energy =            529.7023304332269618
    One-Electron Energy =               -1761.6076783923058429
    Two-Electron Energy =                 713.4253782728663964
    Total Energy =                       -518.4799696862124847
  Basis Set: (AUG-CC-PVTZ AUX)
    Blend: AUG-CC-PVTZ-RI
    Molecular point group: c1

    Geometry (in Angstrom), charge = 0, multiplicity = 1:

       Center              X                  Y                   Z               Mass
    ------------   -----------------  -----------------  -----------------  -----------------
         F            0.886064253601    -2.133512739782    -0.252819075411    18.998403162730
         O            1.634079953601     0.558540160218    -0.402082475411    15.994914619570
         O           -0.230872746399     2.486054260218    -0.123787075411    15.994914619570
         C            0.353548253601     0.169882260218    -0.164392075411    12.000000000000
         C           -0.613633746399     1.179067260218    -0.043135075411    12.000000000000
         C           -0.054646746399    -1.162002739782    -0.106401075411    12.000000000000
         C           -1.953604746399     0.850718260218     0.167536924589    12.000000000000
         C           -1.379237746399    -1.512707739782     0.115459924589    12.000000000000
         C           -2.325480746399    -0.491646739782     0.242976924589    12.000000000000
         C            2.576316253601     0.191197260218     0.626807924589    12.000000000000
         H           -2.681945746399     1.650621260218     0.260170924589     1.007825032230
         H           -1.651824746399    -2.562228739782     0.159856924589     1.007825032230
         H           -3.367720746399    -0.749435739782     0.409584924589     1.007825032230
         H            2.690807253601    -0.892856739782     0.659150924589     1.007825032230
         H            2.230232253601     0.561451260218     1.596967924589     1.007825032230
         H            3.524512253601     0.659781260218     0.363845924589     1.007825032230
         H            0.727311253601     2.465020260218    -0.325865075411     1.007825032230

  Basis Set: AUG-CC-PVTZ
    Blend: AUG-CC-PVTZ
  Basis Set: (AUG-CC-PVTZ AUX)
    Blend: AUG-CC-PVTZ-JKFIT
	 Reference Energy          =    -518.4799696862124847 [Eh]
	 Singles Energy            =      -0.0000000000000000 [Eh]
	 Same-Spin Energy          =      -0.5088461043139394 [Eh]
	 Opposite-Spin Energy      =      -1.5377497426885331 [Eh]
	 Correlation Energy        =      -2.0465958470024725 [Eh]
	 Total Energy              =    -520.5265655332149208 [Eh]

	 ================> DF-SCS-MP2 Energies <==================
	-----------------------------------------------------------
	 SCS Same-Spin Scale       =       0.3333333333333333 [-]
	 SCS Opposite-Spin Scale   =       1.2000000000000000 [-]
	 SCS Same-Spin Energy      =      -0.1696153681046464 [Eh]
	 SCS Opposite-Spin Energy  =      -1.8452996912262396 [Eh]
	 SCS Correlation Energy    =      -2.0149150593308862 [Eh]
	 SCS Total Energy          =    -520.4948847455433452 [Eh]
	-----------------------------------------------------------

  Dipole Moment: [D]
     X:     0.7726      Y:    -0.1306      Z:     1.1565     Total:     1.3969

*** Psi4 exiting successfully. Buy a developer a beer!
