                               Psi4 1.4a3.dev225

  ==> Input File <==

--------------------------------------------------------------------------
#psi4
#
memory 32 gb

molecule  {
0 1
  F        0.8801740    -2.1570240    -0.2741980
  O        1.7213899     0.5996407    -0.4780462
  O       -0.2367630     2.4625430    -0.1451660
  C        0.3476580     0.1463710    -0.1857710
  C       -0.6195240     1.1555560    -0.0645140
  C       -0.0605370    -1.1855140    -0.1277800
  C       -1.9594950     0.8272070     0.1461580
  C       -1.3851280    -1.5362190     0.0940810
  C       -2.3313710    -0.5151580     0.2215980
  C        2.5704260     0.1676860     0.6054290
  H       -2.6878360     1.6271100     0.2387920
  H       -1.6577150    -2.5857400     0.1384780
  H       -3.3736110    -0.7729470     0.3882060
  H        2.6849170    -0.9163680     0.6377720
  H        2.2243420     0.5379400     1.5755890
  H        3.5186220     0.6362700     0.3424670
  H        0.7214210     2.4415090    -0.3472440
units angstrom
no_reorient  #important for SAPT in psi4, default
symmetry c1  #important for SAPT in psi4, default
}

set PROPERTIES_ORIGIN ["COM"]
properties('MP2/aug-cc-pvtz', properties = ['dipole'])
--------------------------------------------------------------------------

    Molecular point group: c1
  Charge       = 0
  Multiplicity = 1
  Basis Set: AUG-CC-PVTZ
    Blend: AUG-CC-PVTZ
  Basis Set: (AUG-CC-PVTZ AUX)
    Blend: AUG-CC-PVTZ-JKFIT

    Orbital Energies [Eh]
    ---------------------

    Doubly Occupied:

       1A    -26.320654     2A    -20.602448     3A    -20.596869
       4A    -11.346526     5A    -11.321127     6A    -11.309077
       7A    -11.285922     8A    -11.259919     9A    -11.247229
      10A    -11.242783    11A     -1.632816    12A     -1.417399
      13A     -1.378021    14A     -1.163357    15A     -1.031195
      16A     -1.023746    17A     -0.937743    18A     -0.855376
      19A     -0.852677    20A     -0.759056    21A     -0.747119
      22A     -0.705891    23A     -0.697050    24A     -0.679348
      25A     -0.647332    26A     -0.641741    27A     -0.635638
      28A     -0.615214    29A     -0.588442    30A     -0.575914
      31A     -0.556186    32A     -0.541617    33A     -0.509591
      34A     -0.494721    35A     -0.474387    36A     -0.350165
      37A     -0.329936

  @DF-RHF Final Energy:  -518.46753502123465

   => Energetics <=

    Nuclear Repulsion Energy =            526.2349259121824616
    One-Electron Energy =               -1754.6564608260800924
    Two-Electron Energy =                 709.9539998926629778
    Total Energy =                       -518.4675350212346530
  Basis Set: (AUG-CC-PVTZ AUX)
    Blend: AUG-CC-PVTZ-RI
    Molecular point group: c1

    Geometry (in Angstrom), charge = 0, multiplicity = 1:

       Center              X                  Y                   Z               Mass
    ------------   -----------------  -----------------  -----------------  -----------------
         F            0.875569338952    -2.140788425095    -0.246672491851    18.998403162730
         O            1.716785238952     0.615876274905    -0.450520691851    15.994914619570
         O           -0.241367661048     2.478778574905    -0.117640491851    15.994914619570
         C            0.343053338952     0.162606574905    -0.158245491851    12.000000000000
         C           -0.624128661048     1.171791574905    -0.036988491851    12.000000000000
         C           -0.065141661048    -1.169278425095    -0.100254491851    12.000000000000
         C           -1.964099661048     0.843442574905     0.173683508149    12.000000000000
         C           -1.389732661048    -1.519983425095     0.121606508149    12.000000000000
         C           -2.335975661048    -0.498922425095     0.249123508149    12.000000000000
         C            2.565821338952     0.183921574905     0.632954508149    12.000000000000
         H           -2.692440661048     1.643345574905     0.266317508149     1.007825032230
         H           -1.662319661048    -2.569504425095     0.166003508149     1.007825032230
         H           -3.378215661048    -0.756711425095     0.415731508149     1.007825032230
         H            2.680312338952    -0.900132425095     0.665297508149     1.007825032230
         H            2.219737338952     0.554175574905     1.603114508149     1.007825032230
         H            3.514017338952     0.652505574905     0.369992508149     1.007825032230
         H            0.716816338952     2.457744574905    -0.319718491851     1.007825032230

  Basis Set: AUG-CC-PVTZ
    Blend: AUG-CC-PVTZ
  Basis Set: (AUG-CC-PVTZ AUX)
    Blend: AUG-CC-PVTZ-JKFIT
	 Reference Energy          =    -518.4675350212346530 [Eh]
	 Singles Energy            =      -0.0000000000000000 [Eh]
	 Same-Spin Energy          =      -0.5094657435371219 [Eh]
	 Opposite-Spin Energy      =      -1.5413873901384267 [Eh]
	 Correlation Energy        =      -2.0508531336755489 [Eh]
	 Total Energy              =    -520.5183881549102125 [Eh]

	 ================> DF-SCS-MP2 Energies <==================
	-----------------------------------------------------------
	 SCS Same-Spin Scale       =       0.3333333333333333 [-]
	 SCS Opposite-Spin Scale   =       1.2000000000000000 [-]
	 SCS Same-Spin Energy      =      -0.1698219145123740 [Eh]
	 SCS Opposite-Spin Energy  =      -1.8496648681661121 [Eh]
	 SCS Correlation Energy    =      -2.0194867826784861 [Eh]
	 SCS Total Energy          =    -520.4870218039131942 [Eh]
	-----------------------------------------------------------

  Dipole Moment: [D]
     X:     0.2045      Y:    -0.2944      Z:     1.2131     Total:     1.2650

*** Psi4 exiting successfully. Buy a developer a beer!
