                               Psi4 1.4a3.dev225

  ==> Input File <==

--------------------------------------------------------------------------
#psi4
#
memory 32 gb

molecule  {
0 1
  F        0.8801740    -2.1570240    -0.2741980
  O        1.6462780     0.5481910    -0.4350190
  O       -0.2367630     2.4625430    -0.1451660
  C        0.3476580     0.1463710    -0.1857710
  C       -0.6195240     1.1555560    -0.0645140
  C       -0.0605370    -1.1855140    -0.1277800
  C       -1.9594950     0.8272070     0.1461580
  C       -1.3851280    -1.5362190     0.0940810
  C       -2.3313710    -0.5151580     0.2215980
  C        2.5704260     0.1676860     0.6054290
  H       -2.6878360     1.6271100     0.2387920
  H       -1.6577150    -2.5857400     0.1384780
  H       -3.3736110    -0.7729470     0.3882060
  H        2.7580217    -0.9065354     0.6189755
  H        2.2243420     0.5379400     1.5755890
  H        3.5186220     0.6362700     0.3424670
  H        0.7214210     2.4415090    -0.3472440
units angstrom
no_reorient  #important for SAPT in psi4, default
symmetry c1  #important for SAPT in psi4, default
}

set PROPERTIES_ORIGIN ["COM"]
properties('MP2/aug-cc-pvtz', properties = ['dipole'])
--------------------------------------------------------------------------

    Molecular point group: c1
  Charge       = 0
  Multiplicity = 1
  Basis Set: AUG-CC-PVTZ
    Blend: AUG-CC-PVTZ
  Basis Set: (AUG-CC-PVTZ AUX)
    Blend: AUG-CC-PVTZ-JKFIT

    Orbital Energies [Eh]
    ---------------------

    Doubly Occupied:

       1A    -26.317830     2A    -20.599837     3A    -20.595778
       4A    -11.339235     5A    -11.315383     6A    -11.303711
       7A    -11.291465     8A    -11.255071     9A    -11.243815
      10A    -11.239786    11A     -1.630006    12A     -1.426879
      13A     -1.394667    14A     -1.158883    15A     -1.030091
      16A     -1.021691    17A     -0.947436    18A     -0.853587
      19A     -0.849551    20A     -0.759202    21A     -0.747277
      22A     -0.710510    23A     -0.699996    24A     -0.676593
      25A     -0.657243    26A     -0.646249    27A     -0.635020
      28A     -0.619011    29A     -0.590319    30A     -0.573592
      31A     -0.552029    32A     -0.541503    33A     -0.518516
      34A     -0.490800    35A     -0.474291    36A     -0.343351
      37A     -0.325133

  @DF-RHF Final Energy:  -518.47863524733873

   => Energetics <=

    Nuclear Repulsion Energy =            528.8344603511534388
    One-Electron Energy =               -1759.8755197795564982
    Two-Electron Energy =                 712.5624241810643298
    Total Energy =                       -518.4786352473387296
  Basis Set: (AUG-CC-PVTZ AUX)
    Blend: AUG-CC-PVTZ-RI
    Molecular point group: c1

    Geometry (in Angstrom), charge = 0, multiplicity = 1:

       Center              X                  Y                   Z               Mass
    ------------   -----------------  -----------------  -----------------  -----------------
         F            0.883508706751    -2.135064637407    -0.251384253579    18.998403162730
         O            1.649612706751     0.570150362593    -0.412205253579    15.994914619570
         O           -0.233428293249     2.484502362593    -0.122352253579    15.994914619570
         C            0.350992706751     0.168330362593    -0.162957253579    12.000000000000
         C           -0.616189293249     1.177515362593    -0.041700253579    12.000000000000
         C           -0.057202293249    -1.163554637407    -0.104966253579    12.000000000000
         C           -1.956160293249     0.849166362593     0.168971746421    12.000000000000
         C           -1.381793293249    -1.514259637407     0.116894746421    12.000000000000
         C           -2.328036293249    -0.493198637407     0.244411746421    12.000000000000
         C            2.573760706751     0.189645362593     0.628242746421    12.000000000000
         H           -2.684501293249     1.649069362593     0.261605746421     1.007825032230
         H           -1.654380293249    -2.563780637407     0.161291746421     1.007825032230
         H           -3.370276293249    -0.750987637407     0.411019746421     1.007825032230
         H            2.761356406751    -0.884576037407     0.641789246421     1.007825032230
         H            2.227676706751     0.559899362593     1.598402746421     1.007825032230
         H            3.521956706751     0.658229362593     0.365280746421     1.007825032230
         H            0.724755706751     2.463468362593    -0.324430253579     1.007825032230

  Basis Set: AUG-CC-PVTZ
    Blend: AUG-CC-PVTZ
  Basis Set: (AUG-CC-PVTZ AUX)
    Blend: AUG-CC-PVTZ-JKFIT
	 Reference Energy          =    -518.4786352473387296 [Eh]
	 Singles Energy            =      -0.0000000000000000 [Eh]
	 Same-Spin Energy          =      -0.5088833845443961 [Eh]
	 Opposite-Spin Energy      =      -1.5383296009571208 [Eh]
	 Correlation Energy        =      -2.0472129855015169 [Eh]
	 Total Energy              =    -520.5258482328401897 [Eh]

	 ================> DF-SCS-MP2 Energies <==================
	-----------------------------------------------------------
	 SCS Same-Spin Scale       =       0.3333333333333333 [-]
	 SCS Opposite-Spin Scale   =       1.2000000000000000 [-]
	 SCS Same-Spin Energy      =      -0.1696277948481320 [Eh]
	 SCS Opposite-Spin Energy  =      -1.8459955211485448 [Eh]
	 SCS Correlation Energy    =      -2.0156233159966770 [Eh]
	 SCS Total Energy          =    -520.4942585633353929 [Eh]
	-----------------------------------------------------------

  Dipole Moment: [D]
     X:     0.6724      Y:    -0.1700      Z:     1.1612     Total:     1.3525

*** Psi4 exiting successfully. Buy a developer a beer!
