                               Psi4 1.4a3.dev225

  ==> Input File <==

--------------------------------------------------------------------------
#psi4
#
memory 32 gb

molecule  {
0 1
  F        0.8801740    -2.1570240    -0.2741980
  O        1.6462780     0.5481910    -0.4350190
  O       -0.2367630     2.4625430    -0.1451660
  C        0.3476580     0.1463710    -0.1857710
  C       -0.6195240     1.1555560    -0.0645140
  C       -0.0458984    -1.1377501    -0.1298597
  C       -1.9594950     0.8272070     0.1461580
  C       -1.3851280    -1.5362190     0.0940810
  C       -2.3313710    -0.5151580     0.2215980
  C        2.5704260     0.1676860     0.6054290
  H       -2.6878360     1.6271100     0.2387920
  H       -1.6577150    -2.5857400     0.1384780
  H       -3.3736110    -0.7729470     0.3882060
  H        2.6849170    -0.9163680     0.6377720
  H        2.2243420     0.5379400     1.5755890
  H        3.5186220     0.6362700     0.3424670
  H        0.7214210     2.4415090    -0.3472440
units angstrom
no_reorient  #important for SAPT in psi4, default
symmetry c1  #important for SAPT in psi4, default
}

set PROPERTIES_ORIGIN ["COM"]
properties('MP2/aug-cc-pvtz', properties = ['dipole'])
--------------------------------------------------------------------------

    Molecular point group: c1
  Charge       = 0
  Multiplicity = 1
  Basis Set: AUG-CC-PVTZ
    Blend: AUG-CC-PVTZ
  Basis Set: (AUG-CC-PVTZ AUX)
    Blend: AUG-CC-PVTZ-JKFIT

    Orbital Energies [Eh]
    ---------------------

    Doubly Occupied:

       1A    -26.311682     2A    -20.599752     3A    -20.597672
       4A    -11.337020     5A    -11.317724     6A    -11.301634
       7A    -11.291998     8A    -11.255325     9A    -11.246909
      10A    -11.239430    11A     -1.616639    12A     -1.428670
      13A     -1.396245    14A     -1.162629    15A     -1.038040
      16A     -1.017539    17A     -0.949069    18A     -0.857267
      19A     -0.846215    20A     -0.759897    21A     -0.742359
      22A     -0.708264    23A     -0.692770    24A     -0.673995
      25A     -0.654160    26A     -0.648001    27A     -0.633306
      28A     -0.622021    29A     -0.591507    30A     -0.573952
      31A     -0.555131    32A     -0.542983    33A     -0.518860
      34A     -0.493019    35A     -0.474864    36A     -0.351162
      37A     -0.323122

  @DF-RHF Final Energy:  -518.47572894082180

   => Energetics <=

    Nuclear Repulsion Energy =            529.4268469802277650
    One-Electron Energy =               -1761.0634928798933743
    Two-Electron Energy =                 713.1609169588438135
    Total Energy =                       -518.4757289408217957
  Basis Set: (AUG-CC-PVTZ AUX)
    Blend: AUG-CC-PVTZ-RI
    Molecular point group: c1

    Geometry (in Angstrom), charge = 0, multiplicity = 1:

       Center              X                  Y                   Z               Mass
    ------------   -----------------  -----------------  -----------------  -----------------
         F            0.882790709751    -2.139030036824    -0.251341922620    18.998403162730
         O            1.648894709751     0.566184963176    -0.412162922620    15.994914619570
         O           -0.234146290249     2.480536963176    -0.122309922620    15.994914619570
         C            0.350274709751     0.164364963176    -0.162914922620    12.000000000000
         C           -0.616907290249     1.173549963176    -0.041657922620    12.000000000000
         C           -0.043281690249    -1.119756136824    -0.107003622620    12.000000000000
         C           -1.956878290249     0.845200963176     0.169014077380    12.000000000000
         C           -1.382511290249    -1.518225036824     0.116937077380    12.000000000000
         C           -2.328754290249    -0.497164036824     0.244454077380    12.000000000000
         C            2.573042709751     0.185679963176     0.628285077380    12.000000000000
         H           -2.685219290249     1.645103963176     0.261648077380     1.007825032230
         H           -1.655098290249    -2.567746036824     0.161334077380     1.007825032230
         H           -3.370994290249    -0.754953036824     0.411062077380     1.007825032230
         H            2.687533709751    -0.898374036824     0.660628077380     1.007825032230
         H            2.226958709751     0.555933963176     1.598445077380     1.007825032230
         H            3.521238709751     0.654263963176     0.365323077380     1.007825032230
         H            0.724037709751     2.459502963176    -0.324387922620     1.007825032230

  Basis Set: AUG-CC-PVTZ
    Blend: AUG-CC-PVTZ
  Basis Set: (AUG-CC-PVTZ AUX)
    Blend: AUG-CC-PVTZ-JKFIT
	 Reference Energy          =    -518.4757289408217957 [Eh]
	 Singles Energy            =      -0.0000000000000000 [Eh]
	 Same-Spin Energy          =      -0.5087331985461039 [Eh]
	 Opposite-Spin Energy      =      -1.5386422847961054 [Eh]
	 Correlation Energy        =      -2.0473754833422095 [Eh]
	 Total Energy              =    -520.5231044241639893 [Eh]

	 ================> DF-SCS-MP2 Energies <==================
	-----------------------------------------------------------
	 SCS Same-Spin Scale       =       0.3333333333333333 [-]
	 SCS Opposite-Spin Scale   =       1.2000000000000000 [-]
	 SCS Same-Spin Energy      =      -0.1695777328487013 [Eh]
	 SCS Opposite-Spin Energy  =      -1.8463707417553263 [Eh]
	 SCS Correlation Energy    =      -2.0159484746040275 [Eh]
	 SCS Total Energy          =    -520.4916774154257837 [Eh]
	-----------------------------------------------------------

  Dipole Moment: [D]
     X:     0.5964      Y:    -0.0218      Z:     1.1840     Total:     1.3259

*** Psi4 exiting successfully. Buy a developer a beer!
