                               Psi4 1.4a3.dev225

  ==> Input File <==

--------------------------------------------------------------------------
#psi4
#
memory 32 gb

molecule  {
0 1
  F        0.8801740    -2.1570240    -0.2741980
  O        1.6462780     0.5481910    -0.4350190
  O       -0.2367630     2.4625430    -0.1451660
  C        0.3476580     0.1463710    -0.1857710
  C       -0.6195240     1.1555560    -0.0645140
  C       -0.0605370    -1.1855140    -0.1277800
  C       -1.9594950     0.8272070     0.1461580
  C       -1.3851280    -1.5362190     0.0940810
  C       -2.3313710    -0.5151580     0.2215980
  C        2.5704260     0.1676860     0.6054290
  H       -2.6878360     1.6271100     0.2387920
  H       -1.6577150    -2.5857400     0.1384780
  H       -3.3736110    -0.7729470     0.3882060
  H        2.5743262    -0.9212063     0.6656429
  H        2.2243420     0.5379400     1.5755890
  H        3.5186220     0.6362700     0.3424670
  H        0.7214210     2.4415090    -0.3472440
units angstrom
no_reorient  #important for SAPT in psi4, default
symmetry c1  #important for SAPT in psi4, default
}

set PROPERTIES_ORIGIN ["COM"]
properties('MP2/aug-cc-pvtz', properties = ['dipole'])
--------------------------------------------------------------------------

    Molecular point group: c1
  Charge       = 0
  Multiplicity = 1
  Basis Set: AUG-CC-PVTZ
    Blend: AUG-CC-PVTZ
  Basis Set: (AUG-CC-PVTZ AUX)
    Blend: AUG-CC-PVTZ-JKFIT

    Orbital Energies [Eh]
    ---------------------

    Doubly Occupied:

       1A    -26.318968     2A    -20.597402     3A    -20.595635
       4A    -11.339600     5A    -11.315430     6A    -11.303825
       7A    -11.291277     8A    -11.255241     9A    -11.244165
      10A    -11.239970    11A     -1.631413    12A     -1.426415
      13A     -1.394282    14A     -1.159109    15A     -1.030117
      16A     -1.021883    17A     -0.946793    18A     -0.854107
      19A     -0.849826    20A     -0.759984    21A     -0.747827
      22A     -0.712742    23A     -0.700636    24A     -0.677292
      25A     -0.650724    26A     -0.644872    27A     -0.635497
      28A     -0.624287    29A     -0.589132    30A     -0.573891
      31A     -0.556170    32A     -0.539984    33A     -0.521353
      34A     -0.490178    35A     -0.470536    36A     -0.343664
      37A     -0.325194

  @DF-RHF Final Energy:  -518.47773381122738

   => Energetics <=

    Nuclear Repulsion Energy =            529.2513828987946454
    One-Electron Energy =               -1760.6993919785859362
    Two-Electron Energy =                 712.9702752685639098
    Total Energy =                       -518.4777338112273810
  Basis Set: (AUG-CC-PVTZ AUX)
    Blend: AUG-CC-PVTZ-RI
    Molecular point group: c1

    Geometry (in Angstrom), charge = 0, multiplicity = 1:

       Center              X                  Y                   Z               Mass
    ------------   -----------------  -----------------  -----------------  -----------------
         F            0.884812064982    -2.134960544284    -0.251715368604    18.998403162730
         O            1.650916064982     0.570254455716    -0.412536368604    15.994914619570
         O           -0.232124935018     2.484606455716    -0.122683368604    15.994914619570
         C            0.352296064982     0.168434455716    -0.163288368604    12.000000000000
         C           -0.614885935018     1.177619455716    -0.042031368604    12.000000000000
         C           -0.055898935018    -1.163450544284    -0.105297368604    12.000000000000
         C           -1.954856935018     0.849270455716     0.168640631396    12.000000000000
         C           -1.380489935018    -1.514155544284     0.116563631396    12.000000000000
         C           -2.326732935018    -0.493094544284     0.244080631396    12.000000000000
         C            2.575064064982     0.189749455716     0.627911631396    12.000000000000
         H           -2.683197935018     1.649173455716     0.261274631396     1.007825032230
         H           -1.653076935018    -2.563676544284     0.160960631396     1.007825032230
         H           -3.368972935018    -0.750883544284     0.410688631396     1.007825032230
         H            2.578964264982    -0.899142844284     0.688125531396     1.007825032230
         H            2.228980064982     0.560003455716     1.598071631396     1.007825032230
         H            3.523260064982     0.658333455716     0.364949631396     1.007825032230
         H            0.726059064982     2.463572455716    -0.324761368604     1.007825032230

  Basis Set: AUG-CC-PVTZ
    Blend: AUG-CC-PVTZ
  Basis Set: (AUG-CC-PVTZ AUX)
    Blend: AUG-CC-PVTZ-JKFIT
	 Reference Energy          =    -518.4777338112273810 [Eh]
	 Singles Energy            =      -0.0000000000000000 [Eh]
	 Same-Spin Energy          =      -0.5090361041690019 [Eh]
	 Opposite-Spin Energy      =      -1.5385133389171759 [Eh]
	 Correlation Energy        =      -2.0475494430861776 [Eh]
	 Total Energy              =    -520.5252832543135355 [Eh]

	 ================> DF-SCS-MP2 Energies <==================
	-----------------------------------------------------------
	 SCS Same-Spin Scale       =       0.3333333333333333 [-]
	 SCS Opposite-Spin Scale   =       1.2000000000000000 [-]
	 SCS Same-Spin Energy      =      -0.1696787013896673 [Eh]
	 SCS Opposite-Spin Energy  =      -1.8462160067006110 [Eh]
	 SCS Correlation Energy    =      -2.0158947080902783 [Eh]
	 SCS Total Energy          =    -520.4936285193176673 [Eh]
	-----------------------------------------------------------

  Dipole Moment: [D]
     X:     0.6134      Y:    -0.1557      Z:     1.1781     Total:     1.3373

*** Psi4 exiting successfully. Buy a developer a beer!
