                               Psi4 1.4a3.dev225

  ==> Input File <==

--------------------------------------------------------------------------
#psi4
#
memory 32 gb

molecule  {
0 1
  F        0.8801740    -2.1570240    -0.2741980
  O        1.6462780     0.5481910    -0.4350190
  O       -0.2367630     2.4625430    -0.1451660
  C        0.3476580     0.1463710    -0.1857710
  C       -0.6195240     1.1555560    -0.0645140
  C       -0.0605370    -1.1855140    -0.1277800
  C       -1.9827350     0.8336156     0.1495610
  C       -1.3851280    -1.5362190     0.0940810
  C       -2.3313710    -0.5151580     0.2215980
  C        2.5704260     0.1676860     0.6054290
  H       -2.6878360     1.6271100     0.2387920
  H       -1.6577150    -2.5857400     0.1384780
  H       -3.3736110    -0.7729470     0.3882060
  H        2.6849170    -0.9163680     0.6377720
  H        2.2243420     0.5379400     1.5755890
  H        3.5186220     0.6362700     0.3424670
  H        0.7214210     2.4415090    -0.3472440
units angstrom
no_reorient  #important for SAPT in psi4, default
symmetry c1  #important for SAPT in psi4, default
}

set PROPERTIES_ORIGIN ["COM"]
properties('MP2/aug-cc-pvtz', properties = ['dipole'])
--------------------------------------------------------------------------

    Molecular point group: c1
  Charge       = 0
  Multiplicity = 1
  Basis Set: AUG-CC-PVTZ
    Blend: AUG-CC-PVTZ
  Basis Set: (AUG-CC-PVTZ AUX)
    Blend: AUG-CC-PVTZ-JKFIT

    Orbital Energies [Eh]
    ---------------------

    Doubly Occupied:

       1A    -26.318627     2A    -20.598838     3A    -20.596212
       4A    -11.340105     5A    -11.318015     6A    -11.303396
       7A    -11.291326     8A    -11.255253     9A    -11.243594
      10A    -11.240708    11A     -1.630873    12A     -1.426727
      13A     -1.394623    14A     -1.157103    15A     -1.030580
      16A     -1.019581    17A     -0.946596    18A     -0.854714
      19A     -0.849004    20A     -0.759433    21A     -0.747362
      22A     -0.712853    23A     -0.700658    24A     -0.676210
      25A     -0.653795    26A     -0.648297    27A     -0.634017
      28A     -0.620986    29A     -0.589319    30A     -0.575530
      31A     -0.552278    32A     -0.543418    33A     -0.518527
      34A     -0.490208    35A     -0.473260    36A     -0.343722
      37A     -0.323452

  @DF-RHF Final Energy:  -518.47816626346560

   => Energetics <=

    Nuclear Repulsion Energy =            528.5127005999718222
    One-Electron Energy =               -1759.2233371808240463
    Two-Electron Energy =                 712.2324703173866283
    Total Energy =                       -518.4781662634655959
  Basis Set: (AUG-CC-PVTZ AUX)
    Blend: AUG-CC-PVTZ-RI
    Molecular point group: c1

    Geometry (in Angstrom), charge = 0, multiplicity = 1:

       Center              X                  Y                   Z               Mass
    ------------   -----------------  -----------------  -----------------  -----------------
         F            0.885990749003    -2.135536280895    -0.251805109095    18.998403162730
         O            1.652094749003     0.569678719105    -0.412626109095    15.994914619570
         O           -0.230946250997     2.484030719105    -0.122773109095    15.994914619570
         C            0.353474749003     0.167858719105    -0.163378109095    12.000000000000
         C           -0.613707250997     1.177043719105    -0.042121109095    12.000000000000
         C           -0.054720250997    -1.164026280895    -0.105387109095    12.000000000000
         C           -1.976918250997     0.855103319105     0.171953890905    12.000000000000
         C           -1.379311250997    -1.514731280895     0.116473890905    12.000000000000
         C           -2.325554250997    -0.493670280895     0.243990890905    12.000000000000
         C            2.576242749003     0.189173719105     0.627821890905    12.000000000000
         H           -2.682019250997     1.648597719105     0.261184890905     1.007825032230
         H           -1.651898250997    -2.564252280895     0.160870890905     1.007825032230
         H           -3.367794250997    -0.751459280895     0.410598890905     1.007825032230
         H            2.690733749003    -0.894880280895     0.660164890905     1.007825032230
         H            2.230158749003     0.559427719105     1.597981890905     1.007825032230
         H            3.524438749003     0.657757719105     0.364859890905     1.007825032230
         H            0.727237749003     2.462996719105    -0.324851109095     1.007825032230

  Basis Set: AUG-CC-PVTZ
    Blend: AUG-CC-PVTZ
  Basis Set: (AUG-CC-PVTZ AUX)
    Blend: AUG-CC-PVTZ-JKFIT
	 Reference Energy          =    -518.4781662634655959 [Eh]
	 Singles Energy            =      -0.0000000000000000 [Eh]
	 Same-Spin Energy          =      -0.5088504190858059 [Eh]
	 Opposite-Spin Energy      =      -1.5384534955008222 [Eh]
	 Correlation Energy        =      -2.0473039145866281 [Eh]
	 Total Energy              =    -520.5254701780522737 [Eh]

	 ================> DF-SCS-MP2 Energies <==================
	-----------------------------------------------------------
	 SCS Same-Spin Scale       =       0.3333333333333333 [-]
	 SCS Opposite-Spin Scale   =       1.2000000000000000 [-]
	 SCS Same-Spin Energy      =      -0.1696168063619353 [Eh]
	 SCS Opposite-Spin Energy  =      -1.8461441946009867 [Eh]
	 SCS Correlation Energy    =      -2.0157610009629221 [Eh]
	 SCS Total Energy          =    -520.4939272644285211 [Eh]
	-----------------------------------------------------------

  Dipole Moment: [D]
     X:     0.6570      Y:    -0.1420      Z:     1.1675     Total:     1.3471

*** Psi4 exiting successfully. Buy a developer a beer!
