                               Psi4 1.4a3.dev225

  ==> Input File <==

--------------------------------------------------------------------------
#psi4
#
memory 32 gb

molecule  {
0 1
  F        0.8801740    -2.1570240    -0.2741980
  O        1.5756685     0.4948875    -0.3869229
  O       -0.2367630     2.4625430    -0.1451660
  C        0.3476580     0.1463710    -0.1857710
  C       -0.6195240     1.1555560    -0.0645140
  C       -0.0605370    -1.1855140    -0.1277800
  C       -1.9594950     0.8272070     0.1461580
  C       -1.3851280    -1.5362190     0.0940810
  C       -2.3313710    -0.5151580     0.2215980
  C        2.5704260     0.1676860     0.6054290
  H       -2.6878360     1.6271100     0.2387920
  H       -1.6577150    -2.5857400     0.1384780
  H       -3.3736110    -0.7729470     0.3882060
  H        2.6849170    -0.9163680     0.6377720
  H        2.2243420     0.5379400     1.5755890
  H        3.5186220     0.6362700     0.3424670
  H        0.7214210     2.4415090    -0.3472440
units angstrom
no_reorient  #important for SAPT in psi4, default
symmetry c1  #important for SAPT in psi4, default
}

set PROPERTIES_ORIGIN ["COM"]
properties('MP2/aug-cc-pvtz', properties = ['dipole'])
--------------------------------------------------------------------------

    Molecular point group: c1
  Charge       = 0
  Multiplicity = 1
  Basis Set: AUG-CC-PVTZ
    Blend: AUG-CC-PVTZ
  Basis Set: (AUG-CC-PVTZ AUX)
    Blend: AUG-CC-PVTZ-JKFIT

    Orbital Energies [Eh]
    ---------------------

    Doubly Occupied:

       1A    -26.315549     2A    -20.595721     3A    -20.594442
       4A    -11.330661     5A    -11.308488     6A    -11.298893
       7A    -11.298843     8A    -11.249185     9A    -11.240198
      10A    -11.236538    11A     -1.628019    12A     -1.452782
      13A     -1.401153    14A     -1.153981    15A     -1.032610
      16A     -1.018767    17A     -0.955742    18A     -0.854529
      19A     -0.845169    20A     -0.761367    21A     -0.748748
      22A     -0.721584    23A     -0.701041    24A     -0.674634
      25A     -0.666411    26A     -0.646041    27A     -0.637114
      28A     -0.623954    29A     -0.590437    30A     -0.571857
      31A     -0.552557    32A     -0.542314    33A     -0.525860
      34A     -0.484690    35A     -0.470140    36A     -0.336319
      37A     -0.318084

  @DF-RHF Final Energy:  -518.47597906802480

   => Energetics <=

    Nuclear Repulsion Energy =            531.8564228333782467
    One-Electron Energy =               -1765.8959591406669460
    Two-Electron Energy =                 715.5635572392639006
    Total Energy =                       -518.4759790680247988
  Basis Set: (AUG-CC-PVTZ AUX)
    Blend: AUG-CC-PVTZ-RI
    Molecular point group: c1

    Geometry (in Angstrom), charge = 0, multiplicity = 1:

       Center              X                  Y                   Z               Mass
    ------------   -----------------  -----------------  -----------------  -----------------
         F            0.891978463133    -2.128992571726    -0.256933534811    18.998403162730
         O            1.587472963133     0.522918928274    -0.369658434811    15.994914619570
         O           -0.224958536867     2.490574428274    -0.127901534811    15.994914619570
         C            0.359462463133     0.174402428274    -0.168506534811    12.000000000000
         C           -0.607719536867     1.183587428274    -0.047249534811    12.000000000000
         C           -0.048732536867    -1.157482571726    -0.110515534811    12.000000000000
         C           -1.947690536867     0.855238428274     0.163422465189    12.000000000000
         C           -1.373323536867    -1.508187571726     0.111345465189    12.000000000000
         C           -2.319566536867    -0.487126571726     0.238862465189    12.000000000000
         C            2.582230463133     0.195717428274     0.622693465189    12.000000000000
         H           -2.676031536867     1.655141428274     0.256056465189     1.007825032230
         H           -1.645910536867    -2.557708571726     0.155742465189     1.007825032230
         H           -3.361806536867    -0.744915571726     0.405470465189     1.007825032230
         H            2.696721463133    -0.888336571726     0.655036465189     1.007825032230
         H            2.236146463133     0.565971428274     1.592853465189     1.007825032230
         H            3.530426463133     0.664301428274     0.359731465189     1.007825032230
         H            0.733225463133     2.469540428274    -0.329979534811     1.007825032230

  Basis Set: AUG-CC-PVTZ
    Blend: AUG-CC-PVTZ
  Basis Set: (AUG-CC-PVTZ AUX)
    Blend: AUG-CC-PVTZ-JKFIT
	 Reference Energy          =    -518.4759790680247988 [Eh]
	 Singles Energy            =      -0.0000000000000000 [Eh]
	 Same-Spin Energy          =      -0.5088790205896856 [Eh]
	 Opposite-Spin Energy      =      -1.5363753734158672 [Eh]
	 Correlation Energy        =      -2.0452543940055525 [Eh]
	 Total Energy              =    -520.5212334620302954 [Eh]

	 ================> DF-SCS-MP2 Energies <==================
	-----------------------------------------------------------
	 SCS Same-Spin Scale       =       0.3333333333333333 [-]
	 SCS Opposite-Spin Scale   =       1.2000000000000000 [-]
	 SCS Same-Spin Energy      =      -0.1696263401965619 [Eh]
	 SCS Opposite-Spin Energy  =      -1.8436504480990406 [Eh]
	 SCS Correlation Energy    =      -2.0132767882956024 [Eh]
	 SCS Total Energy          =    -520.4892558563203693 [Eh]
	-----------------------------------------------------------

  Dipole Moment: [D]
     X:     1.1819      Y:    -0.0157      Z:     1.1151     Total:     1.6250

*** Psi4 exiting successfully. Buy a developer a beer!
