                               Psi4 1.4a3.dev225

  ==> Input File <==

--------------------------------------------------------------------------
#psi4
#
memory 32 gb

molecule  {
0 1
  F        0.8801740    -2.1570240    -0.2741980
  O        1.6462780     0.5481910    -0.4350190
  O       -0.2367630     2.4625430    -0.1451660
  C        0.3476580     0.1463710    -0.1857710
  C       -0.6195240     1.1555560    -0.0645140
  C       -0.0605370    -1.1855140    -0.1277800
  C       -1.9402923     0.8319125     0.1431389
  C       -1.3851280    -1.5362190     0.0940810
  C       -2.3313710    -0.5151580     0.2215980
  C        2.5704260     0.1676860     0.6054290
  H       -2.6878360     1.6271100     0.2387920
  H       -1.6577150    -2.5857400     0.1384780
  H       -3.3736110    -0.7729470     0.3882060
  H        2.6849170    -0.9163680     0.6377720
  H        2.2243420     0.5379400     1.5755890
  H        3.5186220     0.6362700     0.3424670
  H        0.7214210     2.4415090    -0.3472440
units angstrom
no_reorient  #important for SAPT in psi4, default
symmetry c1  #important for SAPT in psi4, default
}

set PROPERTIES_ORIGIN ["COM"]
properties('MP2/aug-cc-pvtz', properties = ['dipole'])
--------------------------------------------------------------------------

    Molecular point group: c1
  Charge       = 0
  Multiplicity = 1
  Basis Set: AUG-CC-PVTZ
    Blend: AUG-CC-PVTZ
  Basis Set: (AUG-CC-PVTZ AUX)
    Blend: AUG-CC-PVTZ-JKFIT

    Orbital Energies [Eh]
    ---------------------

    Doubly Occupied:

       1A    -26.318145     2A    -20.599011     3A    -20.594793
       4A    -11.338954     5A    -11.312805     6A    -11.304204
       7A    -11.291477     8A    -11.256236     9A    -11.244481
      10A    -11.239114    11A     -1.630440    12A     -1.426591
      13A     -1.394293    14A     -1.159801    15A     -1.028891
      16A     -1.024126    17A     -0.947362    18A     -0.852972
      19A     -0.850416    20A     -0.759295    21A     -0.747547
      22A     -0.710764    23A     -0.700065    24A     -0.677286
      25A     -0.653792    26A     -0.645409    27A     -0.635725
      28A     -0.621189    29A     -0.590158    30A     -0.572276
      31A     -0.554804    32A     -0.538998    33A     -0.521009
      34A     -0.490510    35A     -0.472988    36A     -0.342519
      37A     -0.326955

  @DF-RHF Final Energy:  -518.47879022495897

   => Energetics <=

    Nuclear Repulsion Energy =            529.2998581876657909
    One-Electron Energy =               -1760.8065039928728766
    Two-Electron Energy =                 713.0278555802480014
    Total Energy =                       -518.4787902249589706
  Basis Set: (AUG-CC-PVTZ AUX)
    Blend: AUG-CC-PVTZ-RI
    Molecular point group: c1

    Geometry (in Angstrom), charge = 0, multiplicity = 1:

       Center              X                  Y                   Z               Mass
    ------------   -----------------  -----------------  -----------------  -----------------
         F            0.882405127940    -2.135392400529    -0.251262560741    18.998403162730
         O            1.648509127940     0.569822599471    -0.412083560741    15.994914619570
         O           -0.234531872060     2.484174599471    -0.122230560741    15.994914619570
         C            0.349889127940     0.168002599471    -0.162835560741    12.000000000000
         C           -0.617292872060     1.177187599471    -0.041578560741    12.000000000000
         C           -0.058305872060    -1.163882400529    -0.104844560741    12.000000000000
         C           -1.938061172060     0.853544099471     0.166074339259    12.000000000000
         C           -1.382896872060    -1.514587400529     0.117016439259    12.000000000000
         C           -2.329139872060    -0.493526400529     0.244533439259    12.000000000000
         C            2.572657127940     0.189317599471     0.628364439259    12.000000000000
         H           -2.685604872060     1.648741599471     0.261727439259     1.007825032230
         H           -1.655483872060    -2.564108400529     0.161413439259     1.007825032230
         H           -3.371379872060    -0.751315400529     0.411141439259     1.007825032230
         H            2.687148127940    -0.894736400529     0.660707439259     1.007825032230
         H            2.226573127940     0.559571599471     1.598524439259     1.007825032230
         H            3.520853127940     0.657901599471     0.365402439259     1.007825032230
         H            0.723652127940     2.463140599471    -0.324308560741     1.007825032230

  Basis Set: AUG-CC-PVTZ
    Blend: AUG-CC-PVTZ
  Basis Set: (AUG-CC-PVTZ AUX)
    Blend: AUG-CC-PVTZ-JKFIT
	 Reference Energy          =    -518.4787902249589706 [Eh]
	 Singles Energy            =      -0.0000000000000000 [Eh]
	 Same-Spin Energy          =      -0.5089292563994270 [Eh]
	 Opposite-Spin Energy      =      -1.5383358876159576 [Eh]
	 Correlation Energy        =      -2.0472651440153848 [Eh]
	 Total Energy              =    -520.5260553689743119 [Eh]

	 ================> DF-SCS-MP2 Energies <==================
	-----------------------------------------------------------
	 SCS Same-Spin Scale       =       0.3333333333333333 [-]
	 SCS Opposite-Spin Scale   =       1.2000000000000000 [-]
	 SCS Same-Spin Energy      =      -0.1696430854664757 [Eh]
	 SCS Opposite-Spin Energy  =      -1.8460030651391490 [Eh]
	 SCS Correlation Energy    =      -2.0156461506056247 [Eh]
	 SCS Total Energy          =    -520.4944363755646464 [Eh]
	-----------------------------------------------------------

  Dipole Moment: [D]
     X:     0.6414      Y:    -0.1949      Z:     1.1711     Total:     1.3493

*** Psi4 exiting successfully. Buy a developer a beer!
