                               Psi4 1.4a3.dev225

  ==> Input File <==

--------------------------------------------------------------------------
#psi4
#
memory 32 gb

molecule  {
0 1
  F        0.8801740    -2.1570240    -0.2741980
  O        1.6462780     0.5481910    -0.4350190
  O       -0.2367630     2.4625430    -0.1451660
  C        0.3476580     0.1463710    -0.1857710
  C       -0.6195240     1.1555560    -0.0645140
  C       -0.0605370    -1.1855140    -0.1277800
  C       -1.9594950     0.8272070     0.1461580
  C       -1.3851280    -1.5362190     0.0940810
  C       -2.3313710    -0.5151580     0.2215980
  C        2.5704260     0.1676860     0.6054290
  H       -2.6744199     1.6123758     0.2370857
  H       -1.6577150    -2.5857400     0.1384780
  H       -3.3736110    -0.7729470     0.3882060
  H        2.6849170    -0.9163680     0.6377720
  H        2.2243420     0.5379400     1.5755890
  H        3.5186220     0.6362700     0.3424670
  H        0.7214210     2.4415090    -0.3472440
units angstrom
no_reorient  #important for SAPT in psi4, default
symmetry c1  #important for SAPT in psi4, default
}

set PROPERTIES_ORIGIN ["COM"]
properties('MP2/aug-cc-pvtz', properties = ['dipole'])
--------------------------------------------------------------------------

    Molecular point group: c1
  Charge       = 0
  Multiplicity = 1
  Basis Set: AUG-CC-PVTZ
    Blend: AUG-CC-PVTZ
  Basis Set: (AUG-CC-PVTZ AUX)
    Blend: AUG-CC-PVTZ-JKFIT

    Orbital Energies [Eh]
    ---------------------

    Doubly Occupied:

       1A    -26.318243     2A    -20.598816     3A    -20.595731
       4A    -11.339329     5A    -11.315236     6A    -11.303629
       7A    -11.291350     8A    -11.254994     9A    -11.243836
      10A    -11.237589    11A     -1.630520    12A     -1.426656
      13A     -1.394491    14A     -1.158975    15A     -1.030443
      16A     -1.022002    17A     -0.947012    18A     -0.854137
      19A     -0.850216    20A     -0.759511    21A     -0.747451
      22A     -0.712410    23A     -0.700406    24A     -0.676853
      25A     -0.653913    26A     -0.648115    27A     -0.635125
      28A     -0.621171    29A     -0.589848    30A     -0.574291
      31A     -0.553708    32A     -0.541976    33A     -0.519968
      34A     -0.490588    35A     -0.473180    36A     -0.343409
      37A     -0.325071

  @DF-RHF Final Energy:  -518.47930115739291

   => Energetics <=

    Nuclear Repulsion Energy =            529.1040384501694689
    One-Electron Energy =               -1760.4062824922380059
    Two-Electron Energy =                 712.8229428846757401
    Total Energy =                       -518.4793011573929107
  Basis Set: (AUG-CC-PVTZ AUX)
    Blend: AUG-CC-PVTZ-RI
    Molecular point group: c1

    Geometry (in Angstrom), charge = 0, multiplicity = 1:

       Center              X                  Y                   Z               Mass
    ------------   -----------------  -----------------  -----------------  -----------------
         F            0.883932209929    -2.134890330791    -0.251505512145    18.998403162730
         O            1.650036209929     0.570324669209    -0.412326512145    15.994914619570
         O           -0.233004790071     2.484676669209    -0.122473512145    15.994914619570
         C            0.351416209929     0.168504669209    -0.163078512145    12.000000000000
         C           -0.615765790071     1.177689669209    -0.041821512145    12.000000000000
         C           -0.056778790071    -1.163380330791    -0.105087512145    12.000000000000
         C           -1.955736790071     0.849340669209     0.168850487855    12.000000000000
         C           -1.381369790071    -1.514085330791     0.116773487855    12.000000000000
         C           -2.327612790071    -0.493024330791     0.244290487855    12.000000000000
         C            2.574184209929     0.189819669209     0.628121487855    12.000000000000
         H           -2.670661690071     1.634509469209     0.259778187855     1.007825032230
         H           -1.653956790071    -2.563606330791     0.161170487855     1.007825032230
         H           -3.369852790071    -0.750813330791     0.410898487855     1.007825032230
         H            2.688675209929    -0.894234330791     0.660464487855     1.007825032230
         H            2.228100209929     0.560073669209     1.598281487855     1.007825032230
         H            3.522380209929     0.658403669209     0.365159487855     1.007825032230
         H            0.725179209929     2.463642669209    -0.324551512145     1.007825032230

  Basis Set: AUG-CC-PVTZ
    Blend: AUG-CC-PVTZ
  Basis Set: (AUG-CC-PVTZ AUX)
    Blend: AUG-CC-PVTZ-JKFIT
	 Reference Energy          =    -518.4793011573929107 [Eh]
	 Singles Energy            =      -0.0000000000000000 [Eh]
	 Same-Spin Energy          =      -0.5088627945556321 [Eh]
	 Opposite-Spin Energy      =      -1.5382210501774332 [Eh]
	 Correlation Energy        =      -2.0470838447330655 [Eh]
	 Total Energy              =    -520.5263850021259486 [Eh]

	 ================> DF-SCS-MP2 Energies <==================
	-----------------------------------------------------------
	 SCS Same-Spin Scale       =       0.3333333333333333 [-]
	 SCS Opposite-Spin Scale   =       1.2000000000000000 [-]
	 SCS Same-Spin Energy      =      -0.1696209315185440 [Eh]
	 SCS Opposite-Spin Energy  =      -1.8458652602129197 [Eh]
	 SCS Correlation Energy    =      -2.0154861917314637 [Eh]
	 SCS Total Energy          =    -520.4947873491244081 [Eh]
	-----------------------------------------------------------

  Dipole Moment: [D]
     X:     0.6469      Y:    -0.1647      Z:     1.1690     Total:     1.3462

*** Psi4 exiting successfully. Buy a developer a beer!
