                               Psi4 1.4a3.dev225

  ==> Input File <==

--------------------------------------------------------------------------
#psi4
#
memory 32 gb

molecule  {
0 1
  F        0.8801740    -2.1570240    -0.2741980
  O        1.6462780     0.5481910    -0.4350190
  O       -0.2367630     2.4625430    -0.1451660
  C        0.3476580     0.1463710    -0.1857710
  C       -0.6195240     1.1555560    -0.0645140
  C       -0.0605370    -1.1855140    -0.1277800
  C       -1.9594950     0.8272070     0.1461580
  C       -1.3851280    -1.5362190     0.0940810
  C       -2.3367027    -0.5344039     0.2226796
  C        2.5704260     0.1676860     0.6054290
  H       -2.6878360     1.6271100     0.2387920
  H       -1.6577150    -2.5857400     0.1384780
  H       -3.3736110    -0.7729470     0.3882060
  H        2.6849170    -0.9163680     0.6377720
  H        2.2243420     0.5379400     1.5755890
  H        3.5186220     0.6362700     0.3424670
  H        0.7214210     2.4415090    -0.3472440
units angstrom
no_reorient  #important for SAPT in psi4, default
symmetry c1  #important for SAPT in psi4, default
}

set PROPERTIES_ORIGIN ["COM"]
properties('MP2/aug-cc-pvtz', properties = ['dipole'])
--------------------------------------------------------------------------

    Molecular point group: c1
  Charge       = 0
  Multiplicity = 1
  Basis Set: AUG-CC-PVTZ
    Blend: AUG-CC-PVTZ
  Basis Set: (AUG-CC-PVTZ AUX)
    Blend: AUG-CC-PVTZ-JKFIT

    Orbital Energies [Eh]
    ---------------------

    Doubly Occupied:

       1A    -26.318512     2A    -20.599130     3A    -20.595411
       4A    -11.339433     5A    -11.315051     6A    -11.304399
       7A    -11.291570     8A    -11.255333     9A    -11.243553
      10A    -11.241281    11A     -1.630735    12A     -1.426726
      13A     -1.394471    14A     -1.158118    15A     -1.029172
      16A     -1.021693    17A     -0.947586    18A     -0.852628
      19A     -0.850554    20A     -0.759453    21A     -0.748060
      22A     -0.711462    23A     -0.700394    24A     -0.677315
      25A     -0.653925    26A     -0.646172    27A     -0.635690
      28A     -0.621035    29A     -0.589534    30A     -0.574111
      31A     -0.553298    32A     -0.540527    33A     -0.520775
      34A     -0.490331    35A     -0.473066    36A     -0.341039
      37A     -0.326704

  @DF-RHF Final Energy:  -518.47857660370812

   => Energetics <=

    Nuclear Repulsion Energy =            528.7946637615572172
    One-Electron Energy =               -1759.7899796591227641
    Two-Electron Energy =                 712.5167392938573130
    Total Energy =                       -518.4785766037081203
  Basis Set: (AUG-CC-PVTZ AUX)
    Blend: AUG-CC-PVTZ-RI
    Molecular point group: c1

    Geometry (in Angstrom), charge = 0, multiplicity = 1:

       Center              X                  Y                   Z               Mass
    ------------   -----------------  -----------------  -----------------  -----------------
         F            0.884477829757    -2.133368951400    -0.251608993845    18.998403162730
         O            1.650581829757     0.571846048600    -0.412429993845    15.994914619570
         O           -0.232459170243     2.486198048600    -0.122576993845    15.994914619570
         C            0.351961829757     0.170026048600    -0.163181993845    12.000000000000
         C           -0.615220170243     1.179211048600    -0.041924993845    12.000000000000
         C           -0.056233170243    -1.161858951400    -0.105190993845    12.000000000000
         C           -1.955191170243     0.850862048600     0.168747006155    12.000000000000
         C           -1.380824170243    -1.512563951400     0.116670006155    12.000000000000
         C           -2.332398870243    -0.510748851400     0.245268606155    12.000000000000
         C            2.574729829757     0.191341048600     0.628018006155    12.000000000000
         H           -2.683532170243     1.650765048600     0.261381006155     1.007825032230
         H           -1.653411170243    -2.562084951400     0.161067006155     1.007825032230
         H           -3.369307170243    -0.749291951400     0.410795006155     1.007825032230
         H            2.689220829757    -0.892712951400     0.660361006155     1.007825032230
         H            2.228645829757     0.561595048600     1.598178006155     1.007825032230
         H            3.522925829757     0.659925048600     0.365056006155     1.007825032230
         H            0.725724829757     2.465164048600    -0.324654993845     1.007825032230

  Basis Set: AUG-CC-PVTZ
    Blend: AUG-CC-PVTZ
  Basis Set: (AUG-CC-PVTZ AUX)
    Blend: AUG-CC-PVTZ-JKFIT
	 Reference Energy          =    -518.4785766037081203 [Eh]
	 Singles Energy            =      -0.0000000000000000 [Eh]
	 Same-Spin Energy          =      -0.5088966660775817 [Eh]
	 Opposite-Spin Energy      =      -1.5384242298546502 [Eh]
	 Correlation Energy        =      -2.0473208959322320 [Eh]
	 Total Energy              =    -520.5258974996403367 [Eh]

	 ================> DF-SCS-MP2 Energies <==================
	-----------------------------------------------------------
	 SCS Same-Spin Scale       =       0.3333333333333333 [-]
	 SCS Opposite-Spin Scale   =       1.2000000000000000 [-]
	 SCS Same-Spin Energy      =      -0.1696322220258605 [Eh]
	 SCS Opposite-Spin Energy  =      -1.8461090758255803 [Eh]
	 SCS Correlation Energy    =      -2.0157412978514406 [Eh]
	 SCS Total Energy          =    -520.4943179015596115 [Eh]
	-----------------------------------------------------------

  Dipole Moment: [D]
     X:     0.6534      Y:    -0.1807      Z:     1.1694     Total:     1.3517

*** Psi4 exiting successfully. Buy a developer a beer!
