                               Psi4 1.4a3.dev225

  ==> Input File <==

--------------------------------------------------------------------------
#psi4
#
memory 32 gb

molecule  {
0 1
  F        0.8801740    -2.1570240    -0.2741980
  O        1.6462780     0.5481910    -0.4350190
  O       -0.2367630     2.4625430    -0.1451660
  C        0.3476580     0.1463710    -0.1857710
  C       -0.6195240     1.1555560    -0.0645140
  C       -0.0605370    -1.1855140    -0.1277800
  C       -1.9594950     0.8272070     0.1461580
  C       -1.3851280    -1.5362190     0.0940810
  C       -2.3313710    -0.5151580     0.2215980
  C        2.5576146     0.1729609     0.5910053
  H       -2.6878360     1.6271100     0.2387920
  H       -1.6577150    -2.5857400     0.1384780
  H       -3.3736110    -0.7729470     0.3882060
  H        2.6849170    -0.9163680     0.6377720
  H        2.2243420     0.5379400     1.5755890
  H        3.5186220     0.6362700     0.3424670
  H        0.7214210     2.4415090    -0.3472440
units angstrom
no_reorient  #important for SAPT in psi4, default
symmetry c1  #important for SAPT in psi4, default
}

set PROPERTIES_ORIGIN ["COM"]
properties('MP2/aug-cc-pvtz', properties = ['dipole'])
--------------------------------------------------------------------------

    Molecular point group: c1
  Charge       = 0
  Multiplicity = 1
  Basis Set: AUG-CC-PVTZ
    Blend: AUG-CC-PVTZ
  Basis Set: (AUG-CC-PVTZ AUX)
    Blend: AUG-CC-PVTZ-JKFIT

    Orbital Energies [Eh]
    ---------------------

    Doubly Occupied:

       1A    -26.318607     2A    -20.600452     3A    -20.596402
       4A    -11.340187     5A    -11.316234     6A    -11.304657
       7A    -11.291080     8A    -11.255801     9A    -11.244453
      10A    -11.240397    11A     -1.630894    12A     -1.430569
      13A     -1.397759    14A     -1.159853    15A     -1.031384
      16A     -1.022482    17A     -0.945333    18A     -0.854525
      19A     -0.850073    20A     -0.760380    21A     -0.748335
      22A     -0.713380    23A     -0.700941    24A     -0.677448
      25A     -0.655944    26A     -0.647492    27A     -0.636730
      28A     -0.621855    29A     -0.590499    30A     -0.574314
      31A     -0.552778    32A     -0.540410    33A     -0.517742
      34A     -0.491024    35A     -0.471703    36A     -0.344340
      37A     -0.325974

  @DF-RHF Final Energy:  -518.47915331024615

   => Energetics <=

    Nuclear Repulsion Energy =            529.3972631827791702
    One-Electron Energy =               -1760.9479755512616066
    Two-Electron Energy =                 713.0715590582362893
    Total Energy =                       -518.4791533102461472
  Basis Set: (AUG-CC-PVTZ AUX)
    Blend: AUG-CC-PVTZ-RI
    Molecular point group: c1

    Geometry (in Angstrom), charge = 0, multiplicity = 1:

       Center              X                  Y                   Z               Mass
    ------------   -----------------  -----------------  -----------------  -----------------
         F            0.885109725699    -2.135440504269    -0.250299083536    18.998403162730
         O            1.651213725699     0.569774495731    -0.411120083536    15.994914619570
         O           -0.231827274301     2.484126495731    -0.121267083536    15.994914619570
         C            0.352593725699     0.167954495731    -0.161872083536    12.000000000000
         C           -0.614588274301     1.177139495731    -0.040615083536    12.000000000000
         C           -0.055601274301    -1.163930504269    -0.103881083536    12.000000000000
         C           -1.954559274301     0.848790495731     0.170056916464    12.000000000000
         C           -1.380192274301    -1.514635504269     0.117979916464    12.000000000000
         C           -2.326435274301    -0.493574504269     0.245496916464    12.000000000000
         C            2.562550325699     0.194544395731     0.614904216464    12.000000000000
         H           -2.682900274301     1.648693495731     0.262690916464     1.007825032230
         H           -1.652779274301    -2.564156504269     0.162376916464     1.007825032230
         H           -3.368675274301    -0.751363504269     0.412104916464     1.007825032230
         H            2.689852725699    -0.894784504269     0.661670916464     1.007825032230
         H            2.229277725699     0.559523495731     1.599487916464     1.007825032230
         H            3.523557725699     0.657853495731     0.366365916464     1.007825032230
         H            0.726356725699     2.463092495731    -0.323345083536     1.007825032230

  Basis Set: AUG-CC-PVTZ
    Blend: AUG-CC-PVTZ
  Basis Set: (AUG-CC-PVTZ AUX)
    Blend: AUG-CC-PVTZ-JKFIT
	 Reference Energy          =    -518.4791533102461472 [Eh]
	 Singles Energy            =      -0.0000000000000000 [Eh]
	 Same-Spin Energy          =      -0.5088885990230041 [Eh]
	 Opposite-Spin Energy      =      -1.5381241909622019 [Eh]
	 Correlation Energy        =      -2.0470127899852057 [Eh]
	 Total Energy              =    -520.5261661002313076 [Eh]

	 ================> DF-SCS-MP2 Energies <==================
	-----------------------------------------------------------
	 SCS Same-Spin Scale       =       0.3333333333333333 [-]
	 SCS Opposite-Spin Scale   =       1.2000000000000000 [-]
	 SCS Same-Spin Energy      =      -0.1696295330076680 [Eh]
	 SCS Opposite-Spin Energy  =      -1.8457490291546421 [Eh]
	 SCS Correlation Energy    =      -2.0153785621623101 [Eh]
	 SCS Total Energy          =    -520.4945318724084018 [Eh]
	-----------------------------------------------------------

  Dipole Moment: [D]
     X:     0.5690      Y:    -0.1577      Z:     1.1216     Total:     1.2675

*** Psi4 exiting successfully. Buy a developer a beer!
