                               Psi4 1.4a3.dev225

  ==> Input File <==

--------------------------------------------------------------------------
#psi4
#
memory 32 gb

molecule  {
0 1
  F        0.8801740    -2.1570240    -0.2741980
  O        1.6462780     0.5481910    -0.4350190
  O       -0.2367630     2.4625430    -0.1451660
  C        0.3476580     0.1463710    -0.1857710
  C       -0.6140155     1.1318353    -0.0650400
  C       -0.0605370    -1.1855140    -0.1277800
  C       -1.9594950     0.8272070     0.1461580
  C       -1.3851280    -1.5362190     0.0940810
  C       -2.3313710    -0.5151580     0.2215980
  C        2.5704260     0.1676860     0.6054290
  H       -2.6878360     1.6271100     0.2387920
  H       -1.6577150    -2.5857400     0.1384780
  H       -3.3736110    -0.7729470     0.3882060
  H        2.6849170    -0.9163680     0.6377720
  H        2.2243420     0.5379400     1.5755890
  H        3.5186220     0.6362700     0.3424670
  H        0.7214210     2.4415090    -0.3472440
units angstrom
no_reorient  #important for SAPT in psi4, default
symmetry c1  #important for SAPT in psi4, default
}

set PROPERTIES_ORIGIN ["COM"]
properties('MP2/aug-cc-pvtz', properties = ['dipole'])
--------------------------------------------------------------------------

    Molecular point group: c1
  Charge       = 0
  Multiplicity = 1
  Basis Set: AUG-CC-PVTZ
    Blend: AUG-CC-PVTZ
  Basis Set: (AUG-CC-PVTZ AUX)
    Blend: AUG-CC-PVTZ-JKFIT

    Orbital Energies [Eh]
    ---------------------

    Doubly Occupied:

       1A    -26.318954     2A    -20.599218     3A    -20.592169
       4A    -11.340307     5A    -11.313095     6A    -11.303072
       7A    -11.291659     8A    -11.255587     9A    -11.245096
      10A    -11.241265    11A     -1.631254    12A     -1.423418
      13A     -1.387619    14A     -1.161888    15A     -1.032666
      16A     -1.022874    17A     -0.947608    18A     -0.855454
      19A     -0.849753    20A     -0.755088    21A     -0.748015
      22A     -0.712009    23A     -0.700951    24A     -0.674575
      25A     -0.654137    26A     -0.647492    27A     -0.634185
      28A     -0.619495    29A     -0.585006    30A     -0.573286
      31A     -0.552907    32A     -0.542825    33A     -0.520851
      34A     -0.491318    35A     -0.474135    36A     -0.344203
      37A     -0.328721

  @DF-RHF Final Energy:  -518.47832909694114

   => Energetics <=

    Nuclear Repulsion Energy =            529.2074866812826031
    One-Electron Energy =               -1760.6273224479696182
    Two-Electron Energy =                 712.9415066697457632
    Total Energy =                       -518.4783290969411382
  Basis Set: (AUG-CC-PVTZ AUX)
    Blend: AUG-CC-PVTZ-RI
    Molecular point group: c1

    Geometry (in Angstrom), charge = 0, multiplicity = 1:

       Center              X                  Y                   Z               Mass
    ------------   -----------------  -----------------  -----------------  -----------------
         F            0.883562033886    -2.132990913784    -0.251473181457    18.998403162730
         O            1.649666033886     0.572224086216    -0.412294181457    15.994914619570
         O           -0.233374966114     2.486576086216    -0.122441181457    15.994914619570
         C            0.351046033886     0.170404086216    -0.163046181457    12.000000000000
         C           -0.610627466114     1.155868386216    -0.042315181457    12.000000000000
         C           -0.057148966114    -1.161480913784    -0.105055181457    12.000000000000
         C           -1.956106966114     0.851240086216     0.168882818543    12.000000000000
         C           -1.381739966114    -1.512185913784     0.116805818543    12.000000000000
         C           -2.327982966114    -0.491124913784     0.244322818543    12.000000000000
         C            2.573814033886     0.191719086216     0.628153818543    12.000000000000
         H           -2.684447966114     1.651143086216     0.261516818543     1.007825032230
         H           -1.654326966114    -2.561706913784     0.161202818543     1.007825032230
         H           -3.370222966114    -0.748913913784     0.410930818543     1.007825032230
         H            2.688305033886    -0.892334913784     0.660496818543     1.007825032230
         H            2.227730033886     0.561973086216     1.598313818543     1.007825032230
         H            3.522010033886     0.660303086216     0.365191818543     1.007825032230
         H            0.724809033886     2.465542086216    -0.324519181457     1.007825032230

  Basis Set: AUG-CC-PVTZ
    Blend: AUG-CC-PVTZ
  Basis Set: (AUG-CC-PVTZ AUX)
    Blend: AUG-CC-PVTZ-JKFIT
	 Reference Energy          =    -518.4783290969411382 [Eh]
	 Singles Energy            =      -0.0000000000000000 [Eh]
	 Same-Spin Energy          =      -0.5088674630739189 [Eh]
	 Opposite-Spin Energy      =      -1.5385496144128450 [Eh]
	 Correlation Energy        =      -2.0474170774867639 [Eh]
	 Total Energy              =    -520.5257461744279226 [Eh]

	 ================> DF-SCS-MP2 Energies <==================
	-----------------------------------------------------------
	 SCS Same-Spin Scale       =       0.3333333333333333 [-]
	 SCS Opposite-Spin Scale   =       1.2000000000000000 [-]
	 SCS Same-Spin Energy      =      -0.1696224876913063 [Eh]
	 SCS Opposite-Spin Energy  =      -1.8462595372954138 [Eh]
	 SCS Correlation Energy    =      -2.0158820249867202 [Eh]
	 SCS Total Energy          =    -520.4942111219278331 [Eh]
	-----------------------------------------------------------

  Dipole Moment: [D]
     X:     0.6041      Y:    -0.2941      Z:     1.1820     Total:     1.3596

*** Psi4 exiting successfully. Buy a developer a beer!
