                               Psi4 1.4a3.dev225

  ==> Input File <==

--------------------------------------------------------------------------
#psi4
#
memory 32 gb

molecule  {
0 1
  F        0.8801740    -2.1570240    -0.2741980
  O        1.6462780     0.5481910    -0.4350190
  O       -0.2367630     2.4625430    -0.1451660
  C        0.3476580     0.1463710    -0.1857710
  C       -0.6195240     1.1555560    -0.0645140
  C       -0.0605370    -1.1855140    -0.1277800
  C       -1.9594950     0.8272070     0.1461580
  C       -1.3851280    -1.5362190     0.0940810
  C       -2.3313710    -0.5151580     0.2215980
  C        2.5704260     0.1676860     0.6054290
  H       -2.6878360     1.6271100     0.2387920
  H       -1.6577150    -2.5857400     0.1384780
  H       -3.3736110    -0.7729470     0.3882060
  H        2.6849170    -0.9163680     0.6377720
  H        2.2559604     0.5041134     1.4869547
  H        3.5186220     0.6362700     0.3424670
  H        0.7214210     2.4415090    -0.3472440
units angstrom
no_reorient  #important for SAPT in psi4, default
symmetry c1  #important for SAPT in psi4, default
}

set PROPERTIES_ORIGIN ["COM"]
properties('MP2/aug-cc-pvtz', properties = ['dipole'])
--------------------------------------------------------------------------

    Molecular point group: c1
  Charge       = 0
  Multiplicity = 1
  Basis Set: AUG-CC-PVTZ
    Blend: AUG-CC-PVTZ
  Basis Set: (AUG-CC-PVTZ AUX)
    Blend: AUG-CC-PVTZ-JKFIT

    Orbital Energies [Eh]
    ---------------------

    Doubly Occupied:

       1A    -26.318019     2A    -20.597368     3A    -20.595617
       4A    -11.339138     5A    -11.315164     6A    -11.303489
       7A    -11.279232     8A    -11.254958     9A    -11.243827
      10A    -11.239737    11A     -1.630300    12A     -1.426271
      13A     -1.394146    14A     -1.158852    15A     -1.031181
      16A     -1.021896    17A     -0.956696    18A     -0.853607
      19A     -0.851266    20A     -0.759330    21A     -0.748986
      22A     -0.713630    23A     -0.700674    24A     -0.676673
      25A     -0.657336    26A     -0.646048    27A     -0.636599
      28A     -0.623642    29A     -0.590688    30A     -0.573562
      31A     -0.554899    32A     -0.544241    33A     -0.521346
      34A     -0.490523    35A     -0.474888    36A     -0.343221
      37A     -0.324938

  @DF-RHF Final Energy:  -518.47336930400081

   => Energetics <=

    Nuclear Repulsion Energy =            529.4510968682277507
    One-Electron Energy =               -1761.0649548993451390
    Two-Electron Energy =                 713.1404887271165762
    Total Energy =                       -518.4733693040008120
  Basis Set: (AUG-CC-PVTZ AUX)
    Blend: AUG-CC-PVTZ-RI
    Molecular point group: c1

    Geometry (in Angstrom), charge = 0, multiplicity = 1:

       Center              X                  Y                   Z               Mass
    ------------   -----------------  -----------------  -----------------  -----------------
         F            0.883803060780    -2.134754866195    -0.250888739691    18.998403162730
         O            1.649907060780     0.570460133805    -0.411709739691    15.994914619570
         O           -0.233133939220     2.484812133805    -0.121856739691    15.994914619570
         C            0.351287060780     0.168640133805    -0.162461739691    12.000000000000
         C           -0.615894939220     1.177825133805    -0.041204739691    12.000000000000
         C           -0.056907939220    -1.163244866195    -0.104470739691    12.000000000000
         C           -1.955865939220     0.849476133805     0.169467260309    12.000000000000
         C           -1.381498939220    -1.513949866195     0.117390260309    12.000000000000
         C           -2.327741939220    -0.492888866195     0.244907260309    12.000000000000
         C            2.574055060780     0.189955133805     0.628738260309    12.000000000000
         H           -2.684206939220     1.649379133805     0.262101260309     1.007825032230
         H           -1.654085939220    -2.563470866195     0.161787260309     1.007825032230
         H           -3.369981939220    -0.750677866195     0.411515260309     1.007825032230
         H            2.688546060780    -0.894098866195     0.661081260309     1.007825032230
         H            2.259589460780     0.526382533805     1.510263960309     1.007825032230
         H            3.522251060780     0.658539133805     0.365776260309     1.007825032230
         H            0.725050060780     2.463778133805    -0.323934739691     1.007825032230

  Basis Set: AUG-CC-PVTZ
    Blend: AUG-CC-PVTZ
  Basis Set: (AUG-CC-PVTZ AUX)
    Blend: AUG-CC-PVTZ-JKFIT
	 Reference Energy          =    -518.4733693040008120 [Eh]
	 Singles Energy            =      -0.0000000000000000 [Eh]
	 Same-Spin Energy          =      -0.5088511085492787 [Eh]
	 Opposite-Spin Energy      =      -1.5377932537393917 [Eh]
	 Correlation Energy        =      -2.0466443622886703 [Eh]
	 Total Energy              =    -520.5200136662895147 [Eh]

	 ================> DF-SCS-MP2 Energies <==================
	-----------------------------------------------------------
	 SCS Same-Spin Scale       =       0.3333333333333333 [-]
	 SCS Opposite-Spin Scale   =       1.2000000000000000 [-]
	 SCS Same-Spin Energy      =      -0.1696170361830929 [Eh]
	 SCS Opposite-Spin Energy  =      -1.8453519044872699 [Eh]
	 SCS Correlation Energy    =      -2.0149689406703630 [Eh]
	 SCS Total Energy          =    -520.4883382446711266 [Eh]
	-----------------------------------------------------------

  Dipole Moment: [D]
     X:     0.6683      Y:    -0.1526      Z:     1.2174     Total:     1.3972

*** Psi4 exiting successfully. Buy a developer a beer!
