                               Psi4 1.4a3.dev225

  ==> Input File <==

--------------------------------------------------------------------------
#psi4
#
memory 32 gb

molecule  {
0 1
  F        0.8801740    -2.1570240    -0.2741980
  O        1.6462780     0.5481910    -0.4350190
  O       -0.2367630     2.4625430    -0.1451660
  C        0.3476580     0.1463710    -0.1857710
  C       -0.6195240     1.1555560    -0.0645140
  C       -0.0605370    -1.1855140    -0.1277800
  C       -1.9594950     0.8272070     0.1461580
  C       -1.3851280    -1.5362190     0.0940810
  C       -2.3313710    -0.5151580     0.2215980
  C        2.5063689     0.1940606     0.5333106
  H       -2.6878360     1.6271100     0.2387920
  H       -1.6577150    -2.5857400     0.1384780
  H       -3.3736110    -0.7729470     0.3882060
  H        2.6849170    -0.9163680     0.6377720
  H        2.2243420     0.5379400     1.5755890
  H        3.5186220     0.6362700     0.3424670
  H        0.7214210     2.4415090    -0.3472440
units angstrom
no_reorient  #important for SAPT in psi4, default
symmetry c1  #important for SAPT in psi4, default
}

set PROPERTIES_ORIGIN ["COM"]
properties('MP2/aug-cc-pvtz', properties = ['dipole'])
--------------------------------------------------------------------------

    Molecular point group: c1
  Charge       = 0
  Multiplicity = 1
  Basis Set: AUG-CC-PVTZ
    Blend: AUG-CC-PVTZ
  Basis Set: (AUG-CC-PVTZ AUX)
    Blend: AUG-CC-PVTZ-JKFIT

    Orbital Energies [Eh]
    ---------------------

    Doubly Occupied:

       1A    -26.319960     2A    -20.606683     3A    -20.599298
       4A    -11.343640     5A    -11.319801     6A    -11.308573
       7A    -11.291561     8A    -11.258611     9A    -11.246599
      10A    -11.242701    11A     -1.632288    12A     -1.453653
      13A     -1.407386    14A     -1.163689    15A     -1.037570
      16A     -1.025435    17A     -0.939501    18A     -0.857832
      19A     -0.851193    20A     -0.764456    21A     -0.752274
      22A     -0.723006    23A     -0.703690    24A     -0.680521
      25A     -0.669014    26A     -0.651486    27A     -0.643428
      28A     -0.625365    29A     -0.593695    30A     -0.576891
      31A     -0.550115    32A     -0.539660    33A     -0.504610
      34A     -0.492367    35A     -0.461094    36A     -0.347973
      37A     -0.329255

  @DF-RHF Final Energy:  -518.47120300210315

   => Energetics <=

    Nuclear Repulsion Energy =            531.0692539218400725
    One-Electron Energy =               -1764.0511646780059891
    Two-Electron Energy =                 714.5107077540627643
    Total Energy =                       -518.4712030021031524
  Basis Set: (AUG-CC-PVTZ AUX)
    Blend: AUG-CC-PVTZ-RI
    Molecular point group: c1

    Geometry (in Angstrom), charge = 0, multiplicity = 1:

       Center              X                  Y                   Z               Mass
    ------------   -----------------  -----------------  -----------------  -----------------
         F            0.889439037013    -2.137223037632    -0.245424951317    18.998403162730
         O            1.655543037013     0.567991962368    -0.406245951317    15.994914619570
         O           -0.227497962987     2.482343962368    -0.116392951317    15.994914619570
         C            0.356923037013     0.166171962368    -0.156997951317    12.000000000000
         C           -0.610258962987     1.175356962368    -0.035740951317    12.000000000000
         C           -0.051271962987    -1.165713037632    -0.099006951317    12.000000000000
         C           -1.950229962987     0.847007962368     0.174931048683    12.000000000000
         C           -1.375862962987    -1.516418037632     0.122854048683    12.000000000000
         C           -2.322105962987    -0.495357037632     0.250371048683    12.000000000000
         C            2.515633937013     0.213861562368     0.562083648683    12.000000000000
         H           -2.678570962987     1.646910962368     0.267565048683     1.007825032230
         H           -1.648449962987    -2.565939037632     0.167251048683     1.007825032230
         H           -3.364345962987    -0.753146037632     0.416979048683     1.007825032230
         H            2.694182037013    -0.896567037632     0.666545048683     1.007825032230
         H            2.233607037013     0.557740962368     1.604362048683     1.007825032230
         H            3.527887037013     0.656070962368     0.371240048683     1.007825032230
         H            0.730686037013     2.461309962368    -0.318470951317     1.007825032230

  Basis Set: AUG-CC-PVTZ
    Blend: AUG-CC-PVTZ
  Basis Set: (AUG-CC-PVTZ AUX)
    Blend: AUG-CC-PVTZ-JKFIT
	 Reference Energy          =    -518.4712030021031524 [Eh]
	 Singles Energy            =      -0.0000000000000000 [Eh]
	 Same-Spin Energy          =      -0.5090455368979463 [Eh]
	 Opposite-Spin Energy      =      -1.5376245999328124 [Eh]
	 Correlation Energy        =      -2.0466701368307589 [Eh]
	 Total Energy              =    -520.5178731389339646 [Eh]

	 ================> DF-SCS-MP2 Energies <==================
	-----------------------------------------------------------
	 SCS Same-Spin Scale       =       0.3333333333333333 [-]
	 SCS Opposite-Spin Scale   =       1.2000000000000000 [-]
	 SCS Same-Spin Energy      =      -0.1696818456326488 [Eh]
	 SCS Opposite-Spin Energy  =      -1.8451495199193748 [Eh]
	 SCS Correlation Energy    =      -2.0148313655520234 [Eh]
	 SCS Total Energy          =    -520.4860343676551793 [Eh]
	-----------------------------------------------------------

  Dipole Moment: [D]
     X:     0.2211      Y:    -0.1212      Z:     0.9127     Total:     0.9468

*** Psi4 exiting successfully. Buy a developer a beer!
