                               Psi4 1.4a3.dev225

  ==> Input File <==

--------------------------------------------------------------------------
#psi4
#
memory 32 gb

molecule  {
0 1
  F        0.8801740    -2.1570240    -0.2741980
  O        1.5421605     0.4676214    -0.3610462
  O       -0.2367630     2.4625430    -0.1451660
  C        0.3476580     0.1463710    -0.1857710
  C       -0.6195240     1.1555560    -0.0645140
  C       -0.0605370    -1.1855140    -0.1277800
  C       -1.9594950     0.8272070     0.1461580
  C       -1.3851280    -1.5362190     0.0940810
  C       -2.3313710    -0.5151580     0.2215980
  C        2.5704260     0.1676860     0.6054290
  H       -2.6878360     1.6271100     0.2387920
  H       -1.6577150    -2.5857400     0.1384780
  H       -3.3736110    -0.7729470     0.3882060
  H        2.6849170    -0.9163680     0.6377720
  H        2.2243420     0.5379400     1.5755890
  H        3.5186220     0.6362700     0.3424670
  H        0.7214210     2.4415090    -0.3472440
units angstrom
no_reorient  #important for SAPT in psi4, default
symmetry c1  #important for SAPT in psi4, default
}

set PROPERTIES_ORIGIN ["COM"]
properties('MP2/aug-cc-pvtz', properties = ['dipole'])
--------------------------------------------------------------------------

    Molecular point group: c1
  Charge       = 0
  Multiplicity = 1
  Basis Set: AUG-CC-PVTZ
    Blend: AUG-CC-PVTZ
  Basis Set: (AUG-CC-PVTZ AUX)
    Blend: AUG-CC-PVTZ-JKFIT

    Orbital Energies [Eh]
    ---------------------

    Doubly Occupied:

       1A    -26.314027     2A    -20.594553     3A    -20.593709
       4A    -11.325624     5A    -11.304489     6A    -11.303476
       7A    -11.296840     8A    -11.245667     9A    -11.238114
      10A    -11.234703    11A     -1.626646    12A     -1.470941
      13A     -1.401907    14A     -1.151256    15A     -1.035947
      16A     -1.016796    17A     -0.959154    18A     -0.855765
      19A     -0.842757    20A     -0.762936    21A     -0.750480
      22A     -0.726213    23A     -0.702574    24A     -0.676381
      25A     -0.670066    26A     -0.644989    27A     -0.639071
      28A     -0.623780    29A     -0.590668    30A     -0.571371
      31A     -0.552778    32A     -0.544234    33A     -0.526852
      34A     -0.480952    35A     -0.467841    36A     -0.332871
      37A     -0.313311

  @DF-RHF Final Energy:  -518.46715866072259

   => Energetics <=

    Nuclear Repulsion Energy =            533.3155884468551449
    One-Electron Energy =               -1768.7860119232279885
    Two-Electron Energy =                 717.0032648156502546
    Total Energy =                       -518.4671586607225890
  Basis Set: (AUG-CC-PVTZ AUX)
    Blend: AUG-CC-PVTZ-RI
    Molecular point group: c1

    Geometry (in Angstrom), charge = 0, multiplicity = 1:

       Center              X                  Y                   Z               Mass
    ------------   -----------------  -----------------  -----------------  -----------------
         F            0.895751669629    -2.125922241487    -0.259847410080    18.998403162730
         O            1.557738169629     0.498723158513    -0.346695610080    15.994914619570
         O           -0.221185330371     2.493644758513    -0.130815410080    15.994914619570
         C            0.363235669629     0.177472758513    -0.171420410080    12.000000000000
         C           -0.603946330371     1.186657758513    -0.050163410080    12.000000000000
         C           -0.044959330371    -1.154412241487    -0.113429410080    12.000000000000
         C           -1.943917330371     0.858308758513     0.160508589920    12.000000000000
         C           -1.369550330371    -1.505117241487     0.108431589920    12.000000000000
         C           -2.315793330371    -0.484056241487     0.235948589920    12.000000000000
         C            2.586003669629     0.198787758513     0.619779589920    12.000000000000
         H           -2.672258330371     1.658211758513     0.253142589920     1.007825032230
         H           -1.642137330371    -2.554638241487     0.152828589920     1.007825032230
         H           -3.358033330371    -0.741845241487     0.402556589920     1.007825032230
         H            2.700494669629    -0.885266241487     0.652122589920     1.007825032230
         H            2.239919669629     0.569041758513     1.589939589920     1.007825032230
         H            3.534199669629     0.667371758513     0.356817589920     1.007825032230
         H            0.736998669629     2.472610758513    -0.332893410080     1.007825032230

  Basis Set: AUG-CC-PVTZ
    Blend: AUG-CC-PVTZ
  Basis Set: (AUG-CC-PVTZ AUX)
    Blend: AUG-CC-PVTZ-JKFIT
	 Reference Energy          =    -518.4671586607225890 [Eh]
	 Singles Energy            =      -0.0000000000000000 [Eh]
	 Same-Spin Energy          =      -0.5090578640895937 [Eh]
	 Opposite-Spin Energy      =      -1.5357797239062407 [Eh]
	 Correlation Energy        =      -2.0448375879958345 [Eh]
	 Total Energy              =    -520.5119962487184466 [Eh]

	 ================> DF-SCS-MP2 Energies <==================
	-----------------------------------------------------------
	 SCS Same-Spin Scale       =       0.3333333333333333 [-]
	 SCS Opposite-Spin Scale   =       1.2000000000000000 [-]
	 SCS Same-Spin Energy      =      -0.1696859546965312 [Eh]
	 SCS Opposite-Spin Energy  =      -1.8429356686874887 [Eh]
	 SCS Correlation Energy    =      -2.0126216233840197 [Eh]
	 SCS Total Energy          =    -520.4797802841065959 [Eh]
	-----------------------------------------------------------

  Dipole Moment: [D]
     X:     1.4879      Y:     0.0681      Z:     1.0848     Total:     1.8426

*** Psi4 exiting successfully. Buy a developer a beer!
