                               Psi4 1.4a3.dev225

  ==> Input File <==

--------------------------------------------------------------------------
#psi4
#
memory 32 gb

molecule  {
0 1
  F        0.8801740    -2.1570240    -0.2741980
  O        1.6462780     0.5481910    -0.4350190
  O       -0.2367630     2.4625430    -0.1451660
  C        0.3476580     0.1463710    -0.1857710
  C       -0.6195240     1.1555560    -0.0645140
  C       -0.0605370    -1.1855140    -0.1277800
  C       -1.9594950     0.8272070     0.1461580
  C       -1.3851280    -1.5362190     0.0940810
  C       -2.3313710    -0.5151580     0.2215980
  C        2.5704260     0.1676860     0.6054290
  H       -2.6878360     1.6271100     0.2387920
  H       -1.6577150    -2.5857400     0.1384780
  H       -3.3736110    -0.7729470     0.3882060
  H        2.6849170    -0.9163680     0.6377720
  H        2.2243420     0.5379400     1.5755890
  H        3.5186220     0.6362700     0.3424670
  H        0.7703335     2.4404353    -0.3575595
units angstrom
no_reorient  #important for SAPT in psi4, default
symmetry c1  #important for SAPT in psi4, default
}

set PROPERTIES_ORIGIN ["COM"]
properties('MP2/aug-cc-pvtz', properties = ['dipole'])
--------------------------------------------------------------------------

    Molecular point group: c1
  Charge       = 0
  Multiplicity = 1
  Basis Set: AUG-CC-PVTZ
    Blend: AUG-CC-PVTZ
  Basis Set: (AUG-CC-PVTZ AUX)
    Blend: AUG-CC-PVTZ-JKFIT

    Orbital Energies [Eh]
    ---------------------

    Doubly Occupied:

       1A    -26.318140     2A    -20.599690     3A    -20.598109
       4A    -11.339179     5A    -11.314821     6A    -11.303259
       7A    -11.291840     8A    -11.254868     9A    -11.243461
      10A    -11.239336    11A     -1.630436    12A     -1.423460
      13A     -1.388063    14A     -1.158080    15A     -1.029881
      16A     -1.019978    17A     -0.947171    18A     -0.852320
      19A     -0.848068    20A     -0.753172    21A     -0.746993
      22A     -0.711395    23A     -0.700136    24A     -0.673765
      25A     -0.653955    26A     -0.646202    27A     -0.634395
      28A     -0.620293    29A     -0.587731    30A     -0.570659
      31A     -0.553686    32A     -0.539766    33A     -0.519033
      34A     -0.490125    35A     -0.473489    36A     -0.343255
      37A     -0.324344

  @DF-RHF Final Energy:  -518.47396275373171

   => Energetics <=

    Nuclear Repulsion Energy =            528.7553851839719528
    One-Electron Energy =               -1759.7735895193789020
    Two-Electron Energy =                 712.5442415816753510
    Total Energy =                       -518.4739627537317119
  Basis Set: (AUG-CC-PVTZ AUX)
    Blend: AUG-CC-PVTZ-RI
    Molecular point group: c1

    Geometry (in Angstrom), charge = 0, multiplicity = 1:

       Center              X                  Y                   Z               Mass
    ------------   -----------------  -----------------  -----------------  -----------------
         F            0.883680355501    -2.134987254913    -0.251444428059    18.998403162730
         O            1.649784355501     0.570227745087    -0.412265428059    15.994914619570
         O           -0.233256644499     2.484579745087    -0.122412428059    15.994914619570
         C            0.351164355501     0.168407745087    -0.163017428059    12.000000000000
         C           -0.616017644499     1.177592745087    -0.041760428059    12.000000000000
         C           -0.057030644499    -1.163477254913    -0.105026428059    12.000000000000
         C           -1.955988644499     0.849243745087     0.168911571941    12.000000000000
         C           -1.381621644499    -1.514182254913     0.116834571941    12.000000000000
         C           -2.327864644499    -0.493121254913     0.244351571941    12.000000000000
         C            2.573932355501     0.189722745087     0.628182571941    12.000000000000
         H           -2.684329644499     1.649146745087     0.261545571941     1.007825032230
         H           -1.654208644499    -2.563703254913     0.161231571941     1.007825032230
         H           -3.370104644499    -0.750910254913     0.410959571941     1.007825032230
         H            2.688423355501    -0.894331254913     0.660525571941     1.007825032230
         H            2.227848355501     0.559976745087     1.598342571941     1.007825032230
         H            3.522128355501     0.658306745087     0.365220571941     1.007825032230
         H            0.773839855501     2.462472045087    -0.334805928059     1.007825032230

  Basis Set: AUG-CC-PVTZ
    Blend: AUG-CC-PVTZ
  Basis Set: (AUG-CC-PVTZ AUX)
    Blend: AUG-CC-PVTZ-JKFIT
	 Reference Energy          =    -518.4739627537317119 [Eh]
	 Singles Energy            =      -0.0000000000000000 [Eh]
	 Same-Spin Energy          =      -0.5096563170972155 [Eh]
	 Opposite-Spin Energy      =      -1.5400140539417908 [Eh]
	 Correlation Energy        =      -2.0496703710390065 [Eh]
	 Total Energy              =    -520.5236331247707540 [Eh]

	 ================> DF-SCS-MP2 Energies <==================
	-----------------------------------------------------------
	 SCS Same-Spin Scale       =       0.3333333333333333 [-]
	 SCS Opposite-Spin Scale   =       1.2000000000000000 [-]
	 SCS Same-Spin Energy      =      -0.1698854390324052 [Eh]
	 SCS Opposite-Spin Energy  =      -1.8480168647301489 [Eh]
	 SCS Correlation Energy    =      -2.0179023037625541 [Eh]
	 SCS Total Energy          =    -520.4918650574942376 [Eh]
	-----------------------------------------------------------

  Dipole Moment: [D]
     X:     0.7212      Y:    -0.1569      Z:     1.1582     Total:     1.3734

*** Psi4 exiting successfully. Buy a developer a beer!
