                               Psi4 1.4a3.dev225

  ==> Input File <==

--------------------------------------------------------------------------
#psi4
#
memory 32 gb

molecule  {
0 1
  F        0.8801740    -2.1570240    -0.2741980
  O        1.6462780     0.5481910    -0.4350190
  O       -0.2367630     2.4625430    -0.1451660
  C        0.3476580     0.1463710    -0.1857710
  C       -0.6195240     1.1555560    -0.0645140
  C       -0.0751756    -1.2332779    -0.1257003
  C       -1.9594950     0.8272070     0.1461580
  C       -1.3851280    -1.5362190     0.0940810
  C       -2.3313710    -0.5151580     0.2215980
  C        2.5704260     0.1676860     0.6054290
  H       -2.6878360     1.6271100     0.2387920
  H       -1.6577150    -2.5857400     0.1384780
  H       -3.3736110    -0.7729470     0.3882060
  H        2.6849170    -0.9163680     0.6377720
  H        2.2243420     0.5379400     1.5755890
  H        3.5186220     0.6362700     0.3424670
  H        0.7214210     2.4415090    -0.3472440
units angstrom
no_reorient  #important for SAPT in psi4, default
symmetry c1  #important for SAPT in psi4, default
}

set PROPERTIES_ORIGIN ["COM"]
properties('MP2/aug-cc-pvtz', properties = ['dipole'])
--------------------------------------------------------------------------

    Molecular point group: c1
  Charge       = 0
  Multiplicity = 1
  Basis Set: AUG-CC-PVTZ
    Blend: AUG-CC-PVTZ
  Basis Set: (AUG-CC-PVTZ AUX)
    Blend: AUG-CC-PVTZ-JKFIT

    Orbital Energies [Eh]
    ---------------------

    Doubly Occupied:

       1A    -26.324838     2A    -20.598038     3A    -20.593758
       4A    -11.341380     5A    -11.312965     6A    -11.305095
       7A    -11.290803     8A    -11.254861     9A    -11.241033
      10A    -11.240360    11A     -1.644529    12A     -1.424758
      13A     -1.392793    14A     -1.156307    15A     -1.026778
      16A     -1.022278    17A     -0.945171    18A     -0.853264
      19A     -0.850665    20A     -0.759501    21A     -0.753099
      22A     -0.715207    23A     -0.707186    24A     -0.678436
      25A     -0.653044    26A     -0.647701    27A     -0.633909
      28A     -0.619800    29A     -0.588199    30A     -0.573623
      31A     -0.552887    32A     -0.537816    33A     -0.519654
      34A     -0.488594    35A     -0.470863    36A     -0.339060
      37A     -0.324944

  @DF-RHF Final Energy:  -518.47630936215614

   => Energetics <=

    Nuclear Repulsion Energy =            528.5969175669132483
    One-Electron Energy =               -1759.3800583802064921
    Two-Electron Energy =                 712.3068314511372137
    Total Energy =                       -518.4763093621561438
  Basis Set: (AUG-CC-PVTZ AUX)
    Blend: AUG-CC-PVTZ-RI
    Molecular point group: c1

    Geometry (in Angstrom), charge = 0, multiplicity = 1:

       Center              X                  Y                   Z               Mass
    ------------   -----------------  -----------------  -----------------  -----------------
         F            0.885264090214    -2.130959709258    -0.251693314785    18.998403162730
         O            1.651368090214     0.574255290742    -0.412514314785    15.994914619570
         O           -0.231672909786     2.488607290742    -0.122661314785    15.994914619570
         C            0.352748090214     0.172435290742    -0.163266314785    12.000000000000
         C           -0.614433909786     1.181620290742    -0.042009314785    12.000000000000
         C           -0.070085509786    -1.207213609258    -0.103195614785    12.000000000000
         C           -1.954404909786     0.853271290742     0.168662685215    12.000000000000
         C           -1.380037909786    -1.510154709258     0.116585685215    12.000000000000
         C           -2.326280909786    -0.489093709258     0.244102685215    12.000000000000
         C            2.575516090214     0.193750290742     0.627933685215    12.000000000000
         H           -2.682745909786     1.653174290742     0.261296685215     1.007825032230
         H           -1.652624909786    -2.559675709258     0.160982685215     1.007825032230
         H           -3.368520909786    -0.746882709258     0.410710685215     1.007825032230
         H            2.690007090214    -0.890303709258     0.660276685215     1.007825032230
         H            2.229432090214     0.564004290742     1.598093685215     1.007825032230
         H            3.523712090214     0.662334290742     0.364971685215     1.007825032230
         H            0.726511090214     2.467573290742    -0.324739314785     1.007825032230

  Basis Set: AUG-CC-PVTZ
    Blend: AUG-CC-PVTZ
  Basis Set: (AUG-CC-PVTZ AUX)
    Blend: AUG-CC-PVTZ-JKFIT
	 Reference Energy          =    -518.4763093621561438 [Eh]
	 Singles Energy            =      -0.0000000000000000 [Eh]
	 Same-Spin Energy          =      -0.5089385809728977 [Eh]
	 Opposite-Spin Energy      =      -1.5383034895256886 [Eh]
	 Correlation Energy        =      -2.0472420704985863 [Eh]
	 Total Energy              =    -520.5235514326546991 [Eh]

	 ================> DF-SCS-MP2 Energies <==================
	-----------------------------------------------------------
	 SCS Same-Spin Scale       =       0.3333333333333333 [-]
	 SCS Opposite-Spin Scale   =       1.2000000000000000 [-]
	 SCS Same-Spin Energy      =      -0.1696461936576326 [Eh]
	 SCS Opposite-Spin Energy  =      -1.8459641874308264 [Eh]
	 SCS Correlation Energy    =      -2.0156103810884587 [Eh]
	 SCS Total Energy          =    -520.4919197432445799 [Eh]
	-----------------------------------------------------------

  Dipole Moment: [D]
     X:     0.7015      Y:    -0.3135      Z:     1.1538     Total:     1.3862

*** Psi4 exiting successfully. Buy a developer a beer!
