                               Psi4 1.4a3.dev225

  ==> Input File <==

--------------------------------------------------------------------------
#psi4
#
memory 32 gb

molecule  {
0 1
  F        0.8801740    -2.1570240    -0.2741980
  O        1.6462780     0.5481910    -0.4350190
  O       -0.2367630     2.4625430    -0.1451660
  C        0.3476580     0.1463710    -0.1857710
  C       -0.6195240     1.1555560    -0.0645140
  C       -0.0605370    -1.1855140    -0.1277800
  C       -1.9594950     0.8272070     0.1461580
  C       -1.3851280    -1.5362190     0.0940810
  C       -2.3313710    -0.5151580     0.2215980
  C        2.6344831     0.1413114     0.6775474
  H       -2.6878360     1.6271100     0.2387920
  H       -1.6577150    -2.5857400     0.1384780
  H       -3.3736110    -0.7729470     0.3882060
  H        2.6849170    -0.9163680     0.6377720
  H        2.2243420     0.5379400     1.5755890
  H        3.5186220     0.6362700     0.3424670
  H        0.7214210     2.4415090    -0.3472440
units angstrom
no_reorient  #important for SAPT in psi4, default
symmetry c1  #important for SAPT in psi4, default
}

set PROPERTIES_ORIGIN ["COM"]
properties('MP2/aug-cc-pvtz', properties = ['dipole'])
--------------------------------------------------------------------------

    Molecular point group: c1
  Charge       = 0
  Multiplicity = 1
  Basis Set: AUG-CC-PVTZ
    Blend: AUG-CC-PVTZ
  Basis Set: (AUG-CC-PVTZ AUX)
    Blend: AUG-CC-PVTZ-JKFIT

    Orbital Energies [Eh]
    ---------------------

    Doubly Occupied:

       1A    -26.316645     2A    -20.592445     3A    -20.590609
       4A    -11.335423     5A    -11.311330     6A    -11.299452
       7A    -11.295442     8A    -11.251864     9A    -11.241497
      10A    -11.237207    11A     -1.628883    12A     -1.415075
      13A     -1.375271    14A     -1.154780    15A     -1.024757
      16A     -1.018189    17A     -0.956382    18A     -0.850323
      19A     -0.846928    20A     -0.755494    21A     -0.743813
      22A     -0.704182    23A     -0.695446    24A     -0.674236
      25A     -0.650501    26A     -0.643299    27A     -0.629740
      28A     -0.615868    29A     -0.588892    30A     -0.570975
      31A     -0.556396    32A     -0.542609    33A     -0.523262
      34A     -0.487814    35A     -0.475313    36A     -0.339228
      37A     -0.320868

  @DF-RHF Final Energy:  -518.47052422798129

   => Energetics <=

    Nuclear Repulsion Energy =            527.0648380910944297
    One-Electron Energy =               -1756.5498474452956543
    Two-Electron Energy =                 711.0144851262200518
    Total Energy =                       -518.4705242279812865
  Basis Set: (AUG-CC-PVTZ AUX)
    Blend: AUG-CC-PVTZ-RI
    Molecular point group: c1

    Geometry (in Angstrom), charge = 0, multiplicity = 1:

       Center              X                  Y                   Z               Mass
    ------------   -----------------  -----------------  -----------------  -----------------
         F            0.878615762952    -2.132766708450    -0.257610286089    18.998403162730
         O            1.644719762952     0.572448291550    -0.418431286089    15.994914619570
         O           -0.238321237048     2.486800291550    -0.128578286089    15.994914619570
         C            0.346099762952     0.170628291550    -0.169183286089    12.000000000000
         C           -0.621082237048     1.179813291550    -0.047926286089    12.000000000000
         C           -0.062095237048    -1.161256708450    -0.111192286089    12.000000000000
         C           -1.961053237048     0.851464291550     0.162745713911    12.000000000000
         C           -1.386686237048    -1.511961708450     0.110668713911    12.000000000000
         C           -2.332929237048    -0.490900708450     0.238185713911    12.000000000000
         C            2.632924862952     0.165568691550     0.694135113911    12.000000000000
         H           -2.689394237048     1.651367291550     0.255379713911     1.007825032230
         H           -1.659273237048    -2.561482708450     0.155065713911     1.007825032230
         H           -3.375169237048    -0.748689708450     0.404793713911     1.007825032230
         H            2.683358762952    -0.892110708450     0.654359713911     1.007825032230
         H            2.222783762952     0.562197291550     1.592176713911     1.007825032230
         H            3.517063762952     0.660527291550     0.359054713911     1.007825032230
         H            0.719862762952     2.465766291550    -0.330656286089     1.007825032230

  Basis Set: AUG-CC-PVTZ
    Blend: AUG-CC-PVTZ
  Basis Set: (AUG-CC-PVTZ AUX)
    Blend: AUG-CC-PVTZ-JKFIT
	 Reference Energy          =    -518.4705242279812865 [Eh]
	 Singles Energy            =      -0.0000000000000000 [Eh]
	 Same-Spin Energy          =      -0.5092462556858582 [Eh]
	 Opposite-Spin Energy      =      -1.5398858147744976 [Eh]
	 Correlation Energy        =      -2.0491320704603559 [Eh]
	 Total Energy              =    -520.5196562984416460 [Eh]

	 ================> DF-SCS-MP2 Energies <==================
	-----------------------------------------------------------
	 SCS Same-Spin Scale       =       0.3333333333333333 [-]
	 SCS Opposite-Spin Scale   =       1.2000000000000000 [-]
	 SCS Same-Spin Energy      =      -0.1697487518952861 [Eh]
	 SCS Opposite-Spin Energy  =      -1.8478629777293971 [Eh]
	 SCS Correlation Energy    =      -2.0176117296246834 [Eh]
	 SCS Total Energy          =    -520.4881359576060049 [Eh]
	-----------------------------------------------------------

  Dipole Moment: [D]
     X:     1.0061      Y:    -0.2044      Z:     1.3823     Total:     1.7218

*** Psi4 exiting successfully. Buy a developer a beer!
