                               Psi4 1.4a3.dev225

  ==> Input File <==

--------------------------------------------------------------------------
#psi4
#
memory 32 gb

molecule  {
0 1
  F        0.8801740    -2.1570240    -0.2741980
  O        1.6462780     0.5481910    -0.4350190
  O       -0.2367630     2.4625430    -0.1451660
  C        0.3476580     0.1463710    -0.1857710
  C       -0.6195240     1.1555560    -0.0645140
  C       -0.0605370    -1.1855140    -0.1277800
  C       -1.9594950     0.8272070     0.1461580
  C       -1.3851280    -1.5362190     0.0940810
  C       -2.3313710    -0.5151580     0.2215980
  C        2.5704260     0.1676860     0.6054290
  H       -2.8219966     1.7744524     0.2558552
  H       -1.6577150    -2.5857400     0.1384780
  H       -3.3736110    -0.7729470     0.3882060
  H        2.6849170    -0.9163680     0.6377720
  H        2.2243420     0.5379400     1.5755890
  H        3.5186220     0.6362700     0.3424670
  H        0.7214210     2.4415090    -0.3472440
units angstrom
no_reorient  #important for SAPT in psi4, default
symmetry c1  #important for SAPT in psi4, default
}

set PROPERTIES_ORIGIN ["COM"]
properties('MP2/aug-cc-pvtz', properties = ['dipole'])
--------------------------------------------------------------------------

    Molecular point group: c1
  Charge       = 0
  Multiplicity = 1
  Basis Set: AUG-CC-PVTZ
    Blend: AUG-CC-PVTZ
  Basis Set: (AUG-CC-PVTZ AUX)
    Blend: AUG-CC-PVTZ-JKFIT

    Orbital Energies [Eh]
    ---------------------

    Doubly Occupied:

       1A    -26.318932     2A    -20.599708     3A    -20.595805
       4A    -11.340154     5A    -11.317495     6A    -11.305229
       7A    -11.291891     8A    -11.260593     9A    -11.256856
      10A    -11.245367    11A     -1.631202    12A     -1.427183
      13A     -1.394838    14A     -1.159616    15A     -1.029136
      16A     -1.019755    17A     -0.947804    18A     -0.853759
      19A     -0.844146    20A     -0.759778    21A     -0.748180
      22A     -0.706553    23A     -0.697999    24A     -0.677439
      25A     -0.653910    26A     -0.636330    27A     -0.630083
      28A     -0.621768    29A     -0.590156    30A     -0.569103
      31A     -0.555015    32A     -0.530104    33A     -0.510601
      34A     -0.491257    35A     -0.472581    36A     -0.344502
      37A     -0.326279

  @DF-RHF Final Energy:  -518.45672856662952

   => Energetics <=

    Nuclear Repulsion Energy =            528.0280802386787400
    One-Electron Energy =               -1758.2474046958127474
    Two-Electron Energy =                 711.7625958905044854
    Total Energy =                       -518.4567285666295220
  Basis Set: (AUG-CC-PVTZ AUX)
    Blend: AUG-CC-PVTZ-RI
    Molecular point group: c1

    Geometry (in Angstrom), charge = 0, multiplicity = 1:

       Center              X                  Y                   Z               Mass
    ------------   -----------------  -----------------  -----------------  -----------------
         F            0.884979297673    -2.136040298377    -0.251638685698    18.998403162730
         O            1.651083297673     0.569174701623    -0.412459685698    15.994914619570
         O           -0.231957702327     2.483526701623    -0.122606685698    15.994914619570
         C            0.352463297673     0.167354701623    -0.163211685698    12.000000000000
         C           -0.614718702327     1.176539701623    -0.041954685698    12.000000000000
         C           -0.055731702327    -1.164530298377    -0.105220685698    12.000000000000
         C           -1.954689702327     0.848190701623     0.168717314302    12.000000000000
         C           -1.380322702327    -1.515235298377     0.116640314302    12.000000000000
         C           -2.326565702327    -0.494174298377     0.244157314302    12.000000000000
         C            2.575231297673     0.188669701623     0.627988314302    12.000000000000
         H           -2.817191302327     1.795436101623     0.278414514302     1.007825032230
         H           -1.652909702327    -2.564756298377     0.161037314302     1.007825032230
         H           -3.368805702327    -0.751963298377     0.410765314302     1.007825032230
         H            2.689722297673    -0.895384298377     0.660331314302     1.007825032230
         H            2.229147297673     0.558923701623     1.598148314302     1.007825032230
         H            3.523427297673     0.657253701623     0.365026314302     1.007825032230
         H            0.726226297673     2.462492701623    -0.324684685698     1.007825032230

  Basis Set: AUG-CC-PVTZ
    Blend: AUG-CC-PVTZ
  Basis Set: (AUG-CC-PVTZ AUX)
    Blend: AUG-CC-PVTZ-JKFIT
	 Reference Energy          =    -518.4567285666295220 [Eh]
	 Singles Energy            =      -0.0000000000000000 [Eh]
	 Same-Spin Energy          =      -0.5094277092624592 [Eh]
	 Opposite-Spin Energy      =      -1.5404048276068860 [Eh]
	 Correlation Energy        =      -2.0498325368693453 [Eh]
	 Total Energy              =    -520.5065611034988251 [Eh]

	 ================> DF-SCS-MP2 Energies <==================
	-----------------------------------------------------------
	 SCS Same-Spin Scale       =       0.3333333333333333 [-]
	 SCS Opposite-Spin Scale   =       1.2000000000000000 [-]
	 SCS Same-Spin Energy      =      -0.1698092364208197 [Eh]
	 SCS Opposite-Spin Energy  =      -1.8484857931282632 [Eh]
	 SCS Correlation Energy    =      -2.0182950295490829 [Eh]
	 SCS Total Energy          =    -520.4750235961786302 [Eh]
	-----------------------------------------------------------

  Dipole Moment: [D]
     X:     0.6842      Y:    -0.1978      Z:     1.1669     Total:     1.3671

*** Psi4 exiting successfully. Buy a developer a beer!
