                               Psi4 1.4a3.dev225

  ==> Input File <==

--------------------------------------------------------------------------
#psi4
#
memory 32 gb

molecule  {
0 1
  F        0.8801740    -2.1570240    -0.2741980
  O        1.6590994     0.5018047    -0.4383300
  O       -0.2367630     2.4625430    -0.1451660
  C        0.3476580     0.1463710    -0.1857710
  C       -0.6195240     1.1555560    -0.0645140
  C       -0.0605370    -1.1855140    -0.1277800
  C       -1.9594950     0.8272070     0.1461580
  C       -1.3851280    -1.5362190     0.0940810
  C       -2.3313710    -0.5151580     0.2215980
  C        2.5704260     0.1676860     0.6054290
  H       -2.6878360     1.6271100     0.2387920
  H       -1.6577150    -2.5857400     0.1384780
  H       -3.3736110    -0.7729470     0.3882060
  H        2.6849170    -0.9163680     0.6377720
  H        2.2243420     0.5379400     1.5755890
  H        3.5186220     0.6362700     0.3424670
  H        0.7214210     2.4415090    -0.3472440
units angstrom
no_reorient  #important for SAPT in psi4, default
symmetry c1  #important for SAPT in psi4, default
}

set PROPERTIES_ORIGIN ["COM"]
properties('MP2/aug-cc-pvtz', properties = ['dipole'])
--------------------------------------------------------------------------

    Molecular point group: c1
  Charge       = 0
  Multiplicity = 1
  Basis Set: AUG-CC-PVTZ
    Blend: AUG-CC-PVTZ
  Basis Set: (AUG-CC-PVTZ AUX)
    Blend: AUG-CC-PVTZ-JKFIT

    Orbital Energies [Eh]
    ---------------------

    Doubly Occupied:

       1A    -26.318158     2A    -20.597415     3A    -20.596980
       4A    -11.338971     5A    -11.317019     6A    -11.304126
       7A    -11.288945     8A    -11.255795     9A    -11.244018
      10A    -11.240680    11A     -1.630341    12A     -1.427938
      13A     -1.397804    14A     -1.159620    15A     -1.031557
      16A     -1.022320    17A     -0.945767    18A     -0.854417
      19A     -0.849970    20A     -0.760257    21A     -0.747773
      22A     -0.712586    23A     -0.700368    24A     -0.677026
      25A     -0.653943    26A     -0.646543    27A     -0.636382
      28A     -0.625222    29A     -0.591339    30A     -0.574624
      31A     -0.552736    32A     -0.541498    33A     -0.518859
      34A     -0.489490    35A     -0.470035    36A     -0.344017
      37A     -0.326308

  @DF-RHF Final Energy:  -518.47953578354213

   => Energetics <=

    Nuclear Repulsion Energy =            529.1959956010671249
    One-Electron Energy =               -1760.5693642711280518
    Two-Electron Energy =                 712.8938328865187941
    Total Energy =                       -518.4795357835421328
  Basis Set: (AUG-CC-PVTZ AUX)
    Blend: AUG-CC-PVTZ-RI
    Molecular point group: c1

    Geometry (in Angstrom), charge = 0, multiplicity = 1:

       Center              X                  Y                   Z               Mass
    ------------   -----------------  -----------------  -----------------  -----------------
         F            0.882583631635    -2.129771490909    -0.251144779777    18.998403162730
         O            1.661509031635     0.529057209091    -0.415276779777    15.994914619570
         O           -0.234353368365     2.489795509091    -0.122112779777    15.994914619570
         C            0.350067631635     0.173623509091    -0.162717779777    12.000000000000
         C           -0.617114368365     1.182808509091    -0.041460779777    12.000000000000
         C           -0.058127368365    -1.158261490909    -0.104726779777    12.000000000000
         C           -1.957085368365     0.854459509091     0.169211220223    12.000000000000
         C           -1.382718368365    -1.508966490909     0.117134220223    12.000000000000
         C           -2.328961368365    -0.487905490909     0.244651220223    12.000000000000
         C            2.572835631635     0.194938509091     0.628482220223    12.000000000000
         H           -2.685426368365     1.654362509091     0.261845220223     1.007825032230
         H           -1.655305368365    -2.558487490909     0.161531220223     1.007825032230
         H           -3.371201368365    -0.745694490909     0.411259220223     1.007825032230
         H            2.687326631635    -0.889115490909     0.660825220223     1.007825032230
         H            2.226751631635     0.565192509091     1.598642220223     1.007825032230
         H            3.521031631635     0.663522509091     0.365520220223     1.007825032230
         H            0.723830631635     2.468761509091    -0.324190779777     1.007825032230

  Basis Set: AUG-CC-PVTZ
    Blend: AUG-CC-PVTZ
  Basis Set: (AUG-CC-PVTZ AUX)
    Blend: AUG-CC-PVTZ-JKFIT
	 Reference Energy          =    -518.4795357835421328 [Eh]
	 Singles Energy            =      -0.0000000000000000 [Eh]
	 Same-Spin Energy          =      -0.5086756717417440 [Eh]
	 Opposite-Spin Energy      =      -1.5377745016320792 [Eh]
	 Correlation Energy        =      -2.0464501733738230 [Eh]
	 Total Energy              =    -520.5259859569159744 [Eh]

	 ================> DF-SCS-MP2 Energies <==================
	-----------------------------------------------------------
	 SCS Same-Spin Scale       =       0.3333333333333333 [-]
	 SCS Opposite-Spin Scale   =       1.2000000000000000 [-]
	 SCS Same-Spin Energy      =      -0.1695585572472480 [Eh]
	 SCS Opposite-Spin Energy  =      -1.8453294019584949 [Eh]
	 SCS Correlation Energy    =      -2.0148879592057427 [Eh]
	 SCS Total Energy          =    -520.4944237427479266 [Eh]
	-----------------------------------------------------------

  Dipole Moment: [D]
     X:     0.5525      Y:    -0.0881      Z:     1.1552     Total:     1.2835

*** Psi4 exiting successfully. Buy a developer a beer!
