                               Psi4 1.4a3.dev225

  ==> Input File <==

--------------------------------------------------------------------------
#psi4
#
memory 32 gb

molecule  {
0 1
  F        0.8801740    -2.1570240    -0.2741980
  O        1.6462780     0.5481910    -0.4350190
  O       -0.2367630     2.4625430    -0.1451660
  C        0.3476580     0.1463710    -0.1857710
  C       -0.6195240     1.1555560    -0.0645140
  C       -0.0605370    -1.1855140    -0.1277800
  C       -1.9594950     0.8272070     0.1461580
  C       -1.3851280    -1.5362190     0.0940810
  C       -2.3313710    -0.5151580     0.2215980
  C        2.5704260     0.1676860     0.6054290
  H       -2.6878360     1.6271100     0.2387920
  H       -1.6577150    -2.5857400     0.1384780
  H       -3.3736110    -0.7729470     0.3882060
  H        2.6849170    -0.9163680     0.6377720
  H        2.1927236     0.5717666     1.6642233
  H        3.5186220     0.6362700     0.3424670
  H        0.7214210     2.4415090    -0.3472440
units angstrom
no_reorient  #important for SAPT in psi4, default
symmetry c1  #important for SAPT in psi4, default
}

set PROPERTIES_ORIGIN ["COM"]
properties('MP2/aug-cc-pvtz', properties = ['dipole'])
--------------------------------------------------------------------------

    Molecular point group: c1
  Charge       = 0
  Multiplicity = 1
  Basis Set: AUG-CC-PVTZ
    Blend: AUG-CC-PVTZ
  Basis Set: (AUG-CC-PVTZ AUX)
    Blend: AUG-CC-PVTZ-JKFIT

    Orbital Energies [Eh]
    ---------------------

    Doubly Occupied:

       1A    -26.318634     2A    -20.600861     3A    -20.595854
       4A    -11.339682     5A    -11.315685     6A    -11.304121
       7A    -11.302964     8A    -11.255355     9A    -11.244110
      10A    -11.240003    11A     -1.630908    12A     -1.427352
      13A     -1.395087    14A     -1.159162    15A     -1.029724
      16A     -1.021783    17A     -0.940604    18A     -0.854032
      19A     -0.848400    20A     -0.759755    21A     -0.746652
      22A     -0.710126    23A     -0.699938    24A     -0.677112
      25A     -0.651774    26A     -0.646928    27A     -0.634163
      28A     -0.618454    29A     -0.588922    30A     -0.573896
      31A     -0.553435    32A     -0.537126    33A     -0.516998
      34A     -0.490741    35A     -0.470328    36A     -0.343780
      37A     -0.325413

  @DF-RHF Final Energy:  -518.47248566335963

   => Energetics <=

    Nuclear Repulsion Energy =            528.5901160266681700
    One-Electron Energy =               -1759.3854793403304484
    Two-Electron Energy =                 712.3228776503025301
    Total Energy =                       -518.4724856633596346
  Basis Set: (AUG-CC-PVTZ AUX)
    Blend: AUG-CC-PVTZ-RI
    Molecular point group: c1

    Geometry (in Angstrom), charge = 0, multiplicity = 1:

       Center              X                  Y                   Z               Mass
    ------------   -----------------  -----------------  -----------------  -----------------
         F            0.884251739184    -2.135234879887    -0.252146497714    18.998403162730
         O            1.650355739184     0.569980120113    -0.412967497714    15.994914619570
         O           -0.232685260816     2.484332120113    -0.123114497714    15.994914619570
         C            0.351735739184     0.168160120113    -0.163719497714    12.000000000000
         C           -0.615446260816     1.177345120113    -0.042462497714    12.000000000000
         C           -0.056459260816    -1.163724879887    -0.105728497714    12.000000000000
         C           -1.955417260816     0.848996120113     0.168209502286    12.000000000000
         C           -1.381050260816    -1.514429879887     0.116132502286    12.000000000000
         C           -2.327293260816    -0.493368879887     0.243649502286    12.000000000000
         C            2.574503739184     0.189475120113     0.627480502286    12.000000000000
         H           -2.683758260816     1.648899120113     0.260843502286     1.007825032230
         H           -1.653637260816    -2.563950879887     0.160529502286     1.007825032230
         H           -3.369533260816    -0.751157879887     0.410257502286     1.007825032230
         H            2.688994739184    -0.894578879887     0.659823502286     1.007825032230
         H            2.196801339184     0.593555720113     1.686274802286     1.007825032230
         H            3.522699739184     0.658059120113     0.364518502286     1.007825032230
         H            0.725498739184     2.463298120113    -0.325192497714     1.007825032230

  Basis Set: AUG-CC-PVTZ
    Blend: AUG-CC-PVTZ
  Basis Set: (AUG-CC-PVTZ AUX)
    Blend: AUG-CC-PVTZ-JKFIT
	 Reference Energy          =    -518.4724856633596346 [Eh]
	 Singles Energy            =      -0.0000000000000000 [Eh]
	 Same-Spin Energy          =      -0.5090044334854791 [Eh]
	 Opposite-Spin Energy      =      -1.5391735908589177 [Eh]
	 Correlation Energy        =      -2.0481780243443968 [Eh]
	 Total Energy              =    -520.5206636877040864 [Eh]

	 ================> DF-SCS-MP2 Energies <==================
	-----------------------------------------------------------
	 SCS Same-Spin Scale       =       0.3333333333333333 [-]
	 SCS Opposite-Spin Scale   =       1.2000000000000000 [-]
	 SCS Same-Spin Energy      =      -0.1696681444951597 [Eh]
	 SCS Opposite-Spin Energy  =      -1.8470083090307012 [Eh]
	 SCS Correlation Energy    =      -2.0166764535258608 [Eh]
	 SCS Total Energy          =    -520.4891621168854954 [Eh]
	-----------------------------------------------------------

  Dipole Moment: [D]
     X:     0.6258      Y:    -0.1846      Z:     1.1038     Total:     1.2823

*** Psi4 exiting successfully. Buy a developer a beer!
