                               Psi4 1.4a3.dev225

  ==> Input File <==

--------------------------------------------------------------------------
#psi4
#
memory 32 gb

molecule  {
0 1
  F        0.8801740    -2.1570240    -0.2741980
  O        1.6462780     0.5481910    -0.4350190
  O       -0.2367630     2.4625430    -0.1451660
  C        0.3476580     0.1463710    -0.1857710
  C       -0.6195240     1.1555560    -0.0645140
  C       -0.0605370    -1.1855140    -0.1277800
  C       -1.9594950     0.8272070     0.1461580
  C       -1.3851280    -1.5362190     0.0940810
  C       -2.3313710    -0.5151580     0.2215980
  C        2.5704260     0.1676860     0.6054290
  H       -2.6878360     1.6271100     0.2387920
  H       -1.6577150    -2.5857400     0.1384780
  H       -3.3736110    -0.7729470     0.3882060
  H        2.6849170    -0.9163680     0.6377720
  H        2.2243420     0.5379400     1.5755890
  H        3.5186220     0.6362700     0.3424670
  H        0.8192461     2.4393615    -0.3678750
units angstrom
no_reorient  #important for SAPT in psi4, default
symmetry c1  #important for SAPT in psi4, default
}

set PROPERTIES_ORIGIN ["COM"]
properties('MP2/aug-cc-pvtz', properties = ['dipole'])
--------------------------------------------------------------------------

    Molecular point group: c1
  Charge       = 0
  Multiplicity = 1
  Basis Set: AUG-CC-PVTZ
    Blend: AUG-CC-PVTZ
  Basis Set: (AUG-CC-PVTZ AUX)
    Blend: AUG-CC-PVTZ-JKFIT

    Orbital Energies [Eh]
    ---------------------

    Doubly Occupied:

       1A    -26.318015     2A    -20.600594     3A    -20.599860
       4A    -11.339007     5A    -11.314247     6A    -11.302799
       7A    -11.292331     8A    -11.254610     9A    -11.242982
      10A    -11.238826    11A     -1.630329    12A     -1.421889
      13A     -1.381376    14A     -1.157264    15A     -1.029698
      16A     -1.018412    17A     -0.947331    18A     -0.851473
      19A     -0.846380    20A     -0.748566    21A     -0.745460
      22A     -0.711491    23A     -0.700072    24A     -0.670596
      25A     -0.654244    26A     -0.646003    27A     -0.633459
      28A     -0.619423    29A     -0.585672    30A     -0.567422
      31A     -0.553600    32A     -0.538520    33A     -0.518090
      34A     -0.489620    35A     -0.473786    36A     -0.343058
      37A     -0.323543

  @DF-RHF Final Energy:  -518.46576214929291

   => Energetics <=

    Nuclear Repulsion Energy =            528.5342644100135203
    One-Electron Energy =               -1759.3799569337156754
    Two-Electron Energy =                 712.3799303744092413
    Total Energy =                       -518.4657621492929138
  Basis Set: (AUG-CC-PVTZ AUX)
    Blend: AUG-CC-PVTZ-RI
    Molecular point group: c1

    Geometry (in Angstrom), charge = 0, multiplicity = 1:

       Center              X                  Y                   Z               Mass
    ------------   -----------------  -----------------  -----------------  -----------------
         F            0.883333310310    -2.134979636076    -0.251371237416    18.998403162730
         O            1.649437310310     0.570235363924    -0.412192237416    15.994914619570
         O           -0.233603689690     2.484587363924    -0.122339237416    15.994914619570
         C            0.350817310310     0.168415363924    -0.162944237416    12.000000000000
         C           -0.616364689690     1.177600363924    -0.041687237416    12.000000000000
         C           -0.057377689690    -1.163469636076    -0.104953237416    12.000000000000
         C           -1.956335689690     0.849251363924     0.168984762584    12.000000000000
         C           -1.381968689690    -1.514174636076     0.116907762584    12.000000000000
         C           -2.328211689690    -0.493113636076     0.244424762584    12.000000000000
         C            2.573585310310     0.189730363924     0.628255762584    12.000000000000
         H           -2.684676689690     1.649154363924     0.261618762584     1.007825032230
         H           -1.654555689690    -2.563695636076     0.161304762584     1.007825032230
         H           -3.370451689690    -0.750902636076     0.411032762584     1.007825032230
         H            2.688076310310    -0.894323636076     0.660598762584     1.007825032230
         H            2.227501310310     0.559984363924     1.598415762584     1.007825032230
         H            3.521781310310     0.658314363924     0.365293762584     1.007825032230
         H            0.822405410310     2.461405863924    -0.345048237416     1.007825032230

  Basis Set: AUG-CC-PVTZ
    Blend: AUG-CC-PVTZ
  Basis Set: (AUG-CC-PVTZ AUX)
    Blend: AUG-CC-PVTZ-JKFIT
	 Reference Energy          =    -518.4657621492929138 [Eh]
	 Singles Energy            =      -0.0000000000000000 [Eh]
	 Same-Spin Energy          =      -0.5104178872607165 [Eh]
	 Opposite-Spin Energy      =      -1.5417601792204536 [Eh]
	 Correlation Energy        =      -2.0521780664811700 [Eh]
	 Total Energy              =    -520.5179402157740469 [Eh]

	 ================> DF-SCS-MP2 Energies <==================
	-----------------------------------------------------------
	 SCS Same-Spin Scale       =       0.3333333333333333 [-]
	 SCS Opposite-Spin Scale   =       1.2000000000000000 [-]
	 SCS Same-Spin Energy      =      -0.1701392957535721 [Eh]
	 SCS Opposite-Spin Energy  =      -1.8501122150645442 [Eh]
	 SCS Correlation Energy    =      -2.0202515108181163 [Eh]
	 SCS Total Energy          =    -520.4860136601109843 [Eh]
	-----------------------------------------------------------

  Dipole Moment: [D]
     X:     0.7958      Y:    -0.1522      Z:     1.1476     Total:     1.4048

*** Psi4 exiting successfully. Buy a developer a beer!
