                               Psi4 1.4a3.dev225

  ==> Input File <==

--------------------------------------------------------------------------
#psi4
#
memory 32 gb

molecule  {
0 1
  F        0.8801740    -2.1570240    -0.2741980
  O        1.6462780     0.5481910    -0.4350190
  O       -0.2367630     2.4625430    -0.1451660
  C        0.3476580     0.1463710    -0.1857710
  C       -0.6195240     1.1555560    -0.0645140
  C       -0.0605370    -1.1855140    -0.1277800
  C       -1.9594950     0.8272070     0.1461580
  C       -1.3851280    -1.5362190     0.0940810
  C       -2.3313710    -0.5151580     0.2215980
  C        2.5704260     0.1676860     0.6054290
  H       -2.6878360     1.6271100     0.2387920
  H       -1.6577150    -2.5857400     0.1384780
  H       -3.3736110    -0.7729470     0.3882060
  H        2.6849170    -0.9163680     0.6377720
  H        2.2243420     0.5379400     1.5755890
  H        3.5186220     0.6362700     0.3424670
  H        0.6235959     2.4436565    -0.3266130
units angstrom
no_reorient  #important for SAPT in psi4, default
symmetry c1  #important for SAPT in psi4, default
}

set PROPERTIES_ORIGIN ["COM"]
properties('MP2/aug-cc-pvtz', properties = ['dipole'])
--------------------------------------------------------------------------

    Molecular point group: c1
  Charge       = 0
  Multiplicity = 1
  Basis Set: AUG-CC-PVTZ
    Blend: AUG-CC-PVTZ
  Basis Set: (AUG-CC-PVTZ AUX)
    Blend: AUG-CC-PVTZ-JKFIT

    Orbital Energies [Eh]
    ---------------------

    Doubly Occupied:

       1A    -26.318602     2A    -20.597504     3A    -20.588950
       4A    -11.339801     5A    -11.316534     6A    -11.304807
       7A    -11.290578     8A    -11.255671     9A    -11.244935
      10A    -11.240906    11A     -1.630844    12A     -1.442307
      13A     -1.403475    14A     -1.160955    15A     -1.030534
      16A     -1.026073    17A     -0.947037    18A     -0.859889
      19A     -0.851488    20A     -0.773529    21A     -0.748194
      22A     -0.711247    23A     -0.700430    24A     -0.682400
      25A     -0.653499    26A     -0.646913    27A     -0.636543
      28A     -0.623132    29A     -0.594259    30A     -0.579024
      31A     -0.554118    32A     -0.542771    33A     -0.520580
      34A     -0.491726    35A     -0.472506    36A     -0.343932
      37A     -0.326791

  @DF-RHF Final Energy:  -518.47503306149179

   => Energetics <=

    Nuclear Repulsion Energy =            529.5467498719119703
    One-Electron Energy =               -1761.1385940899208435
    Two-Electron Energy =                 713.1168111565170875
    Total Energy =                       -518.4750330614917857
  Basis Set: (AUG-CC-PVTZ AUX)
    Blend: AUG-CC-PVTZ-RI
    Molecular point group: c1

    Geometry (in Angstrom), charge = 0, multiplicity = 1:

       Center              X                  Y                   Z               Mass
    ------------   -----------------  -----------------  -----------------  -----------------
         F            0.884721489654    -2.135010110005    -0.251663999989    18.998403162730
         O            1.650825489654     0.570204889995    -0.412484999989    15.994914619570
         O           -0.232215510346     2.484556889995    -0.122631999989    15.994914619570
         C            0.352205489654     0.168384889995    -0.163236999989    12.000000000000
         C           -0.614976510346     1.177569889995    -0.041979999989    12.000000000000
         C           -0.055989510346    -1.163500110005    -0.105245999989    12.000000000000
         C           -1.954947510346     0.849220889995     0.168692000011    12.000000000000
         C           -1.380580510346    -1.514205110005     0.116615000011    12.000000000000
         C           -2.326823510346    -0.493144110005     0.244132000011    12.000000000000
         C            2.574973489654     0.189699889995     0.627963000011    12.000000000000
         H           -2.683288510346     1.649123889995     0.261326000011     1.007825032230
         H           -1.653167510346    -2.563726110005     0.161012000011     1.007825032230
         H           -3.369063510346    -0.750933110005     0.410740000011     1.007825032230
         H            2.689464489654    -0.894354110005     0.660306000011     1.007825032230
         H            2.228889489654     0.559953889995     1.598123000011     1.007825032230
         H            3.523169489654     0.658283889995     0.365001000011     1.007825032230
         H            0.628143389654     2.465670389995    -0.304078999989     1.007825032230

  Basis Set: AUG-CC-PVTZ
    Blend: AUG-CC-PVTZ
  Basis Set: (AUG-CC-PVTZ AUX)
    Blend: AUG-CC-PVTZ-JKFIT
	 Reference Energy          =    -518.4750330614917857 [Eh]
	 Singles Energy            =      -0.0000000000000000 [Eh]
	 Same-Spin Energy          =      -0.5074377710303315 [Eh]
	 Opposite-Spin Energy      =      -1.5352501244182524 [Eh]
	 Correlation Energy        =      -2.0426878954485836 [Eh]
	 Total Energy              =    -520.5177209569403658 [Eh]

	 ================> DF-SCS-MP2 Energies <==================
	-----------------------------------------------------------
	 SCS Same-Spin Scale       =       0.3333333333333333 [-]
	 SCS Opposite-Spin Scale   =       1.2000000000000000 [-]
	 SCS Same-Spin Energy      =      -0.1691459236767772 [Eh]
	 SCS Opposite-Spin Energy  =      -1.8423001493019027 [Eh]
	 SCS Correlation Energy    =      -2.0114460729786798 [Eh]
	 SCS Total Energy          =    -520.4864791344704145 [Eh]
	-----------------------------------------------------------

  Dipole Moment: [D]
     X:     0.5090      Y:    -0.1968      Z:     1.1911     Total:     1.3101

*** Psi4 exiting successfully. Buy a developer a beer!
