                               Psi4 1.4a3.dev225

  ==> Input File <==

--------------------------------------------------------------------------
#psi4
#
memory 32 gb

molecule  {
0 1
  F        0.8801740    -2.1570240    -0.2741980
  O        1.6462780     0.5481910    -0.4350190
  O       -0.2367630     2.4625430    -0.1451660
  C        0.3476580     0.1463710    -0.1857710
  C       -0.6195240     1.1555560    -0.0645140
  C       -0.0546046    -1.2089995    -0.1281633
  C       -1.9594950     0.8272070     0.1461580
  C       -1.3851280    -1.5362190     0.0940810
  C       -2.3313710    -0.5151580     0.2215980
  C        2.5704260     0.1676860     0.6054290
  H       -2.6878360     1.6271100     0.2387920
  H       -1.6577150    -2.5857400     0.1384780
  H       -3.3736110    -0.7729470     0.3882060
  H        2.6849170    -0.9163680     0.6377720
  H        2.2243420     0.5379400     1.5755890
  H        3.5186220     0.6362700     0.3424670
  H        0.7214210     2.4415090    -0.3472440
units angstrom
no_reorient  #important for SAPT in psi4, default
symmetry c1  #important for SAPT in psi4, default
}

set PROPERTIES_ORIGIN ["COM"]
properties('MP2/aug-cc-pvtz', properties = ['dipole'])
--------------------------------------------------------------------------

    Molecular point group: c1
  Charge       = 0
  Multiplicity = 1
  Basis Set: AUG-CC-PVTZ
    Blend: AUG-CC-PVTZ
  Basis Set: (AUG-CC-PVTZ AUX)
    Blend: AUG-CC-PVTZ-JKFIT

    Orbital Energies [Eh]
    ---------------------

    Doubly Occupied:

       1A    -26.324279     2A    -20.598009     3A    -20.594779
       4A    -11.341173     5A    -11.314233     6A    -11.303978
       7A    -11.291233     8A    -11.254545     9A    -11.243146
      10A    -11.239398    11A     -1.643207    12A     -1.425709
      13A     -1.393626    14A     -1.155850    15A     -1.027077
      16A     -1.021595    17A     -0.946211    18A     -0.854272
      19A     -0.850541    20A     -0.759961    21A     -0.752934
      22A     -0.714395    23A     -0.706392    24A     -0.679185
      25A     -0.653512    26A     -0.647245    27A     -0.634069
      28A     -0.620378    29A     -0.588980    30A     -0.573303
      31A     -0.552634    32A     -0.539698    33A     -0.518912
      34A     -0.488459    35A     -0.471747    36A     -0.339952
      37A     -0.324712

  @DF-RHF Final Energy:  -518.47877078748638

   => Energetics <=

    Nuclear Repulsion Energy =            528.8359702940306306
    One-Electron Energy =               -1759.8508223158501096
    Two-Electron Energy =                 712.5360812343330963
    Total Energy =                       -518.4787707874863827
  Basis Set: (AUG-CC-PVTZ AUX)
    Blend: AUG-CC-PVTZ-RI
    Molecular point group: c1

    Geometry (in Angstrom), charge = 0, multiplicity = 1:

       Center              X                  Y                   Z               Mass
    ------------   -----------------  -----------------  -----------------  -----------------
         F            0.883526222197    -2.133010783822    -0.251485236961    18.998403162730
         O            1.649630222197     0.572204216178    -0.412306236961    15.994914619570
         O           -0.233410777803     2.486556216178    -0.122453236961    15.994914619570
         C            0.351010222197     0.170384216178    -0.163058236961    12.000000000000
         C           -0.616171777803     1.179569216178    -0.041801236961    12.000000000000
         C           -0.051252377803    -1.184986283822    -0.105450536961    12.000000000000
         C           -1.956142777803     0.851220216178     0.168870763039    12.000000000000
         C           -1.381775777803    -1.512205783822     0.116793763039    12.000000000000
         C           -2.328018777803    -0.491144783822     0.244310763039    12.000000000000
         C            2.573778222197     0.191699216178     0.628141763039    12.000000000000
         H           -2.684483777803     1.651123216178     0.261504763039     1.007825032230
         H           -1.654362777803    -2.561726783822     0.161190763039     1.007825032230
         H           -3.370258777803    -0.748933783822     0.410918763039     1.007825032230
         H            2.688269222197    -0.892354783822     0.660484763039     1.007825032230
         H            2.227694222197     0.561953216178     1.598301763039     1.007825032230
         H            3.521974222197     0.660283216178     0.365179763039     1.007825032230
         H            0.724773222197     2.465522216178    -0.324531236961     1.007825032230

  Basis Set: AUG-CC-PVTZ
    Blend: AUG-CC-PVTZ
  Basis Set: (AUG-CC-PVTZ AUX)
    Blend: AUG-CC-PVTZ-JKFIT
	 Reference Energy          =    -518.4787707874863827 [Eh]
	 Singles Energy            =      -0.0000000000000000 [Eh]
	 Same-Spin Energy          =      -0.5089064012265672 [Eh]
	 Opposite-Spin Energy      =      -1.5381161690370453 [Eh]
	 Correlation Energy        =      -2.0470225702636125 [Eh]
	 Total Energy              =    -520.5257933577499898 [Eh]

	 ================> DF-SCS-MP2 Energies <==================
	-----------------------------------------------------------
	 SCS Same-Spin Scale       =       0.3333333333333333 [-]
	 SCS Opposite-Spin Scale   =       1.2000000000000000 [-]
	 SCS Same-Spin Energy      =      -0.1696354670755224 [Eh]
	 SCS Opposite-Spin Energy  =      -1.8457394028444543 [Eh]
	 SCS Correlation Energy    =      -2.0153748699199765 [Eh]
	 SCS Total Energy          =    -520.4941456574063068 [Eh]
	-----------------------------------------------------------

  Dipole Moment: [D]
     X:     0.7212      Y:    -0.2670      Z:     1.1529     Total:     1.3859

*** Psi4 exiting successfully. Buy a developer a beer!
