                               Psi4 1.4a3.dev225

  ==> Input File <==

--------------------------------------------------------------------------
#psi4
#
memory 32 gb

molecule  {
0 1
  F        0.8801740    -2.1570240    -0.2741980
  O        1.6462780     0.5481910    -0.4350190
  O       -0.2367630     2.4625430    -0.1451660
  C        0.3476580     0.1463710    -0.1857710
  C       -0.6195240     1.1555560    -0.0645140
  C       -0.0605370    -1.1855140    -0.1277800
  C       -1.9594950     0.8272070     0.1461580
  C       -1.3851280    -1.5362190     0.0940810
  C       -2.3313710    -0.5151580     0.2215980
  C        2.5704260     0.1676860     0.6054290
  H       -2.6878360     1.6271100     0.2387920
  H       -1.6577150    -2.5857400     0.1384780
  H       -3.3736110    -0.7729470     0.3882060
  H        2.6849170    -0.9163680     0.6377720
  H        2.2180183     0.5447053     1.5933159
  H        3.5186220     0.6362700     0.3424670
  H        0.7214210     2.4415090    -0.3472440
units angstrom
no_reorient  #important for SAPT in psi4, default
symmetry c1  #important for SAPT in psi4, default
}

set PROPERTIES_ORIGIN ["COM"]
properties('MP2/aug-cc-pvtz', properties = ['dipole'])
--------------------------------------------------------------------------

    Molecular point group: c1
  Charge       = 0
  Multiplicity = 1
  Basis Set: AUG-CC-PVTZ
    Blend: AUG-CC-PVTZ
  Basis Set: (AUG-CC-PVTZ AUX)
    Blend: AUG-CC-PVTZ-JKFIT

    Orbital Energies [Eh]
    ---------------------

    Doubly Occupied:

       1A    -26.318343     2A    -20.599237     3A    -20.595744
       4A    -11.339425     5A    -11.315444     6A    -11.303812
       7A    -11.293758     8A    -11.255171     9A    -11.243974
      10A    -11.239878    11A     -1.630620    12A     -1.426797
      13A     -1.394604    14A     -1.158995    15A     -1.029964
      16A     -1.021749    17A     -0.945538    18A     -0.853817
      19A     -0.849361    20A     -0.759534    21A     -0.747278
      22A     -0.711000    23A     -0.700141    24A     -0.676902
      25A     -0.653211    26A     -0.646509    27A     -0.634956
      28A     -0.620656    29A     -0.589676    30A     -0.573738
      31A     -0.553676    32A     -0.540114    33A     -0.519260
      34A     -0.490665    35A     -0.472714    36A     -0.343523
      37A     -0.325199

  @DF-RHF Final Energy:  -518.47861929444139

   => Energetics <=

    Nuclear Repulsion Energy =            528.9109137495081541
    One-Electron Energy =               -1760.0291023215409041
    Two-Electron Energy =                 712.6395692775913631
    Total Energy =                       -518.4786192944413870
  Basis Set: (AUG-CC-PVTZ AUX)
    Blend: AUG-CC-PVTZ-RI
    Molecular point group: c1

    Geometry (in Angstrom), charge = 0, multiplicity = 1:

       Center              X                  Y                   Z               Mass
    ------------   -----------------  -----------------  -----------------  -----------------
         F            0.884072267964    -2.135042874268    -0.251643394789    18.998403162730
         O            1.650176267964     0.570172125732    -0.412464394789    15.994914619570
         O           -0.232864732036     2.484524125732    -0.122611394789    15.994914619570
         C            0.351556267964     0.168352125732    -0.163216394789    12.000000000000
         C           -0.615625732036     1.177537125732    -0.041959394789    12.000000000000
         C           -0.056638732036    -1.163532874268    -0.105225394789    12.000000000000
         C           -1.955596732036     0.849188125732     0.168712605211    12.000000000000
         C           -1.381229732036    -1.514237874268     0.116635605211    12.000000000000
         C           -2.327472732036    -0.493176874268     0.244152605211    12.000000000000
         C            2.574324267964     0.189667125732     0.627983605211    12.000000000000
         H           -2.683937732036     1.649091125732     0.261346605211     1.007825032230
         H           -1.653816732036    -2.563758874268     0.161032605211     1.007825032230
         H           -3.369712732036    -0.750965874268     0.410760605211     1.007825032230
         H            2.688815267964    -0.894386874268     0.660326605211     1.007825032230
         H            2.221916567964     0.566686425732     1.615870505211     1.007825032230
         H            3.522520267964     0.658251125732     0.365021605211     1.007825032230
         H            0.725319267964     2.463490125732    -0.324689394789     1.007825032230

  Basis Set: AUG-CC-PVTZ
    Blend: AUG-CC-PVTZ
  Basis Set: (AUG-CC-PVTZ AUX)
    Blend: AUG-CC-PVTZ-JKFIT
	 Reference Energy          =    -518.4786192944413870 [Eh]
	 Singles Energy            =      -0.0000000000000000 [Eh]
	 Same-Spin Energy          =      -0.5089200100192577 [Eh]
	 Opposite-Spin Energy      =      -1.5384893238778157 [Eh]
	 Correlation Energy        =      -2.0474093338970736 [Eh]
	 Total Energy              =    -520.5260286283385085 [Eh]

	 ================> DF-SCS-MP2 Energies <==================
	-----------------------------------------------------------
	 SCS Same-Spin Scale       =       0.3333333333333333 [-]
	 SCS Opposite-Spin Scale   =       1.2000000000000000 [-]
	 SCS Same-Spin Energy      =      -0.1696400033397525 [Eh]
	 SCS Opposite-Spin Energy  =      -1.8461871886533787 [Eh]
	 SCS Correlation Energy    =      -2.0158271919931314 [Eh]
	 SCS Total Energy          =    -520.4944464864345264 [Eh]
	-----------------------------------------------------------

  Dipole Moment: [D]
     X:     0.6441      Y:    -0.1694      Z:     1.1573     Total:     1.3353

*** Psi4 exiting successfully. Buy a developer a beer!
