                               Psi4 1.4a3.dev225

  ==> Input File <==

--------------------------------------------------------------------------
#psi4
#
memory 32 gb

molecule  {
0 1
  F        0.8801740    -2.1570240    -0.2741980
  O        1.6462780     0.5481910    -0.4350190
  O       -0.2367630     2.4625430    -0.1451660
  C        0.3476580     0.1463710    -0.1857710
  C       -0.5926499     1.0119851    -0.0667023
  C       -0.0605370    -1.1855140    -0.1277800
  C       -1.9594950     0.8272070     0.1461580
  C       -1.3851280    -1.5362190     0.0940810
  C       -2.3313710    -0.5151580     0.2215980
  C        2.5704260     0.1676860     0.6054290
  H       -2.6878360     1.6271100     0.2387920
  H       -1.6577150    -2.5857400     0.1384780
  H       -3.3736110    -0.7729470     0.3882060
  H        2.6849170    -0.9163680     0.6377720
  H        2.2243420     0.5379400     1.5755890
  H        3.5186220     0.6362700     0.3424670
  H        0.7214210     2.4415090    -0.3472440
units angstrom
no_reorient  #important for SAPT in psi4, default
symmetry c1  #important for SAPT in psi4, default
}

set PROPERTIES_ORIGIN ["COM"]
properties('MP2/aug-cc-pvtz', properties = ['dipole'])
--------------------------------------------------------------------------

    Molecular point group: c1
  Charge       = 0
  Multiplicity = 1
  Basis Set: AUG-CC-PVTZ
    Blend: AUG-CC-PVTZ
  Basis Set: (AUG-CC-PVTZ AUX)
    Blend: AUG-CC-PVTZ-JKFIT

    Orbital Energies [Eh]
    ---------------------

    Doubly Occupied:

       1A    -26.322052     2A    -20.601421     3A    -20.575295
       4A    -11.344894     5A    -11.303446     6A    -11.298345
       7A    -11.293187     8A    -11.258067     9A    -11.249892
      10A    -11.248129    11A     -1.634477    12A     -1.420392
      13A     -1.346432    14A     -1.178497    15A     -1.049931
      16A     -1.025498    17A     -0.950681    18A     -0.869221
      19A     -0.845967    20A     -0.753146    21A     -0.738306
      22A     -0.715433    23A     -0.704569    24A     -0.663979
      25A     -0.659619    26A     -0.654026    27A     -0.628593
      28A     -0.612036    29A     -0.569936    30A     -0.568172
      31A     -0.553996    32A     -0.541032    33A     -0.517195
      34A     -0.491691    35A     -0.477438    36A     -0.354632
      37A     -0.340262

  @DF-RHF Final Energy:  -518.45162149440409

   => Energetics <=

    Nuclear Repulsion Energy =            530.3932300029173348
    One-Electron Energy =               -1762.9699328241697458
    Two-Electron Energy =                 714.1250813268483171
    Total Energy =                       -518.4516214944040939
  Basis Set: (AUG-CC-PVTZ AUX)
    Blend: AUG-CC-PVTZ-RI
    Molecular point group: c1

    Geometry (in Angstrom), charge = 0, multiplicity = 1:

       Center              X                  Y                   Z               Mass
    ------------   -----------------  -----------------  -----------------  -----------------
         F            0.881757036904    -2.122865794470    -0.251332747934    18.998403162730
         O            1.647861036904     0.582349205530    -0.412153747934    15.994914619570
         O           -0.235179963096     2.496701205530    -0.122300747934    15.994914619570
         C            0.349241036904     0.180529205530    -0.162905747934    12.000000000000
         C           -0.591066863096     1.046143305530    -0.043837047934    12.000000000000
         C           -0.058953963096    -1.151355794470    -0.104914747934    12.000000000000
         C           -1.957911963096     0.861365205530     0.169023252066    12.000000000000
         C           -1.383544963096    -1.502060794470     0.116946252066    12.000000000000
         C           -2.329787963096    -0.480999794470     0.244463252066    12.000000000000
         C            2.572009036904     0.201844205530     0.628294252066    12.000000000000
         H           -2.686252963096     1.661268205530     0.261657252066     1.007825032230
         H           -1.656131963096    -2.551581794470     0.161343252066     1.007825032230
         H           -3.372027963096    -0.738788794470     0.411071252066     1.007825032230
         H            2.686500036904    -0.882209794470     0.660637252066     1.007825032230
         H            2.225925036904     0.572098205530     1.598454252066     1.007825032230
         H            3.520205036904     0.670428205530     0.365332252066     1.007825032230
         H            0.723004036904     2.475667205530    -0.324378747934     1.007825032230

  Basis Set: AUG-CC-PVTZ
    Blend: AUG-CC-PVTZ
  Basis Set: (AUG-CC-PVTZ AUX)
    Blend: AUG-CC-PVTZ-JKFIT
	 Reference Energy          =    -518.4516214944040939 [Eh]
	 Singles Energy            =      -0.0000000000000000 [Eh]
	 Same-Spin Energy          =      -0.5090493864420182 [Eh]
	 Opposite-Spin Energy      =      -1.5408066341986708 [Eh]
	 Correlation Energy        =      -2.0498560206406893 [Eh]
	 Total Energy              =    -520.5014775150448259 [Eh]

	 ================> DF-SCS-MP2 Energies <==================
	-----------------------------------------------------------
	 SCS Same-Spin Scale       =       0.3333333333333333 [-]
	 SCS Opposite-Spin Scale   =       1.2000000000000000 [-]
	 SCS Same-Spin Energy      =      -0.1696831288140061 [Eh]
	 SCS Opposite-Spin Energy  =      -1.8489679610384049 [Eh]
	 SCS Correlation Energy    =      -2.0186510898524110 [Eh]
	 SCS Total Energy          =    -520.4702725842564632 [Eh]
	-----------------------------------------------------------

  Dipole Moment: [D]
     X:     0.4075      Y:    -0.8809      Z:     1.2426     Total:     1.5767

*** Psi4 exiting successfully. Buy a developer a beer!
