                               Psi4 1.4a3.dev225

  ==> Input File <==

--------------------------------------------------------------------------
#psi4
#
memory 32 gb

molecule  {
0 1
  F        0.8801740    -2.1570240    -0.2741980
  O        1.6462780     0.5481910    -0.4350190
  O       -0.2367630     2.4625430    -0.1451660
  C        0.3476580     0.1463710    -0.1857710
  C       -0.6195240     1.1555560    -0.0645140
  C       -0.0605370    -1.1855140    -0.1277800
  C       -1.9363683     0.8203895     0.1427780
  C       -1.3851280    -1.5362190     0.0940810
  C       -2.3313710    -0.5151580     0.2215980
  C        2.5704260     0.1676860     0.6054290
  H       -2.6878360     1.6271100     0.2387920
  H       -1.6577150    -2.5857400     0.1384780
  H       -3.3736110    -0.7729470     0.3882060
  H        2.6849170    -0.9163680     0.6377720
  H        2.2243420     0.5379400     1.5755890
  H        3.5186220     0.6362700     0.3424670
  H        0.7214210     2.4415090    -0.3472440
units angstrom
no_reorient  #important for SAPT in psi4, default
symmetry c1  #important for SAPT in psi4, default
}

set PROPERTIES_ORIGIN ["COM"]
properties('MP2/aug-cc-pvtz', properties = ['dipole'])
--------------------------------------------------------------------------

    Molecular point group: c1
  Charge       = 0
  Multiplicity = 1
  Basis Set: AUG-CC-PVTZ
    Blend: AUG-CC-PVTZ
  Basis Set: (AUG-CC-PVTZ AUX)
    Blend: AUG-CC-PVTZ-JKFIT

    Orbital Energies [Eh]
    ---------------------

    Doubly Occupied:

       1A    -26.317956     2A    -20.598924     3A    -20.595241
       4A    -11.338660     5A    -11.312696     6A    -11.304111
       7A    -11.291452     8A    -11.255093     9A    -11.244335
      10A    -11.239033    11A     -1.630263    12A     -1.426649
      13A     -1.394387    14A     -1.160977    15A     -1.029608
      16A     -1.024103    17A     -0.947544    18A     -0.853674
      19A     -0.849549    20A     -0.759615    21A     -0.747624
      22A     -0.710016    23A     -0.699773    24A     -0.677778
      25A     -0.653725    26A     -0.644339    27A     -0.636455
      28A     -0.621414    29A     -0.590452    30A     -0.572249
      31A     -0.555859    32A     -0.537453    33A     -0.520255
      34A     -0.491119    35A     -0.472997    36A     -0.343431
      37A     -0.326772

  @DF-RHF Final Energy:  -518.47859895945294

   => Energetics <=

    Nuclear Repulsion Energy =            529.4862756055654245
    One-Electron Energy =               -1761.1785884327168787
    Two-Electron Energy =                 713.2137138676985160
    Total Energy =                       -518.4785989594529383
  Basis Set: (AUG-CC-PVTZ AUX)
    Blend: AUG-CC-PVTZ-RI
    Molecular point group: c1

    Geometry (in Angstrom), charge = 0, multiplicity = 1:

       Center              X                  Y                   Z               Mass
    ------------   -----------------  -----------------  -----------------  -----------------
         F            0.882073622710    -2.134418920719    -0.251232071384    18.998403162730
         O            1.648177622710     0.570796079281    -0.412053071384    15.994914619570
         O           -0.234863377290     2.485148079281    -0.122200071384    15.994914619570
         C            0.349557622710     0.168976079281    -0.162805071384    12.000000000000
         C           -0.617624377290     1.178161079281    -0.041548071384    12.000000000000
         C           -0.058637377290    -1.162908920719    -0.104814071384    12.000000000000
         C           -1.934468677290     0.842994579281     0.165743928616    12.000000000000
         C           -1.383228377290    -1.513613920719     0.117046928616    12.000000000000
         C           -2.329471377290    -0.492552920719     0.244563928616    12.000000000000
         C            2.572325622710     0.190291079281     0.628394928616    12.000000000000
         H           -2.685936377290     1.649715079281     0.261757928616     1.007825032230
         H           -1.655815377290    -2.563134920719     0.161443928616     1.007825032230
         H           -3.371711377290    -0.750341920719     0.411171928616     1.007825032230
         H            2.686816622710    -0.893762920719     0.660737928616     1.007825032230
         H            2.226241622710     0.560545079281     1.598554928616     1.007825032230
         H            3.520521622710     0.658875079281     0.365432928616     1.007825032230
         H            0.723320622710     2.464114079281    -0.324278071384     1.007825032230

  Basis Set: AUG-CC-PVTZ
    Blend: AUG-CC-PVTZ
  Basis Set: (AUG-CC-PVTZ AUX)
    Blend: AUG-CC-PVTZ-JKFIT
	 Reference Energy          =    -518.4785989594529383 [Eh]
	 Singles Energy            =      -0.0000000000000000 [Eh]
	 Same-Spin Energy          =      -0.5089687447994615 [Eh]
	 Opposite-Spin Energy      =      -1.5383137138397789 [Eh]
	 Correlation Energy        =      -2.0472824586392404 [Eh]
	 Total Energy              =    -520.5258814180921263 [Eh]

	 ================> DF-SCS-MP2 Energies <==================
	-----------------------------------------------------------
	 SCS Same-Spin Scale       =       0.3333333333333333 [-]
	 SCS Opposite-Spin Scale   =       1.2000000000000000 [-]
	 SCS Same-Spin Energy      =      -0.1696562482664872 [Eh]
	 SCS Opposite-Spin Energy  =      -1.8459764566077346 [Eh]
	 SCS Correlation Energy    =      -2.0156327048742217 [Eh]
	 SCS Total Energy          =    -520.4942316643271170 [Eh]
	-----------------------------------------------------------

  Dipole Moment: [D]
     X:     0.6403      Y:    -0.1924      Z:     1.1706     Total:     1.3481

*** Psi4 exiting successfully. Buy a developer a beer!
