                               Psi4 1.4a3.dev225

  ==> Input File <==

--------------------------------------------------------------------------
#psi4
#
memory 32 gb

molecule  {
0 1
  F        0.8801740    -2.1570240    -0.2741980
  O        1.6531884     0.5250816    -0.4351031
  O       -0.2367630     2.4625430    -0.1451660
  C        0.3476580     0.1463710    -0.1857710
  C       -0.6195240     1.1555560    -0.0645140
  C       -0.0605370    -1.1855140    -0.1277800
  C       -1.9594950     0.8272070     0.1461580
  C       -1.3851280    -1.5362190     0.0940810
  C       -2.3313710    -0.5151580     0.2215980
  C        2.5704260     0.1676860     0.6054290
  H       -2.6878360     1.6271100     0.2387920
  H       -1.6577150    -2.5857400     0.1384780
  H       -3.3736110    -0.7729470     0.3882060
  H        2.6849170    -0.9163680     0.6377720
  H        2.2243420     0.5379400     1.5755890
  H        3.5186220     0.6362700     0.3424670
  H        0.7214210     2.4415090    -0.3472440
units angstrom
no_reorient  #important for SAPT in psi4, default
symmetry c1  #important for SAPT in psi4, default
}

set PROPERTIES_ORIGIN ["COM"]
properties('MP2/aug-cc-pvtz', properties = ['dipole'])
--------------------------------------------------------------------------

    Molecular point group: c1
  Charge       = 0
  Multiplicity = 1
  Basis Set: AUG-CC-PVTZ
    Blend: AUG-CC-PVTZ
  Basis Set: (AUG-CC-PVTZ AUX)
    Blend: AUG-CC-PVTZ-JKFIT

    Orbital Energies [Eh]
    ---------------------

    Doubly Occupied:

       1A    -26.318247     2A    -20.597876     3A    -20.596608
       4A    -11.339211     5A    -11.316253     6A    -11.303998
       7A    -11.289984     8A    -11.255498     9A    -11.244012
      10A    -11.240300    11A     -1.630475    12A     -1.427485
      13A     -1.396366    14A     -1.159349    15A     -1.030946
      16A     -1.022095    17A     -0.946367    18A     -0.854137
      19A     -0.849812    20A     -0.759919    21A     -0.747673
      22A     -0.712096    23A     -0.700332    24A     -0.676972
      25A     -0.654052    26A     -0.646585    27A     -0.635807
      28A     -0.623453    29A     -0.590688    30A     -0.574199
      31A     -0.553200    32A     -0.541140    33A     -0.519204
      34A     -0.490013    35A     -0.471589    36A     -0.343779
      37A     -0.325770

  @DF-RHF Final Energy:  -518.47958101816175

   => Energetics <=

    Nuclear Repulsion Energy =            529.1136918763808126
    One-Electron Energy =               -1760.4155658491376926
    Two-Electron Energy =                 712.8222929545950137
    Total Energy =                       -518.4795810181617526
  Basis Set: (AUG-CC-PVTZ AUX)
    Blend: AUG-CC-PVTZ-RI
    Molecular point group: c1

    Geometry (in Angstrom), charge = 0, multiplicity = 1:

       Center              X                  Y                   Z               Mass
    ------------   -----------------  -----------------  -----------------  -----------------
         F            0.883249246521    -2.132392612739    -0.251508148526    18.998403162730
         O            1.656263646521     0.549712987261    -0.412413248526    15.994914619570
         O           -0.233687753479     2.487174387261    -0.122476148526    15.994914619570
         C            0.350733246521     0.171002387261    -0.163081148526    12.000000000000
         C           -0.616448753479     1.180187387261    -0.041824148526    12.000000000000
         C           -0.057461753479    -1.160882612739    -0.105090148526    12.000000000000
         C           -1.956419753479     0.851838387261     0.168847851474    12.000000000000
         C           -1.382052753479    -1.511587612739     0.116770851474    12.000000000000
         C           -2.328295753479    -0.490526612739     0.244287851474    12.000000000000
         C            2.573501246521     0.192317387261     0.628118851474    12.000000000000
         H           -2.684760753479     1.651741387261     0.261481851474     1.007825032230
         H           -1.654639753479    -2.561108612739     0.161167851474     1.007825032230
         H           -3.370535753479    -0.748315612739     0.410895851474     1.007825032230
         H            2.687992246521    -0.891736612739     0.660461851474     1.007825032230
         H            2.227417246521     0.562571387261     1.598278851474     1.007825032230
         H            3.521697246521     0.660901387261     0.365156851474     1.007825032230
         H            0.724496246521     2.466140387261    -0.324554148526     1.007825032230

  Basis Set: AUG-CC-PVTZ
    Blend: AUG-CC-PVTZ
  Basis Set: (AUG-CC-PVTZ AUX)
    Blend: AUG-CC-PVTZ-JKFIT
	 Reference Energy          =    -518.4795810181617526 [Eh]
	 Singles Energy            =      -0.0000000000000000 [Eh]
	 Same-Spin Energy          =      -0.5087708603004497 [Eh]
	 Opposite-Spin Energy      =      -1.5380015184286859 [Eh]
	 Correlation Energy        =      -2.0467723787291359 [Eh]
	 Total Energy              =    -520.5263533968908405 [Eh]

	 ================> DF-SCS-MP2 Energies <==================
	-----------------------------------------------------------
	 SCS Same-Spin Scale       =       0.3333333333333333 [-]
	 SCS Opposite-Spin Scale   =       1.2000000000000000 [-]
	 SCS Same-Spin Energy      =      -0.1695902867668166 [Eh]
	 SCS Opposite-Spin Energy  =      -1.8456018221144230 [Eh]
	 SCS Correlation Energy    =      -2.0151921088812395 [Eh]
	 SCS Total Energy          =    -520.4947731270430040 [Eh]
	-----------------------------------------------------------

  Dipole Moment: [D]
     X:     0.5962      Y:    -0.1270      Z:     1.1584     Total:     1.3090

*** Psi4 exiting successfully. Buy a developer a beer!
