                               Psi4 1.4a3.dev225

  ==> Input File <==

--------------------------------------------------------------------------
#psi4
#
memory 32 gb

molecule  {
0 1
  F        0.8801740    -2.1570240    -0.2741980
  O        1.6389721     0.5711780    -0.4348590
  O       -0.2367630     2.4625430    -0.1451660
  C        0.3476580     0.1463710    -0.1857710
  C       -0.6195240     1.1555560    -0.0645140
  C       -0.0605370    -1.1855140    -0.1277800
  C       -1.9594950     0.8272070     0.1461580
  C       -1.3851280    -1.5362190     0.0940810
  C       -2.3313710    -0.5151580     0.2215980
  C        2.5704260     0.1676860     0.6054290
  H       -2.6878360     1.6271100     0.2387920
  H       -1.6577150    -2.5857400     0.1384780
  H       -3.3736110    -0.7729470     0.3882060
  H        2.6849170    -0.9163680     0.6377720
  H        2.2243420     0.5379400     1.5755890
  H        3.5186220     0.6362700     0.3424670
  H        0.7214210     2.4415090    -0.3472440
units angstrom
no_reorient  #important for SAPT in psi4, default
symmetry c1  #important for SAPT in psi4, default
}

set PROPERTIES_ORIGIN ["COM"]
properties('MP2/aug-cc-pvtz', properties = ['dipole'])
--------------------------------------------------------------------------

    Molecular point group: c1
  Charge       = 0
  Multiplicity = 1
  Basis Set: AUG-CC-PVTZ
    Blend: AUG-CC-PVTZ
  Basis Set: (AUG-CC-PVTZ AUX)
    Blend: AUG-CC-PVTZ-JKFIT

    Orbital Energies [Eh]
    ---------------------

    Doubly Occupied:

       1A    -26.318296     2A    -20.599864     3A    -20.594802
       4A    -11.339516     5A    -11.314516     6A    -11.303500
       7A    -11.292847     8A    -11.254749     9A    -11.243865
      10A    -11.239386    11A     -1.630627    12A     -1.425924
      13A     -1.392575    14A     -1.158562    15A     -1.029215
      16A     -1.021388    17A     -0.947803    18A     -0.853391
      19A     -0.849457    20A     -0.759057    21A     -0.747305
      22A     -0.710542    23A     -0.700075    24A     -0.676741
      25A     -0.653408    26A     -0.646217    27A     -0.634729
      28A     -0.618745    29A     -0.588994    30A     -0.573196
      31A     -0.554464    32A     -0.540653    33A     -0.520136
      34A     -0.491372    35A     -0.474535    36A     -0.343146
      37A     -0.324509

  @DF-RHF Final Energy:  -518.47837789260393

   => Energetics <=

    Nuclear Repulsion Energy =            528.8820374195794329
    One-Electron Energy =               -1759.9846202905064274
    Two-Electron Energy =                 712.6242049783231778
    Total Energy =                       -518.4783778926039304
  Basis Set: (AUG-CC-PVTZ AUX)
    Blend: AUG-CC-PVTZ-RI
    Molecular point group: c1

    Geometry (in Angstrom), charge = 0, multiplicity = 1:

       Center              X                  Y                   Z               Mass
    ------------   -----------------  -----------------  -----------------  -----------------
         F            0.884850089171    -2.137583350351    -0.251535635685    18.998403162730
         O            1.643648189171     0.590618649649    -0.412196635685    15.994914619570
         O           -0.232086910829     2.481983649649    -0.122503635685    15.994914619570
         C            0.352334089171     0.165811649649    -0.163108635685    12.000000000000
         C           -0.614847910829     1.174996649649    -0.041851635685    12.000000000000
         C           -0.055860910829    -1.166073350351    -0.105117635685    12.000000000000
         C           -1.954818910829     0.846647649649     0.168820364315    12.000000000000
         C           -1.380451910829    -1.516778350351     0.116743364315    12.000000000000
         C           -2.326694910829    -0.495717350351     0.244260364315    12.000000000000
         C            2.575102089171     0.187126649649     0.628091364315    12.000000000000
         H           -2.683159910829     1.646550649649     0.261454364315     1.007825032230
         H           -1.653038910829    -2.566299350351     0.161140364315     1.007825032230
         H           -3.368934910829    -0.753506350351     0.410868364315     1.007825032230
         H            2.689593089171    -0.896927350351     0.660434364315     1.007825032230
         H            2.229018089171     0.557380649649     1.598251364315     1.007825032230
         H            3.523298089171     0.655710649649     0.365129364315     1.007825032230
         H            0.726097089171     2.460949649649    -0.324581635685     1.007825032230

  Basis Set: AUG-CC-PVTZ
    Blend: AUG-CC-PVTZ
  Basis Set: (AUG-CC-PVTZ AUX)
    Blend: AUG-CC-PVTZ-JKFIT
	 Reference Energy          =    -518.4783778926039304 [Eh]
	 Singles Energy            =      -0.0000000000000000 [Eh]
	 Same-Spin Energy          =      -0.5090527460014856 [Eh]
	 Opposite-Spin Energy      =      -1.5387222391676310 [Eh]
	 Correlation Energy        =      -2.0477749851691165 [Eh]
	 Total Energy              =    -520.5261528777730291 [Eh]

	 ================> DF-SCS-MP2 Energies <==================
	-----------------------------------------------------------
	 SCS Same-Spin Scale       =       0.3333333333333333 [-]
	 SCS Opposite-Spin Scale   =       1.2000000000000000 [-]
	 SCS Same-Spin Energy      =      -0.1696842486671619 [Eh]
	 SCS Opposite-Spin Energy  =      -1.8464666870011570 [Eh]
	 SCS Correlation Energy    =      -2.0161509356683189 [Eh]
	 SCS Total Energy          =    -520.4945288282722231 [Eh]
	-----------------------------------------------------------

  Dipole Moment: [D]
     X:     0.7021      Y:    -0.2045      Z:     1.1797     Total:     1.3880

*** Psi4 exiting successfully. Buy a developer a beer!
