                               Psi4 1.4a3.dev225

  ==> Input File <==

--------------------------------------------------------------------------
#psi4
#
memory 32 gb

molecule  {
0 1
  F        0.8801740    -2.1570240    -0.2741980
  O        1.6462780     0.5481910    -0.4350190
  O       -0.2367630     2.4625430    -0.1451660
  C        0.3476580     0.1463710    -0.1857710
  C       -0.6195240     1.1555560    -0.0645140
  C       -0.0310539    -1.3277780    -0.1290629
  C       -1.9594950     0.8272070     0.1461580
  C       -1.3851280    -1.5362190     0.0940810
  C       -2.3313710    -0.5151580     0.2215980
  C        2.5704260     0.1676860     0.6054290
  H       -2.6878360     1.6271100     0.2387920
  H       -1.6577150    -2.5857400     0.1384780
  H       -3.3736110    -0.7729470     0.3882060
  H        2.6849170    -0.9163680     0.6377720
  H        2.2243420     0.5379400     1.5755890
  H        3.5186220     0.6362700     0.3424670
  H        0.7214210     2.4415090    -0.3472440
units angstrom
no_reorient  #important for SAPT in psi4, default
symmetry c1  #important for SAPT in psi4, default
}

set PROPERTIES_ORIGIN ["COM"]
properties('MP2/aug-cc-pvtz', properties = ['dipole'])
--------------------------------------------------------------------------

    Molecular point group: c1
  Charge       = 0
  Multiplicity = 1
  Basis Set: AUG-CC-PVTZ
    Blend: AUG-CC-PVTZ
  Basis Set: (AUG-CC-PVTZ AUX)
    Blend: AUG-CC-PVTZ-JKFIT

    Orbital Energies [Eh]
    ---------------------

    Doubly Occupied:

       1A    -26.355003     2A    -20.594066     3A    -20.589974
       4A    -11.352559     5A    -11.308251     6A    -11.303155
       7A    -11.290588     8A    -11.251879     9A    -11.239612
      10A    -11.236704    11A     -1.712703    12A     -1.420849
      13A     -1.389189    14A     -1.142645    15A     -1.023239
      16A     -1.012758    17A     -0.943042    18A     -0.874543
      19A     -0.850757    20A     -0.779155    21A     -0.765218
      22A     -0.754766    23A     -0.716013    24A     -0.683301
      25A     -0.653533    26A     -0.650745    27A     -0.626532
      28A     -0.613326    29A     -0.584478    30A     -0.570439
      31A     -0.548998    32A     -0.531971    33A     -0.512233
      34A     -0.477706    35A     -0.461474    36A     -0.328468
      37A     -0.317321

  @DF-RHF Final Energy:  -518.45490274208566

   => Energetics <=

    Nuclear Repulsion Energy =            528.1672832161060569
    One-Electron Energy =               -1758.3099799756409993
    Two-Electron Energy =                 711.6877940174491641
    Total Energy =                       -518.4549027420856646
  Basis Set: (AUG-CC-PVTZ AUX)
    Blend: AUG-CC-PVTZ-RI
    Molecular point group: c1

    Geometry (in Angstrom), charge = 0, multiplicity = 1:

       Center              X                  Y                   Z               Mass
    ------------   -----------------  -----------------  -----------------  -----------------
         F            0.881536624787    -2.122976203283    -0.251409237444    18.998403162730
         O            1.647640624787     0.582238796717    -0.412230237444    15.994914619570
         O           -0.235400375213     2.496590796717    -0.122377237444    15.994914619570
         C            0.349020624787     0.180418796717    -0.162982237444    12.000000000000
         C           -0.618161375213     1.189603796717    -0.041725237444    12.000000000000
         C           -0.029691275213    -1.293730203283    -0.106274137444    12.000000000000
         C           -1.958132375213     0.861254796717     0.168946762556    12.000000000000
         C           -1.383765375213    -1.502171203283     0.116869762556    12.000000000000
         C           -2.330008375213    -0.481110203283     0.244386762556    12.000000000000
         C            2.571788624787     0.201733796717     0.628217762556    12.000000000000
         H           -2.686473375213     1.661157796717     0.261580762556     1.007825032230
         H           -1.656352375213    -2.551692203283     0.161266762556     1.007825032230
         H           -3.372248375213    -0.738899203283     0.410994762556     1.007825032230
         H            2.686279624787    -0.882320203283     0.660560762556     1.007825032230
         H            2.225704624787     0.571987796717     1.598377762556     1.007825032230
         H            3.519984624787     0.670317796717     0.365255762556     1.007825032230
         H            0.722783624787     2.475556796717    -0.324455237444     1.007825032230

  Basis Set: AUG-CC-PVTZ
    Blend: AUG-CC-PVTZ
  Basis Set: (AUG-CC-PVTZ AUX)
    Blend: AUG-CC-PVTZ-JKFIT
	 Reference Energy          =    -518.4549027420856646 [Eh]
	 Singles Energy            =      -0.0000000000000000 [Eh]
	 Same-Spin Energy          =      -0.5091436491751987 [Eh]
	 Opposite-Spin Energy      =      -1.5380805326127134 [Eh]
	 Correlation Energy        =      -2.0472241817879122 [Eh]
	 Total Energy              =    -520.5021269238735613 [Eh]

	 ================> DF-SCS-MP2 Energies <==================
	-----------------------------------------------------------
	 SCS Same-Spin Scale       =       0.3333333333333333 [-]
	 SCS Opposite-Spin Scale   =       1.2000000000000000 [-]
	 SCS Same-Spin Energy      =      -0.1697145497250662 [Eh]
	 SCS Opposite-Spin Energy  =      -1.8456966391352561 [Eh]
	 SCS Correlation Energy    =      -2.0154111888603223 [Eh]
	 SCS Total Energy          =    -520.4703139309459630 [Eh]
	-----------------------------------------------------------

  Dipole Moment: [D]
     X:     1.1064      Y:    -0.8005      Z:     1.0690     Total:     1.7342

*** Psi4 exiting successfully. Buy a developer a beer!
