                               Psi4 1.4a3.dev225

  ==> Input File <==

--------------------------------------------------------------------------
#psi4
#
memory 32 gb

molecule  {
0 1
  F        0.8801740    -2.1570240    -0.2741980
  O        1.6462780     0.5481910    -0.4350190
  O       -0.2367630     2.4625430    -0.1451660
  C        0.3476580     0.1463710    -0.1857710
  C       -0.6195240     1.1555560    -0.0645140
  C       -0.0605370    -1.1855140    -0.1277800
  C       -1.9594950     0.8272070     0.1461580
  C       -1.3851280    -1.5362190     0.0940810
  C       -2.3260393    -0.4959121     0.2205164
  C        2.5704260     0.1676860     0.6054290
  H       -2.6878360     1.6271100     0.2387920
  H       -1.6577150    -2.5857400     0.1384780
  H       -3.3736110    -0.7729470     0.3882060
  H        2.6849170    -0.9163680     0.6377720
  H        2.2243420     0.5379400     1.5755890
  H        3.5186220     0.6362700     0.3424670
  H        0.7214210     2.4415090    -0.3472440
units angstrom
no_reorient  #important for SAPT in psi4, default
symmetry c1  #important for SAPT in psi4, default
}

set PROPERTIES_ORIGIN ["COM"]
properties('MP2/aug-cc-pvtz', properties = ['dipole'])
--------------------------------------------------------------------------

    Molecular point group: c1
  Charge       = 0
  Multiplicity = 1
  Basis Set: AUG-CC-PVTZ
    Blend: AUG-CC-PVTZ
  Basis Set: (AUG-CC-PVTZ AUX)
    Blend: AUG-CC-PVTZ-JKFIT

    Orbital Energies [Eh]
    ---------------------

    Doubly Occupied:

       1A    -26.318039     2A    -20.598631     3A    -20.596034
       4A    -11.339300     5A    -11.315733     6A    -11.303104
       7A    -11.291203     8A    -11.254872     9A    -11.244342
      10A    -11.238309    11A     -1.630372    12A     -1.426650
      13A     -1.394538    14A     -1.159943    15A     -1.031943
      16A     -1.020978    17A     -0.946559    18A     -0.854985
      19A     -0.848678    20A     -0.759492    21A     -0.746920
      22A     -0.711172    23A     -0.700034    24A     -0.676495
      25A     -0.653570    26A     -0.646749    27A     -0.634696
      28A     -0.621396    29A     -0.590205    30A     -0.574156
      31A     -0.554303    32A     -0.540300    33A     -0.518181
      34A     -0.491011    35A     -0.473284    36A     -0.346064
      37A     -0.323567

  @DF-RHF Final Energy:  -518.47877788770029

   => Energetics <=

    Nuclear Repulsion Energy =            529.2017403484369424
    One-Electron Energy =               -1760.6094112936525562
    Two-Electron Energy =                 712.9288930575153245
    Total Energy =                       -518.4787778877002893
  Basis Set: (AUG-CC-PVTZ AUX)
    Blend: AUG-CC-PVTZ-RI
    Molecular point group: c1

    Geometry (in Angstrom), charge = 0, multiplicity = 1:

       Center              X                  Y                   Z               Mass
    ------------   -----------------  -----------------  -----------------  -----------------
         F            0.883576970207    -2.136620794681    -0.251426243561    18.998403162730
         O            1.649680970207     0.568594205319    -0.412247243561    15.994914619570
         O           -0.233360029793     2.482946205319    -0.122394243561    15.994914619570
         C            0.351060970207     0.166774205319    -0.162999243561    12.000000000000
         C           -0.616121029793     1.175959205319    -0.041742243561    12.000000000000
         C           -0.057134029793    -1.165110794681    -0.105008243561    12.000000000000
         C           -1.956092029793     0.847610205319     0.168929756439    12.000000000000
         C           -1.381725029793    -1.515815794681     0.116852756439    12.000000000000
         C           -2.322636329793    -0.475508894681     0.243288156439    12.000000000000
         C            2.573828970207     0.188089205319     0.628200756439    12.000000000000
         H           -2.684433029793     1.647513205319     0.261563756439     1.007825032230
         H           -1.654312029793    -2.565336794681     0.161249756439     1.007825032230
         H           -3.370208029793    -0.752543794681     0.410977756439     1.007825032230
         H            2.688319970207    -0.895964794681     0.660543756439     1.007825032230
         H            2.227744970207     0.558343205319     1.598360756439     1.007825032230
         H            3.522024970207     0.656673205319     0.365238756439     1.007825032230
         H            0.724823970207     2.461912205319    -0.324472243561     1.007825032230

  Basis Set: AUG-CC-PVTZ
    Blend: AUG-CC-PVTZ
  Basis Set: (AUG-CC-PVTZ AUX)
    Blend: AUG-CC-PVTZ-JKFIT
	 Reference Energy          =    -518.4787778877002893 [Eh]
	 Singles Energy            =      -0.0000000000000000 [Eh]
	 Same-Spin Energy          =      -0.5088966575646500 [Eh]
	 Opposite-Spin Energy      =      -1.5383080016056134 [Eh]
	 Correlation Energy        =      -2.0472046591702635 [Eh]
	 Total Energy              =    -520.5259825468705230 [Eh]

	 ================> DF-SCS-MP2 Energies <==================
	-----------------------------------------------------------
	 SCS Same-Spin Scale       =       0.3333333333333333 [-]
	 SCS Opposite-Spin Scale   =       1.2000000000000000 [-]
	 SCS Same-Spin Energy      =      -0.1696322191882166 [Eh]
	 SCS Opposite-Spin Energy  =      -1.8459696019267360 [Eh]
	 SCS Correlation Energy    =      -2.0156018211149527 [Eh]
	 SCS Total Energy          =    -520.4943797088152451 [Eh]
	-----------------------------------------------------------

  Dipole Moment: [D]
     X:     0.6433      Y:    -0.1514      Z:     1.1687     Total:     1.3426

*** Psi4 exiting successfully. Buy a developer a beer!
