                               Psi4 1.4a3.dev225

  ==> Input File <==

--------------------------------------------------------------------------
#psi4
#
memory 32 gb

molecule  {
0 1
  F        0.8801740    -2.1570240    -0.2741980
  O        1.6462780     0.5481910    -0.4350190
  O       -0.2367630     2.4625430    -0.1451660
  C        0.3476580     0.1463710    -0.1857710
  C       -0.6195240     1.1555560    -0.0645140
  C       -0.0605370    -1.1855140    -0.1277800
  C       -1.9594950     0.8272070     0.1461580
  C       -1.3851280    -1.5362190     0.0940810
  C       -2.3313710    -0.5151580     0.2215980
  C        2.5704260     0.1676860     0.6054290
  H       -2.6878360     1.6271100     0.2387920
  H       -1.6828324    -2.6824477     0.1425689
  H       -3.3736110    -0.7729470     0.3882060
  H        2.6849170    -0.9163680     0.6377720
  H        2.2243420     0.5379400     1.5755890
  H        3.5186220     0.6362700     0.3424670
  H        0.7214210     2.4415090    -0.3472440
units angstrom
no_reorient  #important for SAPT in psi4, default
symmetry c1  #important for SAPT in psi4, default
}

set PROPERTIES_ORIGIN ["COM"]
properties('MP2/aug-cc-pvtz', properties = ['dipole'])
--------------------------------------------------------------------------

    Molecular point group: c1
  Charge       = 0
  Multiplicity = 1
  Basis Set: AUG-CC-PVTZ
    Blend: AUG-CC-PVTZ
  Basis Set: (AUG-CC-PVTZ AUX)
    Blend: AUG-CC-PVTZ-JKFIT

    Orbital Energies [Eh]
    ---------------------

    Doubly Occupied:

       1A    -26.318156     2A    -20.599235     3A    -20.595920
       4A    -11.340249     5A    -11.315646     6A    -11.304352
       7A    -11.291548     8A    -11.256130     9A    -11.254465
      10A    -11.240456    11A     -1.630399    12A     -1.426962
      13A     -1.394764    14A     -1.158928    15A     -1.030527
      16A     -1.019236    17A     -0.947117    18A     -0.850872
      19A     -0.849186    20A     -0.759092    21A     -0.747506
      22A     -0.709793    23A     -0.699735    24A     -0.671213
      25A     -0.653795    26A     -0.644800    27A     -0.630575
      28A     -0.621449    29A     -0.590046    30A     -0.571928
      31A     -0.550605    32A     -0.536664    33A     -0.519121
      34A     -0.490800    35A     -0.473125    36A     -0.343959
      37A     -0.325487

  @DF-RHF Final Energy:  -518.47172583620647

   => Energetics <=

    Nuclear Repulsion Energy =            528.4861809798634340
    One-Electron Energy =               -1759.1881287157793849
    Two-Electron Energy =                 712.2302218997093632
    Total Energy =                       -518.4717258362064740
  Basis Set: (AUG-CC-PVTZ AUX)
    Blend: AUG-CC-PVTZ-RI
    Molecular point group: c1

    Geometry (in Angstrom), charge = 0, multiplicity = 1:

       Center              X                  Y                   Z               Mass
    ------------   -----------------  -----------------  -----------------  -----------------
         F            0.884205613221    -2.134308711557    -0.251546644499    18.998403162730
         O            1.650309613221     0.570906288443    -0.412367644499    15.994914619570
         O           -0.232731386779     2.485258288443    -0.122514644499    15.994914619570
         C            0.351689613221     0.169086288443    -0.163119644499    12.000000000000
         C           -0.615492386779     1.178271288443    -0.041862644499    12.000000000000
         C           -0.056505386779    -1.162798711557    -0.105128644499    12.000000000000
         C           -1.955463386779     0.849922288443     0.168809355501    12.000000000000
         C           -1.381096386779    -1.513503711557     0.116732355501    12.000000000000
         C           -2.327339386779    -0.492442711557     0.244249355501    12.000000000000
         C            2.574457613221     0.190401288443     0.628080355501    12.000000000000
         H           -2.683804386779     1.649825288443     0.261443355501     1.007825032230
         H           -1.678800786779    -2.659732411557     0.165220255501     1.007825032230
         H           -3.369579386779    -0.750231711557     0.410857355501     1.007825032230
         H            2.688948613221    -0.893652711557     0.660423355501     1.007825032230
         H            2.228373613221     0.560655288443     1.598240355501     1.007825032230
         H            3.522653613221     0.658985288443     0.365118355501     1.007825032230
         H            0.725452613221     2.464224288443    -0.324592644499     1.007825032230

  Basis Set: AUG-CC-PVTZ
    Blend: AUG-CC-PVTZ
  Basis Set: (AUG-CC-PVTZ AUX)
    Blend: AUG-CC-PVTZ-JKFIT
	 Reference Energy          =    -518.4717258362064740 [Eh]
	 Singles Energy            =      -0.0000000000000000 [Eh]
	 Same-Spin Energy          =      -0.5091366653033754 [Eh]
	 Opposite-Spin Energy      =      -1.5391680724586760 [Eh]
	 Correlation Energy        =      -2.0483047377620514 [Eh]
	 Total Energy              =    -520.5200305739684836 [Eh]

	 ================> DF-SCS-MP2 Energies <==================
	-----------------------------------------------------------
	 SCS Same-Spin Scale       =       0.3333333333333333 [-]
	 SCS Opposite-Spin Scale   =       1.2000000000000000 [-]
	 SCS Same-Spin Energy      =      -0.1697122217677918 [Eh]
	 SCS Opposite-Spin Energy  =      -1.8470016869504111 [Eh]
	 SCS Correlation Energy    =      -2.0167139087182031 [Eh]
	 SCS Total Energy          =    -520.4884397449246762 [Eh]
	-----------------------------------------------------------

  Dipole Moment: [D]
     X:     0.6499      Y:    -0.1545      Z:     1.1695     Total:     1.3468

*** Psi4 exiting successfully. Buy a developer a beer!
