                               Psi4 1.4a3.dev225

  ==> Input File <==

--------------------------------------------------------------------------
#psi4
#
memory 32 gb

molecule  {
0 1
  F        0.8801740    -2.1570240    -0.2741980
  O        1.6312728     0.5940356    -0.4346230
  O       -0.2367630     2.4625430    -0.1451660
  C        0.3476580     0.1463710    -0.1857710
  C       -0.6195240     1.1555560    -0.0645140
  C       -0.0605370    -1.1855140    -0.1277800
  C       -1.9594950     0.8272070     0.1461580
  C       -1.3851280    -1.5362190     0.0940810
  C       -2.3313710    -0.5151580     0.2215980
  C        2.5704260     0.1676860     0.6054290
  H       -2.6878360     1.6271100     0.2387920
  H       -1.6577150    -2.5857400     0.1384780
  H       -3.3736110    -0.7729470     0.3882060
  H        2.6849170    -0.9163680     0.6377720
  H        2.2243420     0.5379400     1.5755890
  H        3.5186220     0.6362700     0.3424670
  H        0.7214210     2.4415090    -0.3472440
units angstrom
no_reorient  #important for SAPT in psi4, default
symmetry c1  #important for SAPT in psi4, default
}

set PROPERTIES_ORIGIN ["COM"]
properties('MP2/aug-cc-pvtz', properties = ['dipole'])
--------------------------------------------------------------------------

    Molecular point group: c1
  Charge       = 0
  Multiplicity = 1
  Basis Set: AUG-CC-PVTZ
    Blend: AUG-CC-PVTZ
  Basis Set: (AUG-CC-PVTZ AUX)
    Blend: AUG-CC-PVTZ-JKFIT

    Orbital Energies [Eh]
    ---------------------

    Doubly Occupied:

       1A    -26.318299     2A    -20.600829     3A    -20.593853
       4A    -11.339653     5A    -11.313629     6A    -11.303258
       7A    -11.294367     8A    -11.254355     9A    -11.243771
      10A    -11.238905    11A     -1.630686    12A     -1.425211
      13A     -1.390584    14A     -1.158151    15A     -1.028356
      16A     -1.020987    17A     -0.948581    18A     -0.852995
      19A     -0.849254    20A     -0.758625    21A     -0.747111
      22A     -0.709768    23A     -0.699904    24A     -0.676625
      25A     -0.653081    26A     -0.645979    27A     -0.634347
      28A     -0.616132    29A     -0.588094    30A     -0.572676
      31A     -0.555195    32A     -0.540468    33A     -0.520479
      34A     -0.492195    35A     -0.475681    36A     -0.342819
      37A     -0.323847

  @DF-RHF Final Energy:  -518.47717757259181

   => Energetics <=

    Nuclear Repulsion Energy =            528.7734574149626496
    One-Electron Energy =               -1759.7837665607175950
    Two-Electron Energy =                 712.5331315731631321
    Total Energy =                       -518.4771775725918133
  Basis Set: (AUG-CC-PVTZ AUX)
    Blend: AUG-CC-PVTZ-RI
    Molecular point group: c1

    Geometry (in Angstrom), charge = 0, multiplicity = 1:

       Center              X                  Y                   Z               Mass
    ------------   -----------------  -----------------  -----------------  -----------------
         F            0.885717077615    -2.140157256427    -0.251562210734    18.998403162730
         O            1.636815877615     0.610902343573    -0.411987210734    15.994914619570
         O           -0.231219922385     2.479409743573    -0.122530210734    15.994914619570
         C            0.353201077615     0.163237743573    -0.163135210734    12.000000000000
         C           -0.613980922385     1.172422743573    -0.041878210734    12.000000000000
         C           -0.054993922385    -1.168647256427    -0.105144210734    12.000000000000
         C           -1.953951922385     0.844073743573     0.168793789266    12.000000000000
         C           -1.379584922385    -1.519352256427     0.116716789266    12.000000000000
         C           -2.325827922385    -0.498291256427     0.244233789266    12.000000000000
         C            2.575969077615     0.184552743573     0.628064789266    12.000000000000
         H           -2.682292922385     1.643976743573     0.261427789266     1.007825032230
         H           -1.652171922385    -2.568873256427     0.161113789266     1.007825032230
         H           -3.368067922385    -0.756080256427     0.410841789266     1.007825032230
         H            2.690460077615    -0.899501256427     0.660407789266     1.007825032230
         H            2.229885077615     0.554806743573     1.598224789266     1.007825032230
         H            3.524165077615     0.653136743573     0.365102789266     1.007825032230
         H            0.726964077615     2.458375743573    -0.324608210734     1.007825032230

  Basis Set: AUG-CC-PVTZ
    Blend: AUG-CC-PVTZ
  Basis Set: (AUG-CC-PVTZ AUX)
    Blend: AUG-CC-PVTZ-JKFIT
	 Reference Energy          =    -518.4771775725918133 [Eh]
	 Singles Energy            =      -0.0000000000000000 [Eh]
	 Same-Spin Energy          =      -0.5092215829365045 [Eh]
	 Opposite-Spin Energy      =      -1.5391410379525841 [Eh]
	 Correlation Energy        =      -2.0483626208890886 [Eh]
	 Total Energy              =    -520.5255401934808788 [Eh]

	 ================> DF-SCS-MP2 Energies <==================
	-----------------------------------------------------------
	 SCS Same-Spin Scale       =       0.3333333333333333 [-]
	 SCS Opposite-Spin Scale   =       1.2000000000000000 [-]
	 SCS Same-Spin Energy      =      -0.1697405276455015 [Eh]
	 SCS Opposite-Spin Energy  =      -1.8469692455431008 [Eh]
	 SCS Correlation Energy    =      -2.0167097731886021 [Eh]
	 SCS Total Energy          =    -520.4938873457804220 [Eh]
	-----------------------------------------------------------

  Dipole Moment: [D]
     X:     0.7572      Y:    -0.2424      Z:     1.1903     Total:     1.4314

*** Psi4 exiting successfully. Buy a developer a beer!
