                               Psi4 1.4a3.dev225

  ==> Input File <==

--------------------------------------------------------------------------
#psi4
#
memory 32 gb

molecule  {
0 1
  F        0.8801740    -2.1570240    -0.2741980
  O        1.6462780     0.5481910    -0.4350190
  O       -0.2367630     2.4625430    -0.1451660
  C        0.3476580     0.1463710    -0.1857710
  C       -0.6195240     1.1555560    -0.0645140
  C       -0.0663925    -1.2046195    -0.1269481
  C       -1.9594950     0.8272070     0.1461580
  C       -1.3851280    -1.5362190     0.0940810
  C       -2.3313710    -0.5151580     0.2215980
  C        2.5704260     0.1676860     0.6054290
  H       -2.6878360     1.6271100     0.2387920
  H       -1.6577150    -2.5857400     0.1384780
  H       -3.3736110    -0.7729470     0.3882060
  H        2.6849170    -0.9163680     0.6377720
  H        2.2243420     0.5379400     1.5755890
  H        3.5186220     0.6362700     0.3424670
  H        0.7214210     2.4415090    -0.3472440
units angstrom
no_reorient  #important for SAPT in psi4, default
symmetry c1  #important for SAPT in psi4, default
}

set PROPERTIES_ORIGIN ["COM"]
properties('MP2/aug-cc-pvtz', properties = ['dipole'])
--------------------------------------------------------------------------

    Molecular point group: c1
  Charge       = 0
  Multiplicity = 1
  Basis Set: AUG-CC-PVTZ
    Blend: AUG-CC-PVTZ
  Basis Set: (AUG-CC-PVTZ AUX)
    Blend: AUG-CC-PVTZ-JKFIT

    Orbital Energies [Eh]
    ---------------------

    Doubly Occupied:

       1A    -26.320907     2A    -20.598539     3A    -20.594936
       4A    -11.340208     5A    -11.314432     6A    -11.304377
       7A    -11.291149     8A    -11.255032     9A    -11.242769
      10A    -11.240045    11A     -1.636145    12A     -1.425907
      13A     -1.393817    14A     -1.157791    15A     -1.027335
      16A     -1.023272    17A     -0.946291    18A     -0.852725
      19A     -0.850803    20A     -0.759436    21A     -0.749703
      22A     -0.712701    23A     -0.703167    24A     -0.677630
      25A     -0.653468    26A     -0.646610    27A     -0.635041
      28A     -0.620720    29A     -0.589195    30A     -0.573653
      31A     -0.553389    32A     -0.539759    33A     -0.519792
      34A     -0.489779    35A     -0.472340    36A     -0.341155
      37A     -0.325491

  @DF-RHF Final Energy:  -518.47873838939609

   => Energetics <=

    Nuclear Repulsion Energy =            528.8326923585819941
    One-Electron Energy =               -1759.8638391464246524
    Two-Electron Energy =                 712.5524083984466870
    Total Energy =                       -518.4787383893960850
  Basis Set: (AUG-CC-PVTZ AUX)
    Blend: AUG-CC-PVTZ-RI
    Molecular point group: c1

    Geometry (in Angstrom), charge = 0, multiplicity = 1:

       Center              X                  Y                   Z               Mass
    ------------   -----------------  -----------------  -----------------  -----------------
         F            0.884522081144    -2.133380812596    -0.251587898825    18.998403162730
         O            1.650626081144     0.571834187404    -0.412408898825    15.994914619570
         O           -0.232414918856     2.486186187404    -0.122555898825    15.994914619570
         C            0.352006081144     0.170014187404    -0.163160898825    12.000000000000
         C           -0.615175918856     1.179199187404    -0.041903898825    12.000000000000
         C           -0.062044418856    -1.180976312596    -0.104337998825    12.000000000000
         C           -1.955146918856     0.850850187404     0.168768101175    12.000000000000
         C           -1.380779918856    -1.512575812596     0.116691101175    12.000000000000
         C           -2.327022918856    -0.491514812596     0.244208101175    12.000000000000
         C            2.574774081144     0.191329187404     0.628039101175    12.000000000000
         H           -2.683487918856     1.650753187404     0.261402101175     1.007825032230
         H           -1.653366918856    -2.562096812596     0.161088101175     1.007825032230
         H           -3.369262918856    -0.749303812596     0.410816101175     1.007825032230
         H            2.689265081144    -0.892724812596     0.660382101175     1.007825032230
         H            2.228690081144     0.561583187404     1.598199101175     1.007825032230
         H            3.522970081144     0.659913187404     0.365077101175     1.007825032230
         H            0.725769081144     2.465152187404    -0.324633898825     1.007825032230

  Basis Set: AUG-CC-PVTZ
    Blend: AUG-CC-PVTZ
  Basis Set: (AUG-CC-PVTZ AUX)
    Blend: AUG-CC-PVTZ-JKFIT
	 Reference Energy          =    -518.4787383893960850 [Eh]
	 Singles Energy            =      -0.0000000000000000 [Eh]
	 Same-Spin Energy          =      -0.5089320078460027 [Eh]
	 Opposite-Spin Energy      =      -1.5382952449854683 [Eh]
	 Correlation Energy        =      -2.0472272528314708 [Eh]
	 Total Energy              =    -520.5259656422275611 [Eh]

	 ================> DF-SCS-MP2 Energies <==================
	-----------------------------------------------------------
	 SCS Same-Spin Scale       =       0.3333333333333333 [-]
	 SCS Opposite-Spin Scale   =       1.2000000000000000 [-]
	 SCS Same-Spin Energy      =      -0.1696440026153342 [Eh]
	 SCS Opposite-Spin Energy  =      -1.8459542939825619 [Eh]
	 SCS Correlation Energy    =      -2.0155982965978962 [Eh]
	 SCS Total Energy          =    -520.4943366859939715 [Eh]
	-----------------------------------------------------------

  Dipole Moment: [D]
     X:     0.6696      Y:    -0.2246      Z:     1.1630     Total:     1.3606

*** Psi4 exiting successfully. Buy a developer a beer!
