                               Psi4 1.4a3.dev225

  ==> Input File <==

--------------------------------------------------------------------------
#psi4
#
memory 32 gb

molecule  {
0 1
  F        0.8801740    -2.1570240    -0.2741980
  O        1.6462780     0.5481910    -0.4350190
  O       -0.2367630     2.4625430    -0.1451660
  C        0.3476580     0.1463710    -0.1857710
  C       -0.6195240     1.1555560    -0.0645140
  C       -0.0605370    -1.1855140    -0.1277800
  C       -1.9594950     0.8272070     0.1461580
  C       -1.3851280    -1.5362190     0.0940810
  C       -2.3313710    -0.5151580     0.2215980
  C        2.5704260     0.1676860     0.6054290
  H       -2.7213762     1.6639456     0.2430578
  H       -1.6577150    -2.5857400     0.1384780
  H       -3.3736110    -0.7729470     0.3882060
  H        2.6849170    -0.9163680     0.6377720
  H        2.2243420     0.5379400     1.5755890
  H        3.5186220     0.6362700     0.3424670
  H        0.7214210     2.4415090    -0.3472440
units angstrom
no_reorient  #important for SAPT in psi4, default
symmetry c1  #important for SAPT in psi4, default
}

set PROPERTIES_ORIGIN ["COM"]
properties('MP2/aug-cc-pvtz', properties = ['dipole'])
--------------------------------------------------------------------------

    Molecular point group: c1
  Charge       = 0
  Multiplicity = 1
  Basis Set: AUG-CC-PVTZ
    Blend: AUG-CC-PVTZ
  Basis Set: (AUG-CC-PVTZ AUX)
    Blend: AUG-CC-PVTZ-JKFIT

    Orbital Energies [Eh]
    ---------------------

    Doubly Occupied:

       1A    -26.318394     2A    -20.599049     3A    -20.595707
       4A    -11.339501     5A    -11.315825     6A    -11.304066
       7A    -11.291486     8A    -11.255518     9A    -11.245357
      10A    -11.244244    11A     -1.630671    12A     -1.426771
      13A     -1.394554    14A     -1.158999    15A     -1.029463
      16A     -1.021141    17A     -0.947215    18A     -0.853401
      19A     -0.848022    20A     -0.759481    21A     -0.747616
      22A     -0.709214    23A     -0.699679    24A     -0.676915
      25A     -0.653597    26A     -0.641932    27A     -0.635413
      28A     -0.621314    29A     -0.589896    30A     -0.572305
      31A     -0.554055    32A     -0.537898    33A     -0.518758
      34A     -0.490789    35A     -0.473123    36A     -0.343646
      37A     -0.325377

  @DF-RHF Final Energy:  -518.47669430041412

   => Energetics <=

    Nuclear Repulsion Energy =            528.7348228395741216
    One-Electron Energy =               -1759.6822514152206622
    Two-Electron Energy =                 712.4707342752323029
    Total Energy =                       -518.4766943004141240
  Basis Set: (AUG-CC-PVTZ AUX)
    Blend: AUG-CC-PVTZ-RI
    Molecular point group: c1

    Geometry (in Angstrom), charge = 0, multiplicity = 1:

       Center              X                  Y                   Z               Mass
    ------------   -----------------  -----------------  -----------------  -----------------
         F            0.884265374760    -2.135256229375    -0.251547885451    18.998403162730
         O            1.650369374760     0.569958770625    -0.412368885451    15.994914619570
         O           -0.232671625240     2.484310770625    -0.122515885451    15.994914619570
         C            0.351749374760     0.168138770625    -0.163120885451    12.000000000000
         C           -0.615432625240     1.177323770625    -0.041863885451    12.000000000000
         C           -0.056445625240    -1.163746229375    -0.105129885451    12.000000000000
         C           -1.955403625240     0.848974770625     0.168808114549    12.000000000000
         C           -1.381036625240    -1.514451229375     0.116731114549    12.000000000000
         C           -2.327279625240    -0.493390229375     0.244248114549    12.000000000000
         C            2.574517374760     0.189453770625     0.628079114549    12.000000000000
         H           -2.717284825240     1.685713370625     0.265707914549     1.007825032230
         H           -1.653623625240    -2.563972229375     0.161128114549     1.007825032230
         H           -3.369519625240    -0.751179229375     0.410856114549     1.007825032230
         H            2.689008374760    -0.894600229375     0.660422114549     1.007825032230
         H            2.228433374760     0.559707770625     1.598239114549     1.007825032230
         H            3.522713374760     0.658037770625     0.365117114549     1.007825032230
         H            0.725512374760     2.463276770625    -0.324593885451     1.007825032230

  Basis Set: AUG-CC-PVTZ
    Blend: AUG-CC-PVTZ
  Basis Set: (AUG-CC-PVTZ AUX)
    Blend: AUG-CC-PVTZ-JKFIT
	 Reference Energy          =    -518.4766943004141240 [Eh]
	 Singles Energy            =      -0.0000000000000000 [Eh]
	 Same-Spin Energy          =      -0.5090146154798397 [Eh]
	 Opposite-Spin Energy      =      -1.5387222769730455 [Eh]
	 Correlation Energy        =      -2.0477368924528854 [Eh]
	 Total Energy              =    -520.5244311928670413 [Eh]

	 ================> DF-SCS-MP2 Energies <==================
	-----------------------------------------------------------
	 SCS Same-Spin Scale       =       0.3333333333333333 [-]
	 SCS Opposite-Spin Scale   =       1.2000000000000000 [-]
	 SCS Same-Spin Energy      =      -0.1696715384932799 [Eh]
	 SCS Opposite-Spin Energy  =      -1.8464667323676545 [Eh]
	 SCS Correlation Energy    =      -2.0161382708609343 [Eh]
	 SCS Total Energy          =    -520.4928325712750166 [Eh]
	-----------------------------------------------------------

  Dipole Moment: [D]
     X:     0.6538      Y:    -0.1709      Z:     1.1689     Total:     1.3502

*** Psi4 exiting successfully. Buy a developer a beer!
