                               Psi4 1.4a3.dev225

  ==> Input File <==

--------------------------------------------------------------------------
#psi4
#
memory 32 gb

molecule  {
0 1
  F        0.8801740    -2.1570240    -0.2741980
  O        1.6462780     0.5481910    -0.4350190
  O       -0.2367630     2.4625430    -0.1451660
  C        0.3476580     0.1463710    -0.1857710
  C       -0.6195240     1.1555560    -0.0645140
  C       -0.0605370    -1.1855140    -0.1277800
  C       -1.9594950     0.8272070     0.1461580
  C       -1.3851280    -1.5362190     0.0940810
  C       -2.2780541    -0.3226994     0.2107820
  C        2.5704260     0.1676860     0.6054290
  H       -2.6878360     1.6271100     0.2387920
  H       -1.6577150    -2.5857400     0.1384780
  H       -3.3736110    -0.7729470     0.3882060
  H        2.6849170    -0.9163680     0.6377720
  H        2.2243420     0.5379400     1.5755890
  H        3.5186220     0.6362700     0.3424670
  H        0.7214210     2.4415090    -0.3472440
units angstrom
no_reorient  #important for SAPT in psi4, default
symmetry c1  #important for SAPT in psi4, default
}

set PROPERTIES_ORIGIN ["COM"]
properties('MP2/aug-cc-pvtz', properties = ['dipole'])
--------------------------------------------------------------------------

    Molecular point group: c1
  Charge       = 0
  Multiplicity = 1
  Basis Set: AUG-CC-PVTZ
    Blend: AUG-CC-PVTZ
  Basis Set: (AUG-CC-PVTZ AUX)
    Blend: AUG-CC-PVTZ-JKFIT

    Orbital Energies [Eh]
    ---------------------

    Doubly Occupied:

       1A    -26.315743     2A    -20.599082     3A    -20.596875
       4A    -11.338565     5A    -11.319067     6A    -11.298160
       7A    -11.289848     8A    -11.249420     9A    -11.247752
      10A    -11.219811    11A     -1.628567    12A     -1.426878
      13A     -1.394948    14A     -1.177469    15A     -1.057740
      16A     -1.008329    17A     -0.943040    18A     -0.866353
      19A     -0.839220    20A     -0.757704    21A     -0.741694
      22A     -0.709127    23A     -0.698360    24A     -0.675648
      25A     -0.655269    26A     -0.651597    27A     -0.630630
      28A     -0.623228    29A     -0.595274    30A     -0.588957
      31A     -0.556667    32A     -0.530838    33A     -0.500122
      34A     -0.480249    35A     -0.473233    36A     -0.373682
      37A     -0.310750

  @DF-RHF Final Energy:  -518.41673604010634

   => Energetics <=

    Nuclear Repulsion Energy =            531.3612927209103418
    One-Electron Energy =               -1764.8162638504475126
    Two-Electron Energy =                 715.0382350894308274
    Total Energy =                       -518.4167360401063434
  Basis Set: (AUG-CC-PVTZ AUX)
    Blend: AUG-CC-PVTZ-RI
    Molecular point group: c1

    Geometry (in Angstrom), charge = 0, multiplicity = 1:

       Center              X                  Y                   Z               Mass
    ------------   -----------------  -----------------  -----------------  -----------------
         F            0.879523110678    -2.151254055654    -0.250603867282    18.998403162730
         O            1.645627110678     0.553960944346    -0.411424867282    15.994914619570
         O           -0.237413889322     2.468312944346    -0.121571867282    15.994914619570
         C            0.347007110678     0.152140944346    -0.162176867282    12.000000000000
         C           -0.620174889322     1.161325944346    -0.040919867282    12.000000000000
         C           -0.061187889322    -1.179744055654    -0.104185867282    12.000000000000
         C           -1.960145889322     0.832976944346     0.169752132718    12.000000000000
         C           -1.385778889322    -1.530449055654     0.117675132718    12.000000000000
         C           -2.278704989322    -0.316929455654     0.234376132718    12.000000000000
         C            2.569775110678     0.173455944346     0.629023132718    12.000000000000
         H           -2.688486889322     1.632879944346     0.262386132718     1.007825032230
         H           -1.658365889322    -2.579970055654     0.162072132718     1.007825032230
         H           -3.374261889322    -0.767177055654     0.411800132718     1.007825032230
         H            2.684266110678    -0.910598055654     0.661366132718     1.007825032230
         H            2.223691110678     0.543709944346     1.599183132718     1.007825032230
         H            3.517971110678     0.642039944346     0.366061132718     1.007825032230
         H            0.720770110678     2.447278944346    -0.323649867282     1.007825032230

  Basis Set: AUG-CC-PVTZ
    Blend: AUG-CC-PVTZ
  Basis Set: (AUG-CC-PVTZ AUX)
    Blend: AUG-CC-PVTZ-JKFIT
	 Reference Energy          =    -518.4167360401063434 [Eh]
	 Singles Energy            =      -0.0000000000000000 [Eh]
	 Same-Spin Energy          =      -0.5084792915725146 [Eh]
	 Opposite-Spin Energy      =      -1.5399163165865706 [Eh]
	 Correlation Energy        =      -2.0483956081590851 [Eh]
	 Total Energy              =    -520.4651316482654693 [Eh]

	 ================> DF-SCS-MP2 Energies <==================
	-----------------------------------------------------------
	 SCS Same-Spin Scale       =       0.3333333333333333 [-]
	 SCS Opposite-Spin Scale   =       1.2000000000000000 [-]
	 SCS Same-Spin Energy      =      -0.1694930971908382 [Eh]
	 SCS Opposite-Spin Energy  =      -1.8478995799038846 [Eh]
	 SCS Correlation Energy    =      -2.0173926770947230 [Eh]
	 SCS Total Energy          =    -520.4341287172010198 [Eh]
	-----------------------------------------------------------

  Dipole Moment: [D]
     X:     0.6053      Y:    -0.0068      Z:     1.1631     Total:     1.3112

*** Psi4 exiting successfully. Buy a developer a beer!
