                               Psi4 1.4a3.dev225

  ==> Input File <==

--------------------------------------------------------------------------
#psi4
#
memory 32 gb

molecule  {
0 1
  F        0.8801740    -2.1570240    -0.2741980
  O        1.6462780     0.5481910    -0.4350190
  O       -0.2367630     2.4625430    -0.1451660
  C        0.3476580     0.1463710    -0.1857710
  C       -0.6195240     1.1555560    -0.0645140
  C       -0.0605370    -1.1855140    -0.1277800
  C       -1.9594950     0.8272070     0.1461580
  C       -1.3851280    -1.5362190     0.0940810
  C       -2.3313710    -0.5151580     0.2215980
  C        2.5704260     0.1676860     0.6054290
  H       -2.6878360     1.6271100     0.2387920
  H       -1.6577150    -2.5857400     0.1384780
  H       -3.3736110    -0.7729470     0.3882060
  H        2.6849170    -0.9163680     0.6377720
  H        2.2243420     0.5379400     1.5755890
  H        3.5186220     0.6362700     0.3424670
  H        0.9170712     2.4372141    -0.3885060
units angstrom
no_reorient  #important for SAPT in psi4, default
symmetry c1  #important for SAPT in psi4, default
}

set PROPERTIES_ORIGIN ["COM"]
properties('MP2/aug-cc-pvtz', properties = ['dipole'])
--------------------------------------------------------------------------

    Molecular point group: c1
  Charge       = 0
  Multiplicity = 1
  Basis Set: AUG-CC-PVTZ
    Blend: AUG-CC-PVTZ
  Basis Set: (AUG-CC-PVTZ AUX)
    Blend: AUG-CC-PVTZ-JKFIT

    Orbital Energies [Eh]
    ---------------------

    Doubly Occupied:

       1A    -26.317808     2A    -20.602697     3A    -20.601599
       4A    -11.338714     5A    -11.313079     6A    -11.301958
       7A    -11.293424     8A    -11.254098     9A    -11.242035
      10A    -11.237805    11A     -1.630160    12A     -1.421100
      13A     -1.369001    14A     -1.155806    15A     -1.029380
      16A     -1.015790    17A     -0.947796    18A     -0.850355
      19A     -0.843526    20A     -0.746869    21A     -0.737231
      22A     -0.711737    23A     -0.699997    24A     -0.664594
      25A     -0.655015    26A     -0.645646    27A     -0.631110
      28A     -0.617839    29A     -0.581766    30A     -0.560899
      31A     -0.553509    32A     -0.535694    33A     -0.514830
      34A     -0.488586    35A     -0.474251    36A     -0.342701
      37A     -0.321949

  @DF-RHF Final Energy:  -518.44393329257969

   => Energetics <=

    Nuclear Repulsion Energy =            528.1392020897429802
    One-Electron Energy =               -1758.6655643586191218
    Two-Electron Energy =                 712.0824289762965691
    Total Energy =                       -518.4439332925796862
  Basis Set: (AUG-CC-PVTZ AUX)
    Blend: AUG-CC-PVTZ-RI
    Molecular point group: c1

    Geometry (in Angstrom), charge = 0, multiplicity = 1:

       Center              X                  Y                   Z               Mass
    ------------   -----------------  -----------------  -----------------  -----------------
         F            0.882639220638    -2.134964399821    -0.251224856129    18.998403162730
         O            1.648743220638     0.570250600179    -0.412045856129    15.994914619570
         O           -0.234297779362     2.484602600179    -0.122192856129    15.994914619570
         C            0.350123220638     0.168430600179    -0.162797856129    12.000000000000
         C           -0.617058779362     1.177615600179    -0.041540856129    12.000000000000
         C           -0.058071779362    -1.163454399821    -0.104806856129    12.000000000000
         C           -1.957029779362     0.849266600179     0.169131143871    12.000000000000
         C           -1.382662779362    -1.514159399821     0.117054143871    12.000000000000
         C           -2.328905779362    -0.493098399821     0.244571143871    12.000000000000
         C            2.572891220638     0.189745600179     0.628402143871    12.000000000000
         H           -2.685370779362     1.649169600179     0.261765143871     1.007825032230
         H           -1.655249779362    -2.563680399821     0.161451143871     1.007825032230
         H           -3.371145779362    -0.750887399821     0.411179143871     1.007825032230
         H            2.687382220638    -0.894308399821     0.660745143871     1.007825032230
         H            2.226807220638     0.559999600179     1.598562143871     1.007825032230
         H            3.521087220638     0.658329600179     0.365440143871     1.007825032230
         H            0.919536420638     2.459273700179    -0.365532856129     1.007825032230

  Basis Set: AUG-CC-PVTZ
    Blend: AUG-CC-PVTZ
  Basis Set: (AUG-CC-PVTZ AUX)
    Blend: AUG-CC-PVTZ-JKFIT
	 Reference Energy          =    -518.4439332925796862 [Eh]
	 Singles Energy            =      -0.0000000000000000 [Eh]
	 Same-Spin Energy          =      -0.5119647057834840 [Eh]
	 Opposite-Spin Energy      =      -1.5454462527199997 [Eh]
	 Correlation Energy        =      -2.0574109585034837 [Eh]
	 Total Energy              =    -520.5013442510831965 [Eh]

	 ================> DF-SCS-MP2 Energies <==================
	-----------------------------------------------------------
	 SCS Same-Spin Scale       =       0.3333333333333333 [-]
	 SCS Opposite-Spin Scale   =       1.2000000000000000 [-]
	 SCS Same-Spin Energy      =      -0.1706549019278280 [Eh]
	 SCS Opposite-Spin Energy  =      -1.8545355032639996 [Eh]
	 SCS Correlation Energy    =      -2.0251904051918275 [Eh]
	 SCS Total Energy          =    -520.4691236977714652 [Eh]
	-----------------------------------------------------------

  Dipole Moment: [D]
     X:     0.9489      Y:    -0.1565      Z:     1.1275     Total:     1.4819

*** Psi4 exiting successfully. Buy a developer a beer!
