                               Psi4 1.4a3.dev225

  ==> Input File <==

--------------------------------------------------------------------------
#psi4
#
memory 32 gb

molecule  {
0 1
  F        0.8801740    -2.1570240    -0.2741980
  O        1.6462780     0.5481910    -0.4350190
  O       -0.2367630     2.4625430    -0.1451660
  C        0.3476580     0.1463710    -0.1857710
  C       -0.6195240     1.1555560    -0.0645140
  C       -0.0605370    -1.1855140    -0.1277800
  C       -1.9594950     0.8272070     0.1461580
  C       -1.3851280    -1.5362190     0.0940810
  C       -2.3313710    -0.5151580     0.2215980
  C        2.5704260     0.1676860     0.6054290
  H       -2.6878360     1.6271100     0.2387920
  H       -1.6577150    -2.5857400     0.1384780
  H       -3.3736110    -0.7729470     0.3882060
  H        2.6849170    -0.9163680     0.6377720
  H        2.2243420     0.5379400     1.5755890
  H        3.5186220     0.6362700     0.3424670
  H        0.7214210     2.4415090    -0.3472440
units angstrom
no_reorient  #important for SAPT in psi4, default
symmetry c1  #important for SAPT in psi4, default
}

set PROPERTIES_ORIGIN ["COM"]
properties('MP2/aug-cc-pvtz', properties = ['dipole'])
--------------------------------------------------------------------------

    Molecular point group: c1
  Charge       = 0
  Multiplicity = 1
  Basis Set: AUG-CC-PVTZ
    Blend: AUG-CC-PVTZ
  Basis Set: (AUG-CC-PVTZ AUX)
    Blend: AUG-CC-PVTZ-JKFIT

    Orbital Energies [Eh]
    ---------------------

    Doubly Occupied:

       1A    -26.318279     2A    -20.598878     3A    -20.595720
       4A    -11.339369     5A    -11.315391     6A    -11.303747
       7A    -11.291385     8A    -11.255130     9A    -11.243945
      10A    -11.239851    11A     -1.630557    12A     -1.426684
      13A     -1.394505    14A     -1.158962    15A     -1.030081
      16A     -1.021757    17A     -0.947065    18A     -0.853772
      19A     -0.849643    20A     -0.759489    21A     -0.747492
      22A     -0.711321    23A     -0.700216    24A     -0.676857
      25A     -0.653733    26A     -0.646418    27A     -0.635203
      28A     -0.621207    29A     -0.589858    30A     -0.573704
      31A     -0.553801    32A     -0.540878    33A     -0.519705
      34A     -0.490641    35A     -0.473168    36A     -0.343466
      37A     -0.325151

  @DF-RHF Final Energy:  -518.47917662072007

   => Energetics <=

    Nuclear Repulsion Energy =            528.9956014203211225
    One-Electron Energy =               -1760.1954989480016138
    Two-Electron Energy =                 712.7207209069605369
    Total Energy =                       -518.4791766207200681
  Basis Set: (AUG-CC-PVTZ AUX)
    Blend: AUG-CC-PVTZ-RI
    Molecular point group: c1

    Geometry (in Angstrom), charge = 0, multiplicity = 1:

       Center              X                  Y                   Z               Mass
    ------------   -----------------  -----------------  -----------------  -----------------
         F            0.884027399982    -2.134994873041    -0.251517618703    18.998403162730
         O            1.650131399982     0.570220126959    -0.412338618703    15.994914619570
         O           -0.232909600018     2.484572126959    -0.122485618703    15.994914619570
         C            0.351511399982     0.168400126959    -0.163090618703    12.000000000000
         C           -0.615670600018     1.177585126959    -0.041833618703    12.000000000000
         C           -0.056683600018    -1.163484873041    -0.105099618703    12.000000000000
         C           -1.955641600018     0.849236126959     0.168838381297    12.000000000000
         C           -1.381274600018    -1.514189873041     0.116761381297    12.000000000000
         C           -2.327517600018    -0.493128873041     0.244278381297    12.000000000000
         C            2.574279399982     0.189715126959     0.628109381297    12.000000000000
         H           -2.683982600018     1.649139126959     0.261472381297     1.007825032230
         H           -1.653861600018    -2.563710873041     0.161158381297     1.007825032230
         H           -3.369757600018    -0.750917873041     0.410886381297     1.007825032230
         H            2.688770399982    -0.894338873041     0.660452381297     1.007825032230
         H            2.228195399982     0.559969126959     1.598269381297     1.007825032230
         H            3.522475399982     0.658299126959     0.365147381297     1.007825032230
         H            0.725274399982     2.463538126959    -0.324563618703     1.007825032230

  Basis Set: AUG-CC-PVTZ
    Blend: AUG-CC-PVTZ
  Basis Set: (AUG-CC-PVTZ AUX)
    Blend: AUG-CC-PVTZ-JKFIT
	 Reference Energy          =    -518.4791766207200681 [Eh]
	 Singles Energy            =      -0.0000000000000000 [Eh]
	 Same-Spin Energy          =      -0.5089025699712623 [Eh]
	 Opposite-Spin Energy      =      -1.5383424266860466 [Eh]
	 Correlation Energy        =      -2.0472449966573087 [Eh]
	 Total Energy              =    -520.5264216173774230 [Eh]

	 ================> DF-SCS-MP2 Energies <==================
	-----------------------------------------------------------
	 SCS Same-Spin Scale       =       0.3333333333333333 [-]
	 SCS Opposite-Spin Scale   =       1.2000000000000000 [-]
	 SCS Same-Spin Energy      =      -0.1696341899904207 [Eh]
	 SCS Opposite-Spin Energy  =      -1.8460109120232557 [Eh]
	 SCS Correlation Energy    =      -2.0156451020136763 [Eh]
	 SCS Total Energy          =    -520.4948217227337182 [Eh]
	-----------------------------------------------------------

  Dipole Moment: [D]
     X:     0.6484      Y:    -0.1661      Z:     1.1690     Total:     1.3471

*** Psi4 exiting successfully. Buy a developer a beer!
