                               Psi4 1.4a3.dev225

  ==> Input File <==

--------------------------------------------------------------------------
#psi4
#
memory 32 gb

molecule  {
0 1
  F        0.8801740    -2.1570240    -0.2741980
  O        1.6462780     0.5481910    -0.4350190
  O       -0.2367630     2.4625430    -0.1451660
  C        0.3476580     0.1463710    -0.1857710
  C       -0.6195240     1.1555560    -0.0645140
  C       -0.0605370    -1.1855140    -0.1277800
  C       -1.8634815     0.8507343     0.1310626
  C       -1.3851280    -1.5362190     0.0940810
  C       -2.3313710    -0.5151580     0.2215980
  C        2.5704260     0.1676860     0.6054290
  H       -2.6878360     1.6271100     0.2387920
  H       -1.6577150    -2.5857400     0.1384780
  H       -3.3736110    -0.7729470     0.3882060
  H        2.6849170    -0.9163680     0.6377720
  H        2.2243420     0.5379400     1.5755890
  H        3.5186220     0.6362700     0.3424670
  H        0.7214210     2.4415090    -0.3472440
units angstrom
no_reorient  #important for SAPT in psi4, default
symmetry c1  #important for SAPT in psi4, default
}

set PROPERTIES_ORIGIN ["COM"]
properties('MP2/aug-cc-pvtz', properties = ['dipole'])
--------------------------------------------------------------------------

    Molecular point group: c1
  Charge       = 0
  Multiplicity = 1
  Basis Set: AUG-CC-PVTZ
    Blend: AUG-CC-PVTZ
  Basis Set: (AUG-CC-PVTZ AUX)
    Blend: AUG-CC-PVTZ-JKFIT

    Orbital Energies [Eh]
    ---------------------

    Doubly Occupied:

       1A    -26.317709     2A    -20.599501     3A    -20.590744
       4A    -11.337418     5A    -11.306128     6A    -11.300756
       7A    -11.291817     8A    -11.260730     9A    -11.246780
      10A    -11.235708    11A     -1.630065    12A     -1.426201
      13A     -1.393292    14A     -1.164090    15A     -1.035593
      16A     -1.024122    17A     -0.948164    18A     -0.856642
      19A     -0.846440    20A     -0.758488    21A     -0.747585
      22A     -0.708868    23A     -0.699481    24A     -0.679919
      25A     -0.654096    26A     -0.643177    27A     -0.635347
      28A     -0.621145    29A     -0.591806    30A     -0.568197
      31A     -0.561026    32A     -0.528037    33A     -0.522349
      34A     -0.489826    35A     -0.471730    36A     -0.344540
      37A     -0.330172

  @DF-RHF Final Energy:  -518.46579220805722

   => Energetics <=

    Nuclear Repulsion Energy =            530.5870322870267728
    One-Electron Energy =               -1763.3702732780886890
    Two-Electron Energy =                 714.3174487830048065
    Total Energy =                       -518.4657922080572234
  Basis Set: (AUG-CC-PVTZ AUX)
    Blend: AUG-CC-PVTZ-RI
    Molecular point group: c1

    Geometry (in Angstrom), charge = 0, multiplicity = 1:

       Center              X                  Y                   Z               Mass
    ------------   -----------------  -----------------  -----------------  -----------------
         F            0.875916039773    -2.136982493584    -0.250242337342    18.998403162730
         O            1.642020039773     0.568232506416    -0.411063337342    15.994914619570
         O           -0.241020960227     2.482584506416    -0.121210337342    15.994914619570
         C            0.343400039773     0.166412506416    -0.161815337342    12.000000000000
         C           -0.623781960227     1.175597506416    -0.040558337342    12.000000000000
         C           -0.064794960227    -1.165472493584    -0.103824337342    12.000000000000
         C           -1.867739460227     0.870775806416     0.155018262658    12.000000000000
         C           -1.389385960227    -1.516177493584     0.118036662658    12.000000000000
         C           -2.335628960227    -0.495116493584     0.245553662658    12.000000000000
         C            2.566168039773     0.187727506416     0.629384662658    12.000000000000
         H           -2.692093960227     1.647151506416     0.262747662658     1.007825032230
         H           -1.661972960227    -2.565698493584     0.162433662658     1.007825032230
         H           -3.377868960227    -0.752905493584     0.412161662658     1.007825032230
         H            2.680659039773    -0.896326493584     0.661727662658     1.007825032230
         H            2.220084039773     0.557981506416     1.599544662658     1.007825032230
         H            3.514364039773     0.656311506416     0.366422662658     1.007825032230
         H            0.717163039773     2.461550506416    -0.323288337342     1.007825032230

  Basis Set: AUG-CC-PVTZ
    Blend: AUG-CC-PVTZ
  Basis Set: (AUG-CC-PVTZ AUX)
    Blend: AUG-CC-PVTZ-JKFIT
	 Reference Energy          =    -518.4657922080572234 [Eh]
	 Singles Energy            =      -0.0000000000000000 [Eh]
	 Same-Spin Energy          =      -0.5088979089279979 [Eh]
	 Opposite-Spin Energy      =      -1.5386956258026412 [Eh]
	 Correlation Energy        =      -2.0475935347306393 [Eh]
	 Total Energy              =    -520.5133857427878183 [Eh]

	 ================> DF-SCS-MP2 Energies <==================
	-----------------------------------------------------------
	 SCS Same-Spin Scale       =       0.3333333333333333 [-]
	 SCS Opposite-Spin Scale   =       1.2000000000000000 [-]
	 SCS Same-Spin Energy      =      -0.1696326363093326 [Eh]
	 SCS Opposite-Spin Energy  =      -1.8464347509631693 [Eh]
	 SCS Correlation Energy    =      -2.0160673872725021 [Eh]
	 SCS Total Energy          =    -520.4818595953297518 [Eh]
	-----------------------------------------------------------

  Dipole Moment: [D]
     X:     0.6028      Y:    -0.3272      Z:     1.1808     Total:     1.3655

*** Psi4 exiting successfully. Buy a developer a beer!
