                               Psi4 1.4a3.dev225

  ==> Input File <==

--------------------------------------------------------------------------
#psi4
#
memory 32 gb

molecule  {
0 1
  F        0.8801740    -2.1570240    -0.2741980
  O        1.6462780     0.5481910    -0.4350190
  O       -0.2367630     2.4625430    -0.1451660
  C        0.3476580     0.1463710    -0.1857710
  C       -0.6195240     1.1555560    -0.0645140
  C       -0.0605370    -1.1855140    -0.1277800
  C       -1.9594950     0.8272070     0.1461580
  C       -1.3851280    -1.5362190     0.0940810
  C       -2.3313710    -0.5151580     0.2215980
  C        2.5704260     0.1676860     0.6054290
  H       -2.6878360     1.6271100     0.2387920
  H       -1.6577150    -2.5857400     0.1384780
  H       -3.3736110    -0.7729470     0.3882060
  H        2.6849170    -0.9163680     0.6377720
  H        2.2085328     0.5548533     1.6199061
  H        3.5186220     0.6362700     0.3424670
  H        0.7214210     2.4415090    -0.3472440
units angstrom
no_reorient  #important for SAPT in psi4, default
symmetry c1  #important for SAPT in psi4, default
}

set PROPERTIES_ORIGIN ["COM"]
properties('MP2/aug-cc-pvtz', properties = ['dipole'])
--------------------------------------------------------------------------

    Molecular point group: c1
  Charge       = 0
  Multiplicity = 1
  Basis Set: AUG-CC-PVTZ
    Blend: AUG-CC-PVTZ
  Basis Set: (AUG-CC-PVTZ AUX)
    Blend: AUG-CC-PVTZ-JKFIT

    Orbital Energies [Eh]
    ---------------------

    Doubly Occupied:

       1A    -26.318445     2A    -20.599811     3A    -20.595783
       4A    -11.339515     5A    -11.315529     6A    -11.303919
       7A    -11.297266     8A    -11.255235     9A    -11.244021
      10A    -11.239922    11A     -1.630720    12A     -1.426985
      13A     -1.394769    14A     -1.159051    15A     -1.029835
      16A     -1.021750    17A     -0.943476    18A     -0.853891
      19A     -0.848968    20A     -0.759609    21A     -0.747002
      22A     -0.710599    23A     -0.700044    24A     -0.676975
      25A     -0.652555    26A     -0.646656    27A     -0.634620
      28A     -0.619818    29A     -0.589397    30A     -0.573793
      31A     -0.553541    32A     -0.538961    33A     -0.518503
      34A     -0.490698    35A     -0.471936    36A     -0.343614
      37A     -0.325276

  @DF-RHF Final Energy:  -518.47698161333324

   => Energetics <=

    Nuclear Repulsion Energy =            528.7873881069414210
    One-Electron Energy =               -1759.7837577141276597
    Two-Electron Energy =                 712.5193879938531154
    Total Energy =                       -518.4769816133332370
  Basis Set: (AUG-CC-PVTZ AUX)
    Blend: AUG-CC-PVTZ-RI
    Molecular point group: c1

    Geometry (in Angstrom), charge = 0, multiplicity = 1:

       Center              X                  Y                   Z               Mass
    ------------   -----------------  -----------------  -----------------  -----------------
         F            0.884139569583    -2.135114876464    -0.251832057854    18.998403162730
         O            1.650243569583     0.570100123536    -0.412653057854    15.994914619570
         O           -0.232797430417     2.484452123536    -0.122800057854    15.994914619570
         C            0.351623569583     0.168280123536    -0.163405057854    12.000000000000
         C           -0.615558430417     1.177465123536    -0.042148057854    12.000000000000
         C           -0.056571430417    -1.163604876464    -0.105414057854    12.000000000000
         C           -1.955529430417     0.849116123536     0.168523942146    12.000000000000
         C           -1.381162430417    -1.514309876464     0.116446942146    12.000000000000
         C           -2.327405430417    -0.493248876464     0.243963942146    12.000000000000
         C            2.574391569583     0.189595123536     0.627794942146    12.000000000000
         H           -2.683870430417     1.649019123536     0.261157942146     1.007825032230
         H           -1.653749430417    -2.563830876464     0.160843942146     1.007825032230
         H           -3.369645430417    -0.751037876464     0.410571942146     1.007825032230
         H            2.688882569583    -0.894458876464     0.660137942146     1.007825032230
         H            2.212498369583     0.576762423536     1.642272042146     1.007825032230
         H            3.522587569583     0.658179123536     0.364832942146     1.007825032230
         H            0.725386569583     2.463418123536    -0.324878057854     1.007825032230

  Basis Set: AUG-CC-PVTZ
    Blend: AUG-CC-PVTZ
  Basis Set: (AUG-CC-PVTZ AUX)
    Blend: AUG-CC-PVTZ-JKFIT
	 Reference Energy          =    -518.4769816133332370 [Eh]
	 Singles Energy            =      -0.0000000000000000 [Eh]
	 Same-Spin Energy          =      -0.5089493030408825 [Eh]
	 Opposite-Spin Energy      =      -1.5387288860935544 [Eh]
	 Correlation Energy        =      -2.0476781891344369 [Eh]
	 Total Energy              =    -520.5246598024676814 [Eh]

	 ================> DF-SCS-MP2 Energies <==================
	-----------------------------------------------------------
	 SCS Same-Spin Scale       =       0.3333333333333333 [-]
	 SCS Opposite-Spin Scale   =       1.2000000000000000 [-]
	 SCS Same-Spin Energy      =      -0.1696497676802942 [Eh]
	 SCS Opposite-Spin Energy  =      -1.8464746633122653 [Eh]
	 SCS Correlation Energy    =      -2.0161244309925594 [Eh]
	 SCS Total Energy          =    -520.4931060443258275 [Eh]
	-----------------------------------------------------------

  Dipole Moment: [D]
     X:     0.6375      Y:    -0.1747      Z:     1.1385     Total:     1.3165

*** Psi4 exiting successfully. Buy a developer a beer!
