                               Psi4 1.4a3.dev225

  ==> Input File <==

--------------------------------------------------------------------------
#psi4
#
memory 32 gb

molecule  {
0 1
  F        0.8801740    -2.1570240    -0.2741980
  O        1.6462780     0.5481910    -0.4350190
  O       -0.2367630     2.4625430    -0.1451660
  C        0.3476580     0.1463710    -0.1857710
  C       -0.6195240     1.1555560    -0.0645140
  C       -0.0605370    -1.1855140    -0.1277800
  C       -1.9114882     0.8389707     0.1386103
  C       -1.3851280    -1.5362190     0.0940810
  C       -2.3313710    -0.5151580     0.2215980
  C        2.5704260     0.1676860     0.6054290
  H       -2.6878360     1.6271100     0.2387920
  H       -1.6577150    -2.5857400     0.1384780
  H       -3.3736110    -0.7729470     0.3882060
  H        2.6849170    -0.9163680     0.6377720
  H        2.2243420     0.5379400     1.5755890
  H        3.5186220     0.6362700     0.3424670
  H        0.7214210     2.4415090    -0.3472440
units angstrom
no_reorient  #important for SAPT in psi4, default
symmetry c1  #important for SAPT in psi4, default
}

set PROPERTIES_ORIGIN ["COM"]
properties('MP2/aug-cc-pvtz', properties = ['dipole'])
--------------------------------------------------------------------------

    Molecular point group: c1
  Charge       = 0
  Multiplicity = 1
  Basis Set: AUG-CC-PVTZ
    Blend: AUG-CC-PVTZ
  Basis Set: (AUG-CC-PVTZ AUX)
    Blend: AUG-CC-PVTZ-JKFIT

    Orbital Energies [Eh]
    ---------------------

    Doubly Occupied:

       1A    -26.317961     2A    -20.599203     3A    -20.593332
       4A    -11.338352     5A    -11.308658     6A    -11.304843
       7A    -11.291610     8A    -11.257916     9A    -11.245316
      10A    -11.237930    11A     -1.630282    12A     -1.426444
      13A     -1.393942    14A     -1.161223    15A     -1.028494
      16A     -1.026669    17A     -0.947737    18A     -0.853636
      19A     -0.849682    20A     -0.758993    21A     -0.747599
      22A     -0.710000    23A     -0.699844    24A     -0.678135
      25A     -0.653892    26A     -0.644110    27A     -0.636148
      28A     -0.621166    29A     -0.590682    30A     -0.570460
      31A     -0.556954    32A     -0.535013    33A     -0.522435
      34A     -0.490293    35A     -0.472636    36A     -0.341915
      37A     -0.329177

  @DF-RHF Final Energy:  -518.47618797949667

   => Energetics <=

    Nuclear Repulsion Energy =            529.7687176302447369
    One-Electron Energy =               -1761.7444394487638419
    Two-Electron Energy =                 713.4995338390224333
    Total Energy =                       -518.4761879794966717
  Basis Set: (AUG-CC-PVTZ AUX)
    Blend: AUG-CC-PVTZ-RI
    Molecular point group: c1

    Geometry (in Angstrom), charge = 0, multiplicity = 1:

       Center              X                  Y                   Z               Mass
    ------------   -----------------  -----------------  -----------------  -----------------
         F            0.879971715654    -2.135988687536    -0.250879978022    18.998403162730
         O            1.646075715654     0.569226312464    -0.411700978022    15.994914619570
         O           -0.236965284346     2.483578312464    -0.121847978022    15.994914619570
         C            0.347455715654     0.167406312464    -0.162452978022    12.000000000000
         C           -0.619726284346     1.176591312464    -0.041195978022    12.000000000000
         C           -0.060739284346    -1.164478687536    -0.104461978022    12.000000000000
         C           -1.911690484346     0.860006012464     0.161928321978    12.000000000000
         C           -1.385330284346    -1.515183687536     0.117399021978    12.000000000000
         C           -2.331573284346    -0.494122687536     0.244916021978    12.000000000000
         C            2.570223715654     0.188721312464     0.628747021978    12.000000000000
         H           -2.688038284346     1.648145312464     0.262110021978     1.007825032230
         H           -1.657917284346    -2.564704687536     0.161796021978     1.007825032230
         H           -3.373813284346    -0.751911687536     0.411524021978     1.007825032230
         H            2.684714715654    -0.895332687536     0.661090021978     1.007825032230
         H            2.224139715654     0.558975312464     1.598907021978     1.007825032230
         H            3.518419715654     0.657305312464     0.365785021978     1.007825032230
         H            0.721218715654     2.462544312464    -0.323925978022     1.007825032230

  Basis Set: AUG-CC-PVTZ
    Blend: AUG-CC-PVTZ
  Basis Set: (AUG-CC-PVTZ AUX)
    Blend: AUG-CC-PVTZ-JKFIT
	 Reference Energy          =    -518.4761879794966717 [Eh]
	 Singles Energy            =      -0.0000000000000000 [Eh]
	 Same-Spin Energy          =      -0.5089433842891218 [Eh]
	 Opposite-Spin Energy      =      -1.5383996028890117 [Eh]
	 Correlation Energy        =      -2.0473429871781335 [Eh]
	 Total Energy              =    -520.5235309666747980 [Eh]

	 ================> DF-SCS-MP2 Energies <==================
	-----------------------------------------------------------
	 SCS Same-Spin Scale       =       0.3333333333333333 [-]
	 SCS Opposite-Spin Scale   =       1.2000000000000000 [-]
	 SCS Same-Spin Energy      =      -0.1696477947630406 [Eh]
	 SCS Opposite-Spin Energy  =      -1.8460795234668139 [Eh]
	 SCS Correlation Energy    =      -2.0157273182298545 [Eh]
	 SCS Total Energy          =    -520.4919152977265639 [Eh]
	-----------------------------------------------------------

  Dipole Moment: [D]
     X:     0.6288      Y:    -0.2413      Z:     1.1744     Total:     1.3538

*** Psi4 exiting successfully. Buy a developer a beer!
