                               Psi4 1.4a3.dev225

  ==> Input File <==

--------------------------------------------------------------------------
#psi4
#
memory 32 gb

molecule  {
0 1
  F        0.8801740    -2.1570240    -0.2741980
  O        1.6462780     0.5481910    -0.4350190
  O       -0.2367630     2.4625430    -0.1451660
  C        0.3476580     0.1463710    -0.1857710
  C       -0.6195240     1.1555560    -0.0645140
  C       -0.0605370    -1.1855140    -0.1277800
  C       -1.9594950     0.8272070     0.1461580
  C       -1.3851280    -1.5362190     0.0940810
  C       -2.3313710    -0.5151580     0.2215980
  C        2.5704260     0.1676860     0.6054290
  H       -2.6878360     1.6271100     0.2387920
  H       -1.6577150    -2.5857400     0.1384780
  H       -3.3736110    -0.7729470     0.3882060
  H        2.7032594    -0.9144036     0.6330841
  H        2.2243420     0.5379400     1.5755890
  H        3.5186220     0.6362700     0.3424670
  H        0.7214210     2.4415090    -0.3472440
units angstrom
no_reorient  #important for SAPT in psi4, default
symmetry c1  #important for SAPT in psi4, default
}

set PROPERTIES_ORIGIN ["COM"]
properties('MP2/aug-cc-pvtz', properties = ['dipole'])
--------------------------------------------------------------------------

    Molecular point group: c1
  Charge       = 0
  Multiplicity = 1
  Basis Set: AUG-CC-PVTZ
    Blend: AUG-CC-PVTZ
  Basis Set: (AUG-CC-PVTZ AUX)
    Blend: AUG-CC-PVTZ-JKFIT

    Orbital Energies [Eh]
    ---------------------

    Doubly Occupied:

       1A    -26.318166     2A    -20.599120     3A    -20.595734
       4A    -11.339334     5A    -11.315388     6A    -11.303737
       7A    -11.291405     8A    -11.255114     9A    -11.243912
      10A    -11.239833    11A     -1.630417    12A     -1.426732
      13A     -1.394545    14A     -1.158941    15A     -1.030081
      16A     -1.021739    17A     -0.947143    18A     -0.853723
      19A     -0.849618    20A     -0.759414    21A     -0.747437
      22A     -0.711108    23A     -0.700156    24A     -0.676788
      25A     -0.654559    26A     -0.646410    27A     -0.635156
      28A     -0.620662    29A     -0.589975    30A     -0.573675
      31A     -0.553369    32A     -0.541032    33A     -0.519412
      34A     -0.490698    35A     -0.473498    36A     -0.343436
      37A     -0.325146

  @DF-RHF Final Energy:  -518.47915350339656

   => Energetics <=

    Nuclear Repulsion Energy =            528.9545712696394730
    One-Electron Energy =               -1760.1142194457727328
    Two-Electron Energy =                 712.6804946727366996
    Total Energy =                       -518.4791535033965602
  Basis Set: (AUG-CC-PVTZ AUX)
    Blend: AUG-CC-PVTZ-RI
    Molecular point group: c1

    Geometry (in Angstrom), charge = 0, multiplicity = 1:

       Center              X                  Y                   Z               Mass
    ------------   -----------------  -----------------  -----------------  -----------------
         F            0.883897256794    -2.135008810872    -0.251484357066    18.998403162730
         O            1.650001256794     0.570206189128    -0.412305357066    15.994914619570
         O           -0.233039743206     2.484558189128    -0.122452357066    15.994914619570
         C            0.351381256794     0.168386189128    -0.163057357066    12.000000000000
         C           -0.615800743206     1.177571189128    -0.041800357066    12.000000000000
         C           -0.056813743206    -1.163498810872    -0.105066357066    12.000000000000
         C           -1.955771743206     0.849222189128     0.168871642934    12.000000000000
         C           -1.381404743206    -1.514203810872     0.116794642934    12.000000000000
         C           -2.327647743206    -0.493142810872     0.244311642934    12.000000000000
         C            2.574149256794     0.189701189128     0.628142642934    12.000000000000
         H           -2.684112743206     1.649125189128     0.261505642934     1.007825032230
         H           -1.653991743206    -2.563724810872     0.161191642934     1.007825032230
         H           -3.369887743206    -0.750931810872     0.410919642934     1.007825032230
         H            2.706982656794    -0.892388410872     0.655797742934     1.007825032230
         H            2.228065256794     0.559955189128     1.598302642934     1.007825032230
         H            3.522345256794     0.658285189128     0.365180642934     1.007825032230
         H            0.725144256794     2.463524189128    -0.324530357066     1.007825032230

  Basis Set: AUG-CC-PVTZ
    Blend: AUG-CC-PVTZ
  Basis Set: (AUG-CC-PVTZ AUX)
    Blend: AUG-CC-PVTZ-JKFIT
	 Reference Energy          =    -518.4791535033965602 [Eh]
	 Singles Energy            =      -0.0000000000000000 [Eh]
	 Same-Spin Energy          =      -0.5088925266976949 [Eh]
	 Opposite-Spin Energy      =      -1.5383316279338732 [Eh]
	 Correlation Energy        =      -2.0472241546315679 [Eh]
	 Total Energy              =    -520.5263776580280819 [Eh]

	 ================> DF-SCS-MP2 Energies <==================
	-----------------------------------------------------------
	 SCS Same-Spin Scale       =       0.3333333333333333 [-]
	 SCS Opposite-Spin Scale   =       1.2000000000000000 [-]
	 SCS Same-Spin Energy      =      -0.1696308422325650 [Eh]
	 SCS Opposite-Spin Energy  =      -1.8459979535206479 [Eh]
	 SCS Correlation Energy    =      -2.0156287957532126 [Eh]
	 SCS Total Energy          =    -520.4947822991497333 [Eh]
	-----------------------------------------------------------

  Dipole Moment: [D]
     X:     0.6543      Y:    -0.1673      Z:     1.1672     Total:     1.3485

*** Psi4 exiting successfully. Buy a developer a beer!
