                               Psi4 1.4a3.dev225

  ==> Input File <==

--------------------------------------------------------------------------
#psi4
#
memory 32 gb

molecule  {
0 1
  F        0.8801740    -2.1570240    -0.2741980
  O        1.6462780     0.5481910    -0.4350190
  O       -0.2367630     2.4625430    -0.1451660
  C        0.3476580     0.1463710    -0.1857710
  C       -0.6195240     1.1555560    -0.0645140
  C       -0.0605370    -1.1855140    -0.1277800
  C       -1.9594950     0.8272070     0.1461580
  C       -1.3851280    -1.5362190     0.0940810
  C       -2.3313710    -0.5151580     0.2215980
  C        2.5704260     0.1676860     0.6054290
  H       -2.6878360     1.6271100     0.2387920
  H       -1.6577150    -2.5857400     0.1384780
  H       -3.3736110    -0.7729470     0.3882060
  H        2.6112545    -0.9209192     0.6564109
  H        2.2243420     0.5379400     1.5755890
  H        3.5186220     0.6362700     0.3424670
  H        0.7214210     2.4415090    -0.3472440
units angstrom
no_reorient  #important for SAPT in psi4, default
symmetry c1  #important for SAPT in psi4, default
}

set PROPERTIES_ORIGIN ["COM"]
properties('MP2/aug-cc-pvtz', properties = ['dipole'])
--------------------------------------------------------------------------

    Molecular point group: c1
  Charge       = 0
  Multiplicity = 1
  Basis Set: AUG-CC-PVTZ
    Blend: AUG-CC-PVTZ
  Basis Set: (AUG-CC-PVTZ AUX)
    Blend: AUG-CC-PVTZ-JKFIT

    Orbital Energies [Eh]
    ---------------------

    Doubly Occupied:

       1A    -26.318739     2A    -20.597897     3A    -20.595662
       4A    -11.339519     5A    -11.315413     6A    -11.303795
       7A    -11.291311     8A    -11.255200     9A    -11.244089
      10A    -11.239927    11A     -1.631126    12A     -1.426500
      13A     -1.394352    14A     -1.159056    15A     -1.030098
      16A     -1.021837    17A     -0.946847    18A     -0.853987
      19A     -0.849759    20A     -0.759810    21A     -0.747715
      22A     -0.712240    23A     -0.700487    24A     -0.677143
      25A     -0.651228    26A     -0.645806    27A     -0.635396
      28A     -0.623310    29A     -0.589378    30A     -0.573826
      31A     -0.555428    32A     -0.540276    33A     -0.520827
      34A     -0.490346    35A     -0.471537    36A     -0.343594
      37A     -0.325177

  @DF-RHF Final Energy:  -518.47851704660798

   => Energetics <=

    Nuclear Repulsion Energy =            529.1643789256679611
    One-Electron Energy =               -1760.5285179986028652
    Two-Electron Energy =                 712.8856220263269279
    Total Energy =                       -518.4785170466079762
  Basis Set: (AUG-CC-PVTZ AUX)
    Blend: AUG-CC-PVTZ-RI
    Molecular point group: c1

    Geometry (in Angstrom), charge = 0, multiplicity = 1:

       Center              X                  Y                   Z               Mass
    ------------   -----------------  -----------------  -----------------  -----------------
         F            0.884550050922    -2.134962581319    -0.251649865621    18.998403162730
         O            1.650654050922     0.570252418681    -0.412470865621    15.994914619570
         O           -0.232386949078     2.484604418681    -0.122617865621    15.994914619570
         C            0.352034050922     0.168432418681    -0.163222865621    12.000000000000
         C           -0.615147949078     1.177617418681    -0.041965865621    12.000000000000
         C           -0.056160949078    -1.163452581319    -0.105231865621    12.000000000000
         C           -1.955118949078     0.849268418681     0.168706134379    12.000000000000
         C           -1.380751949078    -1.514157581319     0.116629134379    12.000000000000
         C           -2.326994949078    -0.493096581319     0.244146134379    12.000000000000
         C            2.574802050922     0.189747418681     0.627977134379    12.000000000000
         H           -2.683459949078     1.649171418681     0.261340134379     1.007825032230
         H           -1.653338949078    -2.563678581319     0.161026134379     1.007825032230
         H           -3.369234949078    -0.750885581319     0.410754134379     1.007825032230
         H            2.615630550922    -0.898857781319     0.678959034379     1.007825032230
         H            2.228718050922     0.560001418681     1.598137134379     1.007825032230
         H            3.522998050922     0.658331418681     0.365015134379     1.007825032230
         H            0.725797050922     2.463570418681    -0.324695865621     1.007825032230

  Basis Set: AUG-CC-PVTZ
    Blend: AUG-CC-PVTZ
  Basis Set: (AUG-CC-PVTZ AUX)
    Blend: AUG-CC-PVTZ-JKFIT
	 Reference Energy          =    -518.4785170466079762 [Eh]
	 Singles Energy            =      -0.0000000000000000 [Eh]
	 Same-Spin Energy          =      -0.5089776392902988 [Eh]
	 Opposite-Spin Energy      =      -1.5384360859592847 [Eh]
	 Correlation Energy        =      -2.0474137252495836 [Eh]
	 Total Energy              =    -520.5259307718575883 [Eh]

	 ================> DF-SCS-MP2 Energies <==================
	-----------------------------------------------------------
	 SCS Same-Spin Scale       =       0.3333333333333333 [-]
	 SCS Opposite-Spin Scale   =       1.2000000000000000 [-]
	 SCS Same-Spin Energy      =      -0.1696592130967663 [Eh]
	 SCS Opposite-Spin Energy  =      -1.8461233031511415 [Eh]
	 SCS Correlation Energy    =      -2.0157825162479077 [Eh]
	 SCS Total Energy          =    -520.4942995628558720 [Eh]
	-----------------------------------------------------------

  Dipole Moment: [D]
     X:     0.6250      Y:    -0.1597      Z:     1.1754     Total:     1.3408

*** Psi4 exiting successfully. Buy a developer a beer!
