                               Psi4 1.4a3.dev225

  ==> Input File <==

--------------------------------------------------------------------------
#psi4
#
memory 32 gb

molecule  {
0 1
  F        0.8801740    -2.1570240    -0.2741980
  O        1.6462780     0.5481910    -0.4350190
  O       -0.2367630     2.4625430    -0.1451660
  C        0.3476580     0.1463710    -0.1857710
  C       -0.6195240     1.1555560    -0.0645140
  C       -0.0605370    -1.1855140    -0.1277800
  C       -1.9594950     0.8272070     0.1461580
  C       -1.3851280    -1.5362190     0.0940810
  C       -2.3313710    -0.5151580     0.2215980
  C        2.6024546     0.1544987     0.6414882
  H       -2.6878360     1.6271100     0.2387920
  H       -1.6577150    -2.5857400     0.1384780
  H       -3.3736110    -0.7729470     0.3882060
  H        2.6849170    -0.9163680     0.6377720
  H        2.2243420     0.5379400     1.5755890
  H        3.5186220     0.6362700     0.3424670
  H        0.7214210     2.4415090    -0.3472440
units angstrom
no_reorient  #important for SAPT in psi4, default
symmetry c1  #important for SAPT in psi4, default
}

set PROPERTIES_ORIGIN ["COM"]
properties('MP2/aug-cc-pvtz', properties = ['dipole'])
--------------------------------------------------------------------------

    Molecular point group: c1
  Charge       = 0
  Multiplicity = 1
  Basis Set: AUG-CC-PVTZ
    Blend: AUG-CC-PVTZ
  Basis Set: (AUG-CC-PVTZ AUX)
    Blend: AUG-CC-PVTZ-JKFIT

    Orbital Energies [Eh]
    ---------------------

    Doubly Occupied:

       1A    -26.317465     2A    -20.594838     3A    -20.594060
       4A    -11.337374     5A    -11.313336     6A    -11.301556
       7A    -11.292893     8A    -11.253484     9A    -11.242707
      10A    -11.238516    11A     -1.629721    12A     -1.419635
      13A     -1.385210    14A     -1.156822    15A     -1.027192
      16A     -1.019955    17A     -0.951649    18A     -0.851992
      19A     -0.848382    20A     -0.757412    21A     -0.745559
      22A     -0.707072    23A     -0.698092    24A     -0.675493
      25A     -0.650721    26A     -0.644094    27A     -0.631715
      28A     -0.619298    29A     -0.588786    30A     -0.572264
      31A     -0.556068    32A     -0.542046    33A     -0.522505
      34A     -0.489504    35A     -0.475126    36A     -0.341322
      37A     -0.323054

  @DF-RHF Final Energy:  -518.47647850676094

   => Energetics <=

    Nuclear Repulsion Energy =            528.0154463255979636
    One-Electron Energy =               -1758.3500087409174739
    Two-Electron Energy =                 711.8580839085584557
    Total Energy =                       -518.4764785067609409
  Basis Set: (AUG-CC-PVTZ AUX)
    Blend: AUG-CC-PVTZ-RI
    Molecular point group: c1

    Geometry (in Angstrom), charge = 0, multiplicity = 1:

       Center              X                  Y                   Z               Mass
    ------------   -----------------  -----------------  -----------------  -----------------
         F            0.881321577243    -2.133880790745    -0.254563952396    18.998403162730
         O            1.647425577243     0.571334209255    -0.415384952396    15.994914619570
         O           -0.235615422757     2.485686209255    -0.125531952396    15.994914619570
         C            0.348805577243     0.169514209255    -0.166136952396    12.000000000000
         C           -0.618376422757     1.178699209255    -0.044879952396    12.000000000000
         C           -0.059389422757    -1.162370790745    -0.108145952396    12.000000000000
         C           -1.958347422757     0.850350209255     0.165792047604    12.000000000000
         C           -1.383980422757    -1.513075790745     0.113715047604    12.000000000000
         C           -2.330223422757    -0.492014790745     0.241232047604    12.000000000000
         C            2.603602177243     0.177641909255     0.661122247604    12.000000000000
         H           -2.686688422757     1.650253209255     0.258426047604     1.007825032230
         H           -1.656567422757    -2.562596790745     0.158112047604     1.007825032230
         H           -3.372463422757    -0.749803790745     0.407840047604     1.007825032230
         H            2.686064577243    -0.893224790745     0.657406047604     1.007825032230
         H            2.225489577243     0.561083209255     1.595223047604     1.007825032230
         H            3.519769577243     0.659413209255     0.362101047604     1.007825032230
         H            0.722568577243     2.464652209255    -0.327609952396     1.007825032230

  Basis Set: AUG-CC-PVTZ
    Blend: AUG-CC-PVTZ
  Basis Set: (AUG-CC-PVTZ AUX)
    Blend: AUG-CC-PVTZ-JKFIT
	 Reference Energy          =    -518.4764785067609409 [Eh]
	 Singles Energy            =      -0.0000000000000000 [Eh]
	 Same-Spin Energy          =      -0.5090210761872096 [Eh]
	 Opposite-Spin Energy      =      -1.5390280833704377 [Eh]
	 Correlation Energy        =      -2.0480491595576473 [Eh]
	 Total Energy              =    -520.5245276663185905 [Eh]

	 ================> DF-SCS-MP2 Energies <==================
	-----------------------------------------------------------
	 SCS Same-Spin Scale       =       0.3333333333333333 [-]
	 SCS Opposite-Spin Scale   =       1.2000000000000000 [-]
	 SCS Same-Spin Energy      =      -0.1696736920624032 [Eh]
	 SCS Opposite-Spin Energy  =      -1.8468337000445252 [Eh]
	 SCS Correlation Energy    =      -2.0165073921069285 [Eh]
	 SCS Total Energy          =    -520.4929858988679143 [Eh]
	-----------------------------------------------------------

  Dipole Moment: [D]
     X:     0.8353      Y:    -0.1859      Z:     1.2804     Total:     1.5400

*** Psi4 exiting successfully. Buy a developer a beer!
