                               Psi4 1.4a3.dev225

  ==> Input File <==

--------------------------------------------------------------------------
#psi4
#
memory 32 gb

molecule  {
0 1
  F        0.8801740    -2.1570240    -0.2741980
  O        1.6715256     0.4550896    -0.4348998
  O       -0.2367630     2.4625430    -0.1451660
  C        0.3476580     0.1463710    -0.1857710
  C       -0.6195240     1.1555560    -0.0645140
  C       -0.0605370    -1.1855140    -0.1277800
  C       -1.9594950     0.8272070     0.1461580
  C       -1.3851280    -1.5362190     0.0940810
  C       -2.3313710    -0.5151580     0.2215980
  C        2.5704260     0.1676860     0.6054290
  H       -2.6878360     1.6271100     0.2387920
  H       -1.6577150    -2.5857400     0.1384780
  H       -3.3736110    -0.7729470     0.3882060
  H        2.6849170    -0.9163680     0.6377720
  H        2.2243420     0.5379400     1.5755890
  H        3.5186220     0.6362700     0.3424670
  H        0.7214210     2.4415090    -0.3472440
units angstrom
no_reorient  #important for SAPT in psi4, default
symmetry c1  #important for SAPT in psi4, default
}

set PROPERTIES_ORIGIN ["COM"]
properties('MP2/aug-cc-pvtz', properties = ['dipole'])
--------------------------------------------------------------------------

    Molecular point group: c1
  Charge       = 0
  Multiplicity = 1
  Basis Set: AUG-CC-PVTZ
    Blend: AUG-CC-PVTZ
  Basis Set: (AUG-CC-PVTZ AUX)
    Blend: AUG-CC-PVTZ-JKFIT

    Orbital Energies [Eh]
    ---------------------

    Doubly Occupied:

       1A    -26.318050     2A    -20.599094     3A    -20.594841
       4A    -11.338660     5A    -11.318737     6A    -11.304757
       7A    -11.286161     8A    -11.256502     9A    -11.244127
      10A    -11.241547    11A     -1.630156    12A     -1.430080
      13A     -1.401486    14A     -1.160420    15A     -1.033484
      16A     -1.022946    17A     -0.944502    18A     -0.855131
      19A     -0.850205    20A     -0.761171    21A     -0.748165
      22A     -0.714328    23A     -0.700570    24A     -0.677307
      25A     -0.654946    26A     -0.646954    27A     -0.638730
      28A     -0.628265    29A     -0.592999    30A     -0.575574
      31A     -0.551693    32A     -0.542085    33A     -0.517477
      34A     -0.488702    35A     -0.465789    36A     -0.344650
      37A     -0.327477

  @DF-RHF Final Energy:  -518.47852276384322

   => Energetics <=

    Nuclear Repulsion Energy =            529.4906648294339675
    One-Electron Energy =               -1761.1228428475581040
    Two-Electron Energy =                 713.1536552542810341
    Total Energy =                       -518.4785227638432161
  Basis Set: (AUG-CC-PVTZ AUX)
    Blend: AUG-CC-PVTZ-RI
    Molecular point group: c1

    Geometry (in Angstrom), charge = 0, multiplicity = 1:

       Center              X                  Y                   Z               Mass
    ------------   -----------------  -----------------  -----------------  -----------------
         F            0.881184365234    -2.124511083878    -0.251531041354    18.998403162730
         O            1.672535965234     0.487602516122    -0.412232841354    15.994914619570
         O           -0.235752634766     2.495055916122    -0.122499041354    15.994914619570
         C            0.348668365234     0.178883916122    -0.163104041354    12.000000000000
         C           -0.618513634766     1.188068916122    -0.041847041354    12.000000000000
         C           -0.059526634766    -1.153001083878    -0.105113041354    12.000000000000
         C           -1.958484634766     0.859719916122     0.168824958646    12.000000000000
         C           -1.384117634766    -1.503706083878     0.116747958646    12.000000000000
         C           -2.330360634766    -0.482645083878     0.244264958646    12.000000000000
         C            2.571436365234     0.200198916122     0.628095958646    12.000000000000
         H           -2.686825634766     1.659622916122     0.261458958646     1.007825032230
         H           -1.656704634766    -2.553227083878     0.161144958646     1.007825032230
         H           -3.372600634766    -0.740434083878     0.410872958646     1.007825032230
         H            2.685927365234    -0.883855083878     0.660438958646     1.007825032230
         H            2.225352365234     0.570452916122     1.598255958646     1.007825032230
         H            3.519632365234     0.668782916122     0.365133958646     1.007825032230
         H            0.722431365234     2.474021916122    -0.324577041354     1.007825032230

  Basis Set: AUG-CC-PVTZ
    Blend: AUG-CC-PVTZ
  Basis Set: (AUG-CC-PVTZ AUX)
    Blend: AUG-CC-PVTZ-JKFIT
	 Reference Energy          =    -518.4785227638432161 [Eh]
	 Singles Energy            =      -0.0000000000000000 [Eh]
	 Same-Spin Energy          =      -0.5084848329354256 [Eh]
	 Opposite-Spin Energy      =      -1.5372111310732515 [Eh]
	 Correlation Energy        =      -2.0456959640086771 [Eh]
	 Total Energy              =    -520.5242187278519168 [Eh]

	 ================> DF-SCS-MP2 Energies <==================
	-----------------------------------------------------------
	 SCS Same-Spin Scale       =       0.3333333333333333 [-]
	 SCS Opposite-Spin Scale   =       1.2000000000000000 [-]
	 SCS Same-Spin Energy      =      -0.1694949443118085 [Eh]
	 SCS Opposite-Spin Energy  =      -1.8446533572879016 [Eh]
	 SCS Correlation Energy    =      -2.0141483015997101 [Eh]
	 SCS Total Energy          =    -520.4926710654428916 [Eh]
	-----------------------------------------------------------

  Dipole Moment: [D]
     X:     0.4505      Y:    -0.0066      Z:     1.1268     Total:     1.2136

*** Psi4 exiting successfully. Buy a developer a beer!
