                               Psi4 1.4a3.dev225

  ==> Input File <==

--------------------------------------------------------------------------
#psi4
#
memory 32 gb

molecule  {
0 1
  F        0.8801740    -2.1570240    -0.2741980
  O        1.6462780     0.5481910    -0.4350190
  O       -0.2367630     2.4625430    -0.1451660
  C        0.3476580     0.1463710    -0.1857710
  C       -0.6195240     1.1555560    -0.0645140
  C       -0.0605370    -1.1855140    -0.1277800
  C       -1.9594950     0.8272070     0.1461580
  C       -1.3851280    -1.5362190     0.0940810
  C       -2.3313710    -0.5151580     0.2215980
  C        2.5383974     0.1808733     0.5693698
  H       -2.6878360     1.6271100     0.2387920
  H       -1.6577150    -2.5857400     0.1384780
  H       -3.3736110    -0.7729470     0.3882060
  H        2.6849170    -0.9163680     0.6377720
  H        2.2243420     0.5379400     1.5755890
  H        3.5186220     0.6362700     0.3424670
  H        0.7214210     2.4415090    -0.3472440
units angstrom
no_reorient  #important for SAPT in psi4, default
symmetry c1  #important for SAPT in psi4, default
}

set PROPERTIES_ORIGIN ["COM"]
properties('MP2/aug-cc-pvtz', properties = ['dipole'])
--------------------------------------------------------------------------

    Molecular point group: c1
  Charge       = 0
  Multiplicity = 1
  Basis Set: AUG-CC-PVTZ
    Blend: AUG-CC-PVTZ
  Basis Set: (AUG-CC-PVTZ AUX)
    Blend: AUG-CC-PVTZ-JKFIT

    Orbital Energies [Eh]
    ---------------------

    Doubly Occupied:

       1A    -26.319104     2A    -20.602788     3A    -20.597452
       4A    -11.341443     5A    -11.317530     6A    -11.306066
       7A    -11.290942     8A    -11.256827     9A    -11.245232
      10A    -11.241235    11A     -1.631405    12A     -1.437792
      13A     -1.401977    14A     -1.161235    15A     -1.033513
      16A     -1.023576    17A     -0.942904    18A     -0.855705
      19A     -0.850616    20A     -0.761799    21A     -0.749694
      22A     -0.716777    23A     -0.701961    24A     -0.678418
      25A     -0.660272    26A     -0.649034    27A     -0.639071
      28A     -0.622962    29A     -0.591599    30A     -0.575254
      31A     -0.551446    32A     -0.539876    33A     -0.513747
      34A     -0.491581    35A     -0.468639    36A     -0.345674
      37A     -0.327201

  @DF-RHF Final Energy:  -518.47774940484192

   => Energetics <=

    Nuclear Repulsion Energy =            530.0113213615055656
    One-Electron Energy =               -1762.0934439483266942
    Two-Electron Energy =                 713.6043731819793265
    Total Energy =                       -518.4777494048419157
  Basis Set: (AUG-CC-PVTZ AUX)
    Blend: AUG-CC-PVTZ-RI
    Molecular point group: c1

    Geometry (in Angstrom), charge = 0, multiplicity = 1:

       Center              X                  Y                   Z               Mass
    ------------   -----------------  -----------------  -----------------  -----------------
         F            0.886733222721    -2.136108955336    -0.248471285010    18.998403162730
         O            1.652837222721     0.569106044664    -0.409292285010    15.994914619570
         O           -0.230203777279     2.483458044664    -0.119439285010    15.994914619570
         C            0.354217222721     0.167286044664    -0.160044285010    12.000000000000
         C           -0.612964777279     1.176471044664    -0.038787285010    12.000000000000
         C           -0.053977777279    -1.164598955336    -0.102053285010    12.000000000000
         C           -1.952935777279     0.848122044664     0.171884714990    12.000000000000
         C           -1.378568777279    -1.515303955336     0.119807714990    12.000000000000
         C           -2.324811777279    -0.494242955336     0.247324714990    12.000000000000
         C            2.544956622721     0.201788344664     0.595096514990    12.000000000000
         H           -2.681276777279     1.648025044664     0.264518714990     1.007825032230
         H           -1.651155777279    -2.564824955336     0.164204714990     1.007825032230
         H           -3.367051777279    -0.752031955336     0.413932714990     1.007825032230
         H            2.691476222721    -0.895452955336     0.663498714990     1.007825032230
         H            2.230901222721     0.558855044664     1.601315714990     1.007825032230
         H            3.525181222721     0.657185044664     0.368193714990     1.007825032230
         H            0.727980222721     2.462424044664    -0.321517285010     1.007825032230

  Basis Set: AUG-CC-PVTZ
    Blend: AUG-CC-PVTZ
  Basis Set: (AUG-CC-PVTZ AUX)
    Blend: AUG-CC-PVTZ-JKFIT
	 Reference Energy          =    -518.4777494048419157 [Eh]
	 Singles Energy            =      -0.0000000000000000 [Eh]
	 Same-Spin Energy          =      -0.5089063559346075 [Eh]
	 Opposite-Spin Energy      =      -1.5378636860517532 [Eh]
	 Correlation Energy        =      -2.0467700419863606 [Eh]
	 Total Energy              =    -520.5245194468283216 [Eh]

	 ================> DF-SCS-MP2 Energies <==================
	-----------------------------------------------------------
	 SCS Same-Spin Scale       =       0.3333333333333333 [-]
	 SCS Opposite-Spin Scale   =       1.2000000000000000 [-]
	 SCS Same-Spin Energy      =      -0.1696354519782025 [Eh]
	 SCS Opposite-Spin Energy  =      -1.8454364232621037 [Eh]
	 SCS Correlation Energy    =      -2.0150718752403063 [Eh]
	 SCS Total Energy          =    -520.4928212800822394 [Eh]
	-----------------------------------------------------------

  Dipole Moment: [D]
     X:     0.4446      Y:    -0.1446      Z:     1.0471     Total:     1.1467

*** Psi4 exiting successfully. Buy a developer a beer!
