                               Psi4 1.4a3.dev225

  ==> Input File <==

--------------------------------------------------------------------------
#psi4
#
memory 32 gb

molecule  {
0 1
  F        0.8801740    -2.1570240    -0.2741980
  O        1.6462780     0.5481910    -0.4350190
  O       -0.2367630     2.4625430    -0.1451660
  C        0.3476580     0.1463710    -0.1857710
  C       -0.6195240     1.1555560    -0.0645140
  C       -0.0605370    -1.1855140    -0.1277800
  C       -1.8226791     0.7802453     0.1262583
  C       -1.3851280    -1.5362190     0.0940810
  C       -2.3313710    -0.5151580     0.2215980
  C        2.5704260     0.1676860     0.6054290
  H       -2.6878360     1.6271100     0.2387920
  H       -1.6577150    -2.5857400     0.1384780
  H       -3.3736110    -0.7729470     0.3882060
  H        2.6849170    -0.9163680     0.6377720
  H        2.2243420     0.5379400     1.5755890
  H        3.5186220     0.6362700     0.3424670
  H        0.7214210     2.4415090    -0.3472440
units angstrom
no_reorient  #important for SAPT in psi4, default
symmetry c1  #important for SAPT in psi4, default
}

set PROPERTIES_ORIGIN ["COM"]
properties('MP2/aug-cc-pvtz', properties = ['dipole'])
--------------------------------------------------------------------------

    Molecular point group: c1
  Charge       = 0
  Multiplicity = 1
  Basis Set: AUG-CC-PVTZ
    Blend: AUG-CC-PVTZ
  Basis Set: (AUG-CC-PVTZ AUX)
    Blend: AUG-CC-PVTZ-JKFIT

    Orbital Energies [Eh]
    ---------------------

    Doubly Occupied:

       1A    -26.316752     2A    -20.599337     3A    -20.593229
       4A    -11.335571     5A    -11.306475     6A    -11.298652
       7A    -11.291948     8A    -11.256116     9A    -11.246860
      10A    -11.235704    11A     -1.629178    12A     -1.426736
      13A     -1.393918    14A     -1.173642    15A     -1.038385
      16A     -1.027408    17A     -0.950043    18A     -0.859439
      19A     -0.843981    20A     -0.761382    21A     -0.748064
      22A     -0.706188    23A     -0.697704    24A     -0.685036
      25A     -0.654307    26A     -0.644180    27A     -0.632975
      28A     -0.622364    29A     -0.594357    30A     -0.571466
      31A     -0.563752    32A     -0.528778    33A     -0.505387
      34A     -0.493751    35A     -0.468904    36A     -0.348419
      37A     -0.331790

  @DF-RHF Final Energy:  -518.45133244406929

   => Energetics <=

    Nuclear Repulsion Energy =            532.0465562965493973
    One-Electron Energy =               -1766.2314204887918550
    Two-Electron Energy =                 715.7335317481731636
    Total Energy =                       -518.4513324440692941
  Basis Set: (AUG-CC-PVTZ AUX)
    Blend: AUG-CC-PVTZ-RI
    Molecular point group: c1

    Geometry (in Angstrom), charge = 0, multiplicity = 1:

       Center              X                  Y                   Z               Mass
    ------------   -----------------  -----------------  -----------------  -----------------
         F            0.872468993642    -2.131027480281    -0.249836463087    18.998403162730
         O            1.638572993642     0.574187519719    -0.410657463087    15.994914619570
         O           -0.244468006358     2.488539519719    -0.120804463087    15.994914619570
         C            0.339952993642     0.172367519719    -0.161409463087    12.000000000000
         C           -0.627229006358     1.181552519719    -0.040152463087    12.000000000000
         C           -0.068242006358    -1.159517480281    -0.103418463087    12.000000000000
         C           -1.830384106358     0.806241819719     0.150619836913    12.000000000000
         C           -1.392833006358    -1.510222480281     0.118442536913    12.000000000000
         C           -2.339076006358    -0.489161480281     0.245959536913    12.000000000000
         C            2.562720993642     0.193682519719     0.629790536913    12.000000000000
         H           -2.695541006358     1.653106519719     0.263153536913     1.007825032230
         H           -1.665420006358    -2.559743480281     0.162839536913     1.007825032230
         H           -3.381316006358    -0.746950480281     0.412567536913     1.007825032230
         H            2.677211993642    -0.890371480281     0.662133536913     1.007825032230
         H            2.216636993642     0.563936519719     1.599950536913     1.007825032230
         H            3.510916993642     0.662266519719     0.366828536913     1.007825032230
         H            0.713715993642     2.467505519719    -0.322882463087     1.007825032230

  Basis Set: AUG-CC-PVTZ
    Blend: AUG-CC-PVTZ
  Basis Set: (AUG-CC-PVTZ AUX)
    Blend: AUG-CC-PVTZ-JKFIT
	 Reference Energy          =    -518.4513324440692941 [Eh]
	 Singles Energy            =      -0.0000000000000000 [Eh]
	 Same-Spin Energy          =      -0.5095322789073808 [Eh]
	 Opposite-Spin Energy      =      -1.5393189350241383 [Eh]
	 Correlation Energy        =      -2.0488512139315191 [Eh]
	 Total Energy              =    -520.5001836580007648 [Eh]

	 ================> DF-SCS-MP2 Energies <==================
	-----------------------------------------------------------
	 SCS Same-Spin Scale       =       0.3333333333333333 [-]
	 SCS Opposite-Spin Scale   =       1.2000000000000000 [-]
	 SCS Same-Spin Energy      =      -0.1698440929691269 [Eh]
	 SCS Opposite-Spin Energy  =      -1.8471827220289658 [Eh]
	 SCS Correlation Energy    =      -2.0170268149980926 [Eh]
	 SCS Total Energy          =    -520.4683592590673697 [Eh]
	-----------------------------------------------------------

  Dipole Moment: [D]
     X:     0.6155      Y:    -0.3578      Z:     1.1766     Total:     1.3752

*** Psi4 exiting successfully. Buy a developer a beer!
