                               Psi4 1.4a3.dev225

  ==> Input File <==

--------------------------------------------------------------------------
#psi4
#
memory 32 gb

molecule  {
0 1
  F        0.8801740    -2.1570240    -0.2741980
  O        1.6356616     0.4503818    -0.4564864
  O       -0.2367630     2.4625430    -0.1451660
  C        0.3476580     0.1463710    -0.1857710
  C       -0.6195240     1.1555560    -0.0645140
  C       -0.0605370    -1.1855140    -0.1277800
  C       -1.9594950     0.8272070     0.1461580
  C       -1.3851280    -1.5362190     0.0940810
  C       -2.3313710    -0.5151580     0.2215980
  C        2.5704260     0.1676860     0.6054290
  H       -2.6878360     1.6271100     0.2387920
  H       -1.6577150    -2.5857400     0.1384780
  H       -3.3736110    -0.7729470     0.3882060
  H        2.6849170    -0.9163680     0.6377720
  H        2.2243420     0.5379400     1.5755890
  H        3.5186220     0.6362700     0.3424670
  H        0.7214210     2.4415090    -0.3472440
units angstrom
no_reorient  #important for SAPT in psi4, default
symmetry c1  #important for SAPT in psi4, default
}

set PROPERTIES_ORIGIN ["COM"]
properties('MP2/aug-cc-pvtz', properties = ['dipole'])
--------------------------------------------------------------------------

    Molecular point group: c1
  Charge       = 0
  Multiplicity = 1
  Basis Set: AUG-CC-PVTZ
    Blend: AUG-CC-PVTZ
  Basis Set: (AUG-CC-PVTZ AUX)
    Blend: AUG-CC-PVTZ-JKFIT

    Orbital Energies [Eh]
    ---------------------

    Doubly Occupied:

       1A    -26.316740     2A    -20.597567     3A    -20.595543
       4A    -11.335138     5A    -11.315124     6A    -11.301298
       7A    -11.292760     8A    -11.253816     9A    -11.242290
      10A    -11.239601    11A     -1.628930    12A     -1.431549
      13A     -1.400119    14A     -1.157349    15A     -1.030321
      16A     -1.020855    17A     -0.948802    18A     -0.854253
      19A     -0.848674    20A     -0.760277    21A     -0.747401
      22A     -0.714096    23A     -0.699989    24A     -0.675623
      25A     -0.653555    26A     -0.645522    27A     -0.636213
      28A     -0.625927    29A     -0.590950    30A     -0.574084
      31A     -0.552373    32A     -0.542867    33A     -0.522978
      34A     -0.486872    35A     -0.468843    36A     -0.341185
      37A     -0.324478

  @DF-RHF Final Energy:  -518.47859131988685

   => Energetics <=

    Nuclear Repulsion Energy =            529.9173239262315747
    One-Electron Energy =               -1762.0439053912405143
    Two-Electron Energy =                 713.6479901451220940
    Total Energy =                       -518.4785913198868457
  Basis Set: (AUG-CC-PVTZ AUX)
    Blend: AUG-CC-PVTZ-RI
    Molecular point group: c1

    Geometry (in Angstrom), charge = 0, multiplicity = 1:

       Center              X                  Y                   Z               Mass
    ------------   -----------------  -----------------  -----------------  -----------------
         F            0.885222871793    -2.123980956698    -0.249100257681    18.998403162730
         O            1.640710471793     0.483424843302    -0.431388657681    15.994914619570
         O           -0.231714128207     2.495586043302    -0.120068257681    15.994914619570
         C            0.352706871793     0.179414043302    -0.160673257681    12.000000000000
         C           -0.614475128207     1.188599043302    -0.039416257681    12.000000000000
         C           -0.055488128207    -1.152470956698    -0.102682257681    12.000000000000
         C           -1.954446128207     0.860250043302     0.171255742319    12.000000000000
         C           -1.380079128207    -1.503175956698     0.119178742319    12.000000000000
         C           -2.326322128207    -0.482114956698     0.246695742319    12.000000000000
         C            2.575474871793     0.200729043302     0.630526742319    12.000000000000
         H           -2.682787128207     1.660153043302     0.263889742319     1.007825032230
         H           -1.652666128207    -2.552696956698     0.163575742319     1.007825032230
         H           -3.368562128207    -0.739903956698     0.413303742319     1.007825032230
         H            2.689965871793    -0.883324956698     0.662869742319     1.007825032230
         H            2.229390871793     0.570983043302     1.600686742319     1.007825032230
         H            3.523670871793     0.669313043302     0.367564742319     1.007825032230
         H            0.726469871793     2.474552043302    -0.322146257681     1.007825032230

  Basis Set: AUG-CC-PVTZ
    Blend: AUG-CC-PVTZ
  Basis Set: (AUG-CC-PVTZ AUX)
    Blend: AUG-CC-PVTZ-JKFIT
	 Reference Energy          =    -518.4785913198868457 [Eh]
	 Singles Energy            =      -0.0000000000000000 [Eh]
	 Same-Spin Energy          =      -0.5086962833395027 [Eh]
	 Opposite-Spin Energy      =      -1.5374802290811735 [Eh]
	 Correlation Energy        =      -2.0461765124206761 [Eh]
	 Total Energy              =    -520.5247678323074751 [Eh]

	 ================> DF-SCS-MP2 Energies <==================
	-----------------------------------------------------------
	 SCS Same-Spin Scale       =       0.3333333333333333 [-]
	 SCS Opposite-Spin Scale   =       1.2000000000000000 [-]
	 SCS Same-Spin Energy      =      -0.1695654277798342 [Eh]
	 SCS Opposite-Spin Energy  =      -1.8449762748974081 [Eh]
	 SCS Correlation Energy    =      -2.0145417026772425 [Eh]
	 SCS Total Energy          =    -520.4931330225640522 [Eh]
	-----------------------------------------------------------

  Dipole Moment: [D]
     X:     0.7292      Y:     0.0074      Z:     1.2022     Total:     1.4061

*** Psi4 exiting successfully. Buy a developer a beer!
