                               Psi4 1.4a3.dev225

  ==> Input File <==

--------------------------------------------------------------------------
#psi4
#
memory 32 gb

molecule  {
0 1
  F        0.8801740    -2.1570240    -0.2741980
  O        1.6462780     0.5481910    -0.4350190
  O       -0.2367630     2.4625430    -0.1451660
  C        0.3476580     0.1463710    -0.1857710
  C       -0.6195240     1.1555560    -0.0645140
  C       -0.0605370    -1.1855140    -0.1277800
  C       -2.0060812     0.8396134     0.1529860
  C       -1.3851280    -1.5362190     0.0940810
  C       -2.3313710    -0.5151580     0.2215980
  C        2.5704260     0.1676860     0.6054290
  H       -2.6878360     1.6271100     0.2387920
  H       -1.6577150    -2.5857400     0.1384780
  H       -3.3736110    -0.7729470     0.3882060
  H        2.6849170    -0.9163680     0.6377720
  H        2.2243420     0.5379400     1.5755890
  H        3.5186220     0.6362700     0.3424670
  H        0.7214210     2.4415090    -0.3472440
units angstrom
no_reorient  #important for SAPT in psi4, default
symmetry c1  #important for SAPT in psi4, default
}

set PROPERTIES_ORIGIN ["COM"]
properties('MP2/aug-cc-pvtz', properties = ['dipole'])
--------------------------------------------------------------------------

    Molecular point group: c1
  Charge       = 0
  Multiplicity = 1
  Basis Set: AUG-CC-PVTZ
    Blend: AUG-CC-PVTZ
  Basis Set: (AUG-CC-PVTZ AUX)
    Blend: AUG-CC-PVTZ-JKFIT

    Orbital Energies [Eh]
    ---------------------

    Doubly Occupied:

       1A    -26.318997     2A    -20.598803     3A    -20.596712
       4A    -11.340865     5A    -11.320548     6A    -11.303055
       7A    -11.291273     8A    -11.255465     9A    -11.243280
      10A    -11.241605    11A     -1.631210    12A     -1.426777
      13A     -1.394740    14A     -1.155391    15A     -1.031101
      16A     -1.017582    17A     -0.946139    18A     -0.856052
      19A     -0.848097    20A     -0.759444    21A     -0.747247
      22A     -0.714624    23A     -0.701095    24A     -0.675895
      25A     -0.653920    26A     -0.649842    27A     -0.632916
      28A     -0.620748    29A     -0.588836    30A     -0.577694
      31A     -0.552035    32A     -0.544244    33A     -0.516793
      34A     -0.489818    35A     -0.473295    36A     -0.344148
      37A     -0.321724

  @DF-RHF Final Energy:  -518.47559047348602

   => Energetics <=

    Nuclear Repulsion Energy =            528.0377394634871280
    One-Electron Energy =               -1758.2626399168477747
    Two-Electron Energy =                 711.7493099798745106
    Total Energy =                       -518.4755904734860223
  Basis Set: (AUG-CC-PVTZ AUX)
    Blend: AUG-CC-PVTZ-RI
    Molecular point group: c1

    Geometry (in Angstrom), charge = 0, multiplicity = 1:

       Center              X                  Y                   Z               Mass
    ------------   -----------------  -----------------  -----------------  -----------------
         F            0.887963069955    -2.136042983768    -0.252094458079    18.998403162730
         O            1.654067069955     0.569172016232    -0.412915458079    15.994914619570
         O           -0.228973930045     2.483524016232    -0.123062458079    15.994914619570
         C            0.355447069955     0.167352016232    -0.163667458079    12.000000000000
         C           -0.611734930045     1.176537016232    -0.042410458079    12.000000000000
         C           -0.052747930045    -1.164532983768    -0.105676458079    12.000000000000
         C           -1.998292130045     0.860594416232     0.175089541921    12.000000000000
         C           -1.377338930045    -1.515237983768     0.116184541921    12.000000000000
         C           -2.323581930045    -0.494176983768     0.243701541921    12.000000000000
         C            2.578215069955     0.188667016232     0.627532541921    12.000000000000
         H           -2.680046930045     1.648091016232     0.260895541921     1.007825032230
         H           -1.649925930045    -2.564758983768     0.160581541921     1.007825032230
         H           -3.365821930045    -0.751965983768     0.410309541921     1.007825032230
         H            2.692706069955    -0.895386983768     0.659875541921     1.007825032230
         H            2.232131069955     0.558921016232     1.597692541921     1.007825032230
         H            3.526411069955     0.657251016232     0.364570541921     1.007825032230
         H            0.729210069955     2.462490016232    -0.325140458079     1.007825032230

  Basis Set: AUG-CC-PVTZ
    Blend: AUG-CC-PVTZ
  Basis Set: (AUG-CC-PVTZ AUX)
    Blend: AUG-CC-PVTZ-JKFIT
	 Reference Energy          =    -518.4755904734860223 [Eh]
	 Singles Energy            =      -0.0000000000000000 [Eh]
	 Same-Spin Energy          =      -0.5088121660253763 [Eh]
	 Opposite-Spin Energy      =      -1.5386474334179248 [Eh]
	 Correlation Energy        =      -2.0474595994433011 [Eh]
	 Total Energy              =    -520.5230500729293226 [Eh]

	 ================> DF-SCS-MP2 Energies <==================
	-----------------------------------------------------------
	 SCS Same-Spin Scale       =       0.3333333333333333 [-]
	 SCS Opposite-Spin Scale   =       1.2000000000000000 [-]
	 SCS Same-Spin Energy      =      -0.1696040553417921 [Eh]
	 SCS Opposite-Spin Energy  =      -1.8463769201015097 [Eh]
	 SCS Correlation Energy    =      -2.0159809754433016 [Eh]
	 SCS Total Energy          =    -520.4915714489293350 [Eh]
	-----------------------------------------------------------

  Dipole Moment: [D]
     X:     0.6661      Y:    -0.1201      Z:     1.1658     Total:     1.3481

*** Psi4 exiting successfully. Buy a developer a beer!
