                               Psi4 1.4a3.dev225

  ==> Input File <==

--------------------------------------------------------------------------
#psi4
#
memory 32 gb

molecule  {
0 1
  F        0.8801740    -2.1570240    -0.2741980
  O        1.5965908     0.6840333    -0.4329224
  O       -0.2367630     2.4625430    -0.1451660
  C        0.3476580     0.1463710    -0.1857710
  C       -0.6195240     1.1555560    -0.0645140
  C       -0.0605370    -1.1855140    -0.1277800
  C       -1.9594950     0.8272070     0.1461580
  C       -1.3851280    -1.5362190     0.0940810
  C       -2.3313710    -0.5151580     0.2215980
  C        2.5704260     0.1676860     0.6054290
  H       -2.6878360     1.6271100     0.2387920
  H       -1.6577150    -2.5857400     0.1384780
  H       -3.3736110    -0.7729470     0.3882060
  H        2.6849170    -0.9163680     0.6377720
  H        2.2243420     0.5379400     1.5755890
  H        3.5186220     0.6362700     0.3424670
  H        0.7214210     2.4415090    -0.3472440
units angstrom
no_reorient  #important for SAPT in psi4, default
symmetry c1  #important for SAPT in psi4, default
}

set PROPERTIES_ORIGIN ["COM"]
properties('MP2/aug-cc-pvtz', properties = ['dipole'])
--------------------------------------------------------------------------

    Molecular point group: c1
  Charge       = 0
  Multiplicity = 1
  Basis Set: AUG-CC-PVTZ
    Blend: AUG-CC-PVTZ
  Basis Set: (AUG-CC-PVTZ AUX)
    Blend: AUG-CC-PVTZ-JKFIT

    Orbital Energies [Eh]
    ---------------------

    Doubly Occupied:

       1A    -26.318190     2A    -20.604383     3A    -20.589750
       4A    -11.340110     5A    -11.309997     6A    -11.302353
       7A    -11.301007     8A    -11.252675     9A    -11.243267
      10A    -11.236836    11A     -1.630826    12A     -1.422909
      13A     -1.382126    14A     -1.156415    15A     -1.025106
      16A     -1.019000    17A     -0.952097    18A     -0.851285
      19A     -0.848280    20A     -0.756944    21A     -0.746294
      22A     -0.706935    23A     -0.698796    24A     -0.676150
      25A     -0.651818    26A     -0.644701    27A     -0.633267
      28A     -0.605271    29A     -0.584081    30A     -0.570579
      31A     -0.558703    32A     -0.540053    33A     -0.520737
      34A     -0.495848    35A     -0.478336    36A     -0.341466
      37A     -0.321030

  @DF-RHF Final Energy:  -518.46826163813614

   => Energetics <=

    Nuclear Repulsion Energy =            528.3979701791234902
    One-Electron Energy =               -1759.0972193501286256
    Two-Electron Energy =                 712.2309875328691078
    Total Energy =                       -518.4682616381361413
  Basis Set: (AUG-CC-PVTZ AUX)
    Blend: AUG-CC-PVTZ-RI
    Molecular point group: c1

    Geometry (in Angstrom), charge = 0, multiplicity = 1:

       Center              X                  Y                   Z               Mass
    ------------   -----------------  -----------------  -----------------  -----------------
         F            0.889622483717    -2.150291549917    -0.251753708733    18.998403162730
         O            1.606039283717     0.690765750083    -0.410478108733    15.994914619570
         O           -0.227314516283     2.469275450083    -0.122721708733    15.994914619570
         C            0.357106483717     0.153103450083    -0.163326708733    12.000000000000
         C           -0.610075516283     1.162288450083    -0.042069708733    12.000000000000
         C           -0.051088516283    -1.178781549917    -0.105335708733    12.000000000000
         C           -1.950046516283     0.833939450083     0.168602291267    12.000000000000
         C           -1.375679516283    -1.529486549917     0.116525291267    12.000000000000
         C           -2.321922516283    -0.508425549917     0.244042291267    12.000000000000
         C            2.579874483717     0.174418450083     0.627873291267    12.000000000000
         H           -2.678387516283     1.633842450083     0.261236291267     1.007825032230
         H           -1.648266516283    -2.579007549917     0.160922291267     1.007825032230
         H           -3.364162516283    -0.766214549917     0.410650291267     1.007825032230
         H            2.694365483717    -0.909635549917     0.660216291267     1.007825032230
         H            2.233790483717     0.544672450083     1.598033291267     1.007825032230
         H            3.528070483717     0.643002450083     0.364911291267     1.007825032230
         H            0.730869483717     2.448241450083    -0.324799708733     1.007825032230

  Basis Set: AUG-CC-PVTZ
    Blend: AUG-CC-PVTZ
  Basis Set: (AUG-CC-PVTZ AUX)
    Blend: AUG-CC-PVTZ-JKFIT
	 Reference Energy          =    -518.4682616381361413 [Eh]
	 Singles Energy            =      -0.0000000000000000 [Eh]
	 Same-Spin Energy          =      -0.5100878436515766 [Eh]
	 Opposite-Spin Energy      =      -1.5412077915074796 [Eh]
	 Correlation Energy        =      -2.0512956351590561 [Eh]
	 Total Energy              =    -520.5195572732951632 [Eh]

	 ================> DF-SCS-MP2 Energies <==================
	-----------------------------------------------------------
	 SCS Same-Spin Scale       =       0.3333333333333333 [-]
	 SCS Opposite-Spin Scale   =       1.2000000000000000 [-]
	 SCS Same-Spin Energy      =      -0.1700292812171922 [Eh]
	 SCS Opposite-Spin Energy  =      -1.8494493498089755 [Eh]
	 SCS Correlation Energy    =      -2.0194786310261676 [Eh]
	 SCS Total Energy          =    -520.4877402691622592 [Eh]
	-----------------------------------------------------------

  Dipole Moment: [D]
     X:     0.9886      Y:    -0.3863      Z:     1.2324     Total:     1.6265

*** Psi4 exiting successfully. Buy a developer a beer!
