                               Psi4 1.4a3.dev225

  ==> Input File <==

--------------------------------------------------------------------------
#psi4
#
memory 32 gb

molecule  {
0 1
  F        0.8801740    -2.1570240    -0.2741980
  O        1.6462780     0.5481910    -0.4350190
  O       -0.2367630     2.4625430    -0.1451660
  C        0.3476580     0.1463710    -0.1857710
  C       -0.6195240     1.1555560    -0.0645140
  C       -0.0605370    -1.1855140    -0.1277800
  C       -1.9594950     0.8272070     0.1461580
  C       -1.3851280    -1.5362190     0.0940810
  C       -2.3313710    -0.5151580     0.2215980
  C        2.5704260     0.1676860     0.6054290
  H       -2.6878360     1.6271100     0.2387920
  H       -1.6577150    -2.5857400     0.1384780
  H       -3.3736110    -0.7729470     0.3882060
  H        2.7215614    -0.9121095     0.6283877
  H        2.2243420     0.5379400     1.5755890
  H        3.5186220     0.6362700     0.3424670
  H        0.7214210     2.4415090    -0.3472440
units angstrom
no_reorient  #important for SAPT in psi4, default
symmetry c1  #important for SAPT in psi4, default
}

set PROPERTIES_ORIGIN ["COM"]
properties('MP2/aug-cc-pvtz', properties = ['dipole'])
--------------------------------------------------------------------------

    Molecular point group: c1
  Charge       = 0
  Multiplicity = 1
  Basis Set: AUG-CC-PVTZ
    Blend: AUG-CC-PVTZ
  Basis Set: (AUG-CC-PVTZ AUX)
    Blend: AUG-CC-PVTZ-JKFIT

    Orbital Energies [Eh]
    ---------------------

    Doubly Occupied:

       1A    -26.318053     2A    -20.599361     3A    -20.595749
       4A    -11.339300     5A    -11.315386     6A    -11.303728
       7A    -11.291425     8A    -11.255099     9A    -11.243879
      10A    -11.239817    11A     -1.630279    12A     -1.426781
      13A     -1.394585    14A     -1.158921    15A     -1.030082
      16A     -1.021722    17A     -0.947231    18A     -0.853676
      19A     -0.849594    20A     -0.759341    21A     -0.747383
      22A     -0.710902    23A     -0.700099    24A     -0.676722
      25A     -0.655427    26A     -0.646373    27A     -0.635110
      28A     -0.620114    29A     -0.590091    30A     -0.573647
      31A     -0.552929    32A     -0.541187    33A     -0.519116
      34A     -0.490745    35A     -0.473795    36A     -0.343407
      37A     -0.325141

  @DF-RHF Final Energy:  -518.47905547194864

   => Energetics <=

    Nuclear Repulsion Energy =            528.9140306470444557
    One-Electron Energy =               -1760.0337809757452305
    Two-Electron Energy =                 712.6406948567521340
    Total Energy =                       -518.4790554719486408
  Basis Set: (AUG-CC-PVTZ AUX)
    Blend: AUG-CC-PVTZ-RI
    Molecular point group: c1

    Geometry (in Angstrom), charge = 0, multiplicity = 1:

       Center              X                  Y                   Z               Mass
    ------------   -----------------  -----------------  -----------------  -----------------
         F            0.883767400252    -2.135025087994    -0.251451035119    18.998403162730
         O            1.649871400252     0.570189912006    -0.412272035119    15.994914619570
         O           -0.233169599748     2.484541912006    -0.122419035119    15.994914619570
         C            0.351251400252     0.168369912006    -0.163024035119    12.000000000000
         C           -0.615930599748     1.177554912006    -0.041767035119    12.000000000000
         C           -0.056943599748    -1.163515087994    -0.105033035119    12.000000000000
         C           -1.955901599748     0.849205912006     0.168904964881    12.000000000000
         C           -1.381534599748    -1.514220087994     0.116827964881    12.000000000000
         C           -2.327777599748    -0.493159087994     0.244344964881    12.000000000000
         C            2.574019400252     0.189684912006     0.628175964881    12.000000000000
         H           -2.684242599748     1.649108912006     0.261538964881     1.007825032230
         H           -1.654121599748    -2.563741087994     0.161224964881     1.007825032230
         H           -3.370017599748    -0.750948087994     0.410952964881     1.007825032230
         H            2.725154800252    -0.890110587994     0.651134664881     1.007825032230
         H            2.227935400252     0.559938912006     1.598335964881     1.007825032230
         H            3.522215400252     0.658268912006     0.365213964881     1.007825032230
         H            0.725014400252     2.463507912006    -0.324497035119     1.007825032230

  Basis Set: AUG-CC-PVTZ
    Blend: AUG-CC-PVTZ
  Basis Set: (AUG-CC-PVTZ AUX)
    Blend: AUG-CC-PVTZ-JKFIT
	 Reference Energy          =    -518.4790554719486408 [Eh]
	 Singles Energy            =      -0.0000000000000000 [Eh]
	 Same-Spin Energy          =      -0.5088859782248671 [Eh]
	 Opposite-Spin Energy      =      -1.5383258794977746 [Eh]
	 Correlation Energy        =      -2.0472118577226417 [Eh]
	 Total Energy              =    -520.5262673296713274 [Eh]

	 ================> DF-SCS-MP2 Energies <==================
	-----------------------------------------------------------
	 SCS Same-Spin Scale       =       0.3333333333333333 [-]
	 SCS Opposite-Spin Scale   =       1.2000000000000000 [-]
	 SCS Same-Spin Energy      =      -0.1696286594082890 [Eh]
	 SCS Opposite-Spin Energy  =      -1.8459910553973293 [Eh]
	 SCS Correlation Energy    =      -2.0156197148056183 [Eh]
	 SCS Total Energy          =    -520.4946751867543071 [Eh]
	-----------------------------------------------------------

  Dipole Moment: [D]
     X:     0.6603      Y:    -0.1683      Z:     1.1653     Total:     1.3499

*** Psi4 exiting successfully. Buy a developer a beer!
