                               Psi4 1.4a3.dev225

  ==> Input File <==

--------------------------------------------------------------------------
#psi4
#
memory 32 gb

molecule  {
0 1
  F        0.8801740    -2.1570240    -0.2741980
  O        1.6462780     0.5481910    -0.4350190
  O       -0.2367630     2.4625430    -0.1451660
  C        0.3476580     0.1463710    -0.1857710
  C       -0.6195240     1.1555560    -0.0645140
  C       -0.0605370    -1.1855140    -0.1277800
  C       -1.9594950     0.8272070     0.1461580
  C       -1.3851280    -1.5362190     0.0940810
  C       -2.3313710    -0.5151580     0.2215980
  C        2.5704260     0.1676860     0.6054290
  H       -2.6878360     1.6271100     0.2387920
  H       -1.6577150    -2.5857400     0.1384780
  H       -3.3736110    -0.7729470     0.3882060
  H        2.6849170    -0.9163680     0.6377720
  H        2.2401512     0.5210267     1.5312719
  H        3.5186220     0.6362700     0.3424670
  H        0.7214210     2.4415090    -0.3472440
units angstrom
no_reorient  #important for SAPT in psi4, default
symmetry c1  #important for SAPT in psi4, default
}

set PROPERTIES_ORIGIN ["COM"]
properties('MP2/aug-cc-pvtz', properties = ['dipole'])
--------------------------------------------------------------------------

    Molecular point group: c1
  Charge       = 0
  Multiplicity = 1
  Basis Set: AUG-CC-PVTZ
    Blend: AUG-CC-PVTZ
  Basis Set: (AUG-CC-PVTZ AUX)
    Blend: AUG-CC-PVTZ-JKFIT

    Orbital Energies [Eh]
    ---------------------

    Doubly Occupied:

       1A    -26.318138     2A    -20.598063     3A    -20.595665
       4A    -11.339244     5A    -11.315270     6A    -11.303604
       7A    -11.285355     8A    -11.255038     9A    -11.243881
      10A    -11.239789    11A     -1.630417    12A     -1.426446
      13A     -1.394296    14A     -1.158896    15A     -1.030505
      16A     -1.021805    17A     -0.951453    18A     -0.853676
      19A     -0.850415    20A     -0.759395    21A     -0.748145
      22A     -0.712325    23A     -0.700433    24A     -0.676757
      25A     -0.655336    26A     -0.646215    27A     -0.635880
      28A     -0.622508    29A     -0.590289    30A     -0.573627
      31A     -0.554246    32A     -0.542688    33A     -0.520632
      34A     -0.490580    35A     -0.474126    36A     -0.343335
      37A     -0.325039

  @DF-RHF Final Energy:  -518.47830447853926

   => Energetics <=

    Nuclear Repulsion Energy =            529.2162423476585218
    One-Electron Energy =               -1760.6220648695830278
    Two-Electron Energy =                 712.9275180433853620
    Total Energy =                       -518.4783044785392576
  Basis Set: (AUG-CC-PVTZ AUX)
    Blend: AUG-CC-PVTZ-RI
    Molecular point group: c1

    Geometry (in Angstrom), charge = 0, multiplicity = 1:

       Center              X                  Y                   Z               Mass
    ------------   -----------------  -----------------  -----------------  -----------------
         F            0.883915230381    -2.134874869618    -0.251203179552    18.998403162730
         O            1.650019230381     0.570340130382    -0.412024179552    15.994914619570
         O           -0.233021769619     2.484692130382    -0.122171179552    15.994914619570
         C            0.351399230381     0.168520130382    -0.162776179552    12.000000000000
         C           -0.615782769619     1.177705130382    -0.041519179552    12.000000000000
         C           -0.056795769619    -1.163364869618    -0.104785179552    12.000000000000
         C           -1.955753769619     0.849356130382     0.169152820448    12.000000000000
         C           -1.381386769619    -1.514069869618     0.117075820448    12.000000000000
         C           -2.327629769619    -0.493008869618     0.244592820448    12.000000000000
         C            2.574167230381     0.189835130382     0.628423820448    12.000000000000
         H           -2.684094769619     1.649259130382     0.261786820448     1.007825032230
         H           -1.653973769619    -2.563590869618     0.161472820448     1.007825032230
         H           -3.369869769619    -0.750797869618     0.411200820448     1.007825032230
         H            2.688658230381    -0.894218869618     0.660766820448     1.007825032230
         H            2.243892430381     0.543175830382     1.554266720448     1.007825032230
         H            3.522363230381     0.658419130382     0.365461820448     1.007825032230
         H            0.725162230381     2.463658130382    -0.324249179552     1.007825032230

  Basis Set: AUG-CC-PVTZ
    Blend: AUG-CC-PVTZ
  Basis Set: (AUG-CC-PVTZ AUX)
    Blend: AUG-CC-PVTZ-JKFIT
	 Reference Energy          =    -518.4783044785392576 [Eh]
	 Singles Energy            =      -0.0000000000000000 [Eh]
	 Same-Spin Energy          =      -0.5088683418462314 [Eh]
	 Opposite-Spin Energy      =      -1.5380260797582448 [Eh]
	 Correlation Energy        =      -2.0468944216044762 [Eh]
	 Total Energy              =    -520.5251989001437778 [Eh]

	 ================> DF-SCS-MP2 Energies <==================
	-----------------------------------------------------------
	 SCS Same-Spin Scale       =       0.3333333333333333 [-]
	 SCS Opposite-Spin Scale   =       1.2000000000000000 [-]
	 SCS Same-Spin Energy      =      -0.1696227806154105 [Eh]
	 SCS Opposite-Spin Energy  =      -1.8456312957098937 [Eh]
	 SCS Correlation Energy    =      -2.0152540763253040 [Eh]
	 SCS Total Energy          =    -520.4935585548645349 [Eh]
	-----------------------------------------------------------

  Dipole Moment: [D]
     X:     0.6587      Y:    -0.1587      Z:     1.1953     Total:     1.3740

*** Psi4 exiting successfully. Buy a developer a beer!
