                               Psi4 1.4a3.dev225

  ==> Input File <==

--------------------------------------------------------------------------
#psi4
#
memory 32 gb

molecule  {
0 1
  F        0.8801740    -2.1570240    -0.2741980
  O        1.6462780     0.5481910    -0.4350190
  O       -0.2367630     2.4625430    -0.1451660
  C        0.3476580     0.1463710    -0.1857710
  C       -0.6195240     1.1555560    -0.0645140
  C       -0.0605370    -1.1855140    -0.1277800
  C       -1.9594950     0.8272070     0.1461580
  C       -1.3851280    -1.5362190     0.0940810
  C       -2.3313710    -0.5151580     0.2215980
  C        2.4423118     0.2204352     0.4611922
  H       -2.6878360     1.6271100     0.2387920
  H       -1.6577150    -2.5857400     0.1384780
  H       -3.3736110    -0.7729470     0.3882060
  H        2.6849170    -0.9163680     0.6377720
  H        2.2243420     0.5379400     1.5755890
  H        3.5186220     0.6362700     0.3424670
  H        0.7214210     2.4415090    -0.3472440
units angstrom
no_reorient  #important for SAPT in psi4, default
symmetry c1  #important for SAPT in psi4, default
}

set PROPERTIES_ORIGIN ["COM"]
properties('MP2/aug-cc-pvtz', properties = ['dipole'])
--------------------------------------------------------------------------

    Molecular point group: c1
  Charge       = 0
  Multiplicity = 1
  Basis Set: AUG-CC-PVTZ
    Blend: AUG-CC-PVTZ
  Basis Set: (AUG-CC-PVTZ AUX)
    Blend: AUG-CC-PVTZ-JKFIT

    Orbital Energies [Eh]
    ---------------------

    Doubly Occupied:

       1A    -26.321885     2A    -20.615163     3A    -20.603543
       4A    -11.348651     5A    -11.324999     6A    -11.314467
       7A    -11.295922     8A    -11.262634     9A    -11.249735
      10A    -11.246054    11A     -1.634287    12A     -1.498621
      13A     -1.414985    14A     -1.169383    15A     -1.047899
      16A     -1.029476    17A     -0.936529    18A     -0.862908
      19A     -0.850796    20A     -0.771564    21A     -0.759006
      22A     -0.735763    23A     -0.709791    24A     -0.692611
      25A     -0.680662    26A     -0.657415    27A     -0.655671
      28A     -0.631520    29A     -0.598734    30A     -0.580573
      31A     -0.550681    32A     -0.541685    33A     -0.497416
      34A     -0.476174    35A     -0.437766    36A     -0.352982
      37A     -0.333613

  @DF-RHF Final Energy:  -518.43789302906089

   => Energetics <=

    Nuclear Repulsion Energy =            533.3418729727426353
    One-Electron Energy =               -1768.1763941326785243
    Two-Electron Energy =                 716.3966281308748876
    Total Energy =                       -518.4378930290608878
  Basis Set: (AUG-CC-PVTZ AUX)
    Blend: AUG-CC-PVTZ-RI
    Molecular point group: c1

    Geometry (in Angstrom), charge = 0, multiplicity = 1:

       Center              X                  Y                   Z               Mass
    ------------   -----------------  -----------------  -----------------  -----------------
         F            0.894850674043    -2.139451202223    -0.239332283930    18.998403162730
         O            1.660954674043     0.565763797777    -0.400153283930    15.994914619570
         O           -0.222086325957     2.480115797777    -0.110300283930    15.994914619570
         C            0.362334674043     0.163943797777    -0.150905283930    12.000000000000
         C           -0.604847325957     1.173128797777    -0.029648283930    12.000000000000
         C           -0.045860325957    -1.167941202223    -0.092914283930    12.000000000000
         C           -1.944818325957     0.844779797777     0.181023716070    12.000000000000
         C           -1.370451325957    -1.518646202223     0.128946716070    12.000000000000
         C           -2.316694325957    -0.497585202223     0.256463716070    12.000000000000
         C            2.456988474043     0.238007997777     0.496057916070    12.000000000000
         H           -2.673159325957     1.644682797777     0.273657716070     1.007825032230
         H           -1.643038325957    -2.568167202223     0.173343716070     1.007825032230
         H           -3.358934325957    -0.755374202223     0.423071716070     1.007825032230
         H            2.699593674043    -0.898795202223     0.672637716070     1.007825032230
         H            2.239018674043     0.555512797777     1.610454716070     1.007825032230
         H            3.533298674043     0.653842797777     0.377332716070     1.007825032230
         H            0.736097674043     2.459081797777    -0.312378283930     1.007825032230

  Basis Set: AUG-CC-PVTZ
    Blend: AUG-CC-PVTZ
  Basis Set: (AUG-CC-PVTZ AUX)
    Blend: AUG-CC-PVTZ-JKFIT
	 Reference Energy          =    -518.4378930290608878 [Eh]
	 Singles Energy            =      -0.0000000000000000 [Eh]
	 Same-Spin Energy          =      -0.5097573749879237 [Eh]
	 Opposite-Spin Energy      =      -1.5379678641241332 [Eh]
	 Correlation Energy        =      -2.0477252391120571 [Eh]
	 Total Energy              =    -520.4856182681729706 [Eh]

	 ================> DF-SCS-MP2 Energies <==================
	-----------------------------------------------------------
	 SCS Same-Spin Scale       =       0.3333333333333333 [-]
	 SCS Opposite-Spin Scale   =       1.2000000000000000 [-]
	 SCS Same-Spin Energy      =      -0.1699191249959746 [Eh]
	 SCS Opposite-Spin Energy  =      -1.8455614369489597 [Eh]
	 SCS Correlation Energy    =      -2.0154805619449343 [Eh]
	 SCS Total Energy          =    -520.4533735910058567 [Eh]
	-----------------------------------------------------------

  Dipole Moment: [D]
     X:    -0.3024      Y:    -0.0659      Z:     0.5943     Total:     0.6701

*** Psi4 exiting successfully. Buy a developer a beer!
