                               Psi4 1.4a3.dev225

  ==> Input File <==

--------------------------------------------------------------------------
#psi4
#
memory 32 gb

molecule  {
0 1
  F        0.8801740    -2.1570240    -0.2741980
  O        1.6462780     0.5481910    -0.4350190
  O       -0.2367630     2.4625430    -0.1451660
  C        0.3476580     0.1463710    -0.1857710
  C       -0.6195240     1.1555560    -0.0645140
  C       -0.0312597    -1.0899863    -0.1319393
  C       -1.9594950     0.8272070     0.1461580
  C       -1.3851280    -1.5362190     0.0940810
  C       -2.3313710    -0.5151580     0.2215980
  C        2.5704260     0.1676860     0.6054290
  H       -2.6878360     1.6271100     0.2387920
  H       -1.6577150    -2.5857400     0.1384780
  H       -3.3736110    -0.7729470     0.3882060
  H        2.6849170    -0.9163680     0.6377720
  H        2.2243420     0.5379400     1.5755890
  H        3.5186220     0.6362700     0.3424670
  H        0.7214210     2.4415090    -0.3472440
units angstrom
no_reorient  #important for SAPT in psi4, default
symmetry c1  #important for SAPT in psi4, default
}

set PROPERTIES_ORIGIN ["COM"]
properties('MP2/aug-cc-pvtz', properties = ['dipole'])
--------------------------------------------------------------------------

    Molecular point group: c1
  Charge       = 0
  Multiplicity = 1
  Basis Set: AUG-CC-PVTZ
    Blend: AUG-CC-PVTZ
  Basis Set: (AUG-CC-PVTZ AUX)
    Blend: AUG-CC-PVTZ-JKFIT

    Orbital Energies [Eh]
    ---------------------

    Doubly Occupied:

       1A    -26.305030     2A    -20.600691     3A    -20.599608
       4A    -11.334264     5A    -11.319967     6A    -11.298745
       7A    -11.292640     8A    -11.255464     9A    -11.249858
      10A    -11.239114    11A     -1.602868    12A     -1.430726
      13A     -1.398023    14A     -1.167552    15A     -1.046749
      16A     -1.013388    17A     -0.951119    18A     -0.861262
      19A     -0.842485    20A     -0.760609    21A     -0.737991
      22A     -0.705498    23A     -0.686132    24A     -0.669792
      25A     -0.653930    26A     -0.650794    27A     -0.629857
      28A     -0.622131    29A     -0.593146    30A     -0.574379
      31A     -0.556782    32A     -0.544267    33A     -0.517074
      34A     -0.495673    35A     -0.476248    36A     -0.360363
      37A     -0.320602

  @DF-RHF Final Energy:  -518.46493104716080

   => Energetics <=

    Nuclear Repulsion Energy =            529.8991770216083523
    One-Electron Energy =               -1761.9985758560640079
    Two-Electron Energy =                 713.6344677872949660
    Total Energy =                       -518.4649310471608032
  Basis Set: (AUG-CC-PVTZ AUX)
    Blend: AUG-CC-PVTZ-RI
    Molecular point group: c1

    Geometry (in Angstrom), charge = 0, multiplicity = 1:

       Center              X                  Y                   Z               Mass
    ------------   -----------------  -----------------  -----------------  -----------------
         F            0.881554011071    -2.143065192158    -0.251166234986    18.998403162730
         O            1.647658011071     0.562149807842    -0.411987234986    15.994914619570
         O           -0.235382988929     2.476501807842    -0.122134234986    15.994914619570
         C            0.349038011071     0.160329807842    -0.162739234986    12.000000000000
         C           -0.618143988929     1.169514807842    -0.041482234986    12.000000000000
         C           -0.029879688929    -1.076027492158    -0.108907534986    12.000000000000
         C           -1.958114988929     0.841165807842     0.169189765014    12.000000000000
         C           -1.383747988929    -1.522260192158     0.117112765014    12.000000000000
         C           -2.329990988929    -0.501199192158     0.244629765014    12.000000000000
         C            2.571806011071     0.181644807842     0.628460765014    12.000000000000
         H           -2.686455988929     1.641068807842     0.261823765014     1.007825032230
         H           -1.656334988929    -2.571781192158     0.161509765014     1.007825032230
         H           -3.372230988929    -0.758988192158     0.411237765014     1.007825032230
         H            2.686297011071    -0.902409192158     0.660803765014     1.007825032230
         H            2.225722011071     0.551898807842     1.598620765014     1.007825032230
         H            3.520002011071     0.650228807842     0.365498765014     1.007825032230
         H            0.722801011071     2.455467807842    -0.324212234986     1.007825032230

  Basis Set: AUG-CC-PVTZ
    Blend: AUG-CC-PVTZ
  Basis Set: (AUG-CC-PVTZ AUX)
    Blend: AUG-CC-PVTZ-JKFIT
	 Reference Energy          =    -518.4649310471608032 [Eh]
	 Singles Energy            =      -0.0000000000000000 [Eh]
	 Same-Spin Energy          =      -0.5084395483415316 [Eh]
	 Opposite-Spin Energy      =      -1.5391972134933924 [Eh]
	 Correlation Energy        =      -2.0476367618349238 [Eh]
	 Total Energy              =    -520.5125678089957546 [Eh]

	 ================> DF-SCS-MP2 Energies <==================
	-----------------------------------------------------------
	 SCS Same-Spin Scale       =       0.3333333333333333 [-]
	 SCS Opposite-Spin Scale   =       1.2000000000000000 [-]
	 SCS Same-Spin Energy      =      -0.1694798494471772 [Eh]
	 SCS Opposite-Spin Energy  =      -1.8470366561920708 [Eh]
	 SCS Correlation Energy    =      -2.0165165056392480 [Eh]
	 SCS Total Energy          =    -520.4814475528000912 [Eh]
	-----------------------------------------------------------

  Dipole Moment: [D]
     X:     0.5476      Y:     0.1205      Z:     1.1987     Total:     1.3234

*** Psi4 exiting successfully. Buy a developer a beer!
