                               Psi4 1.4a3.dev225

  ==> Input File <==

--------------------------------------------------------------------------
#psi4
#
memory 32 gb

molecule  {
0 1
  F        0.8801740    -2.1570240    -0.2741980
  O        1.6462780     0.5481910    -0.4350190
  O       -0.2367630     2.4625430    -0.1451660
  C        0.3476580     0.1463710    -0.1857710
  C       -0.6195240     1.1555560    -0.0645140
  C       -0.0605370    -1.1855140    -0.1277800
  C       -1.9594950     0.8272070     0.1461580
  C       -1.3851280    -1.5362190     0.0940810
  C       -2.3313710    -0.5151580     0.2215980
  C        2.5704260     0.1676860     0.6054290
  H       -2.7012521     1.6418442     0.2404983
  H       -1.6577150    -2.5857400     0.1384780
  H       -3.3736110    -0.7729470     0.3882060
  H        2.6849170    -0.9163680     0.6377720
  H        2.2243420     0.5379400     1.5755890
  H        3.5186220     0.6362700     0.3424670
  H        0.7214210     2.4415090    -0.3472440
units angstrom
no_reorient  #important for SAPT in psi4, default
symmetry c1  #important for SAPT in psi4, default
}

set PROPERTIES_ORIGIN ["COM"]
properties('MP2/aug-cc-pvtz', properties = ['dipole'])
--------------------------------------------------------------------------

    Molecular point group: c1
  Charge       = 0
  Multiplicity = 1
  Basis Set: AUG-CC-PVTZ
    Blend: AUG-CC-PVTZ
  Basis Set: (AUG-CC-PVTZ AUX)
    Blend: AUG-CC-PVTZ-JKFIT

    Orbital Energies [Eh]
    ---------------------

    Doubly Occupied:

       1A    -26.318321     2A    -20.598943     3A    -20.595712
       4A    -11.339417     5A    -11.315557     6A    -11.303871
       7A    -11.291423     8A    -11.255277     9A    -11.244062
      10A    -11.242079    11A     -1.630599    12A     -1.426716
      13A     -1.394522    14A     -1.158965    15A     -1.029788
      16A     -1.021508    17A     -0.947122    18A     -0.853554
      19A     -0.849006    20A     -0.759478    21A     -0.747538
      22A     -0.710377    23A     -0.700011    24A     -0.676872
      25A     -0.653643    26A     -0.644638    27A     -0.635285
      28A     -0.621247    29A     -0.589870    30A     -0.573131
      31A     -0.553898    32A     -0.539719    33A     -0.519384
      34A     -0.490698    35A     -0.473154    36A     -0.343531
      37A     -0.325237

  @DF-RHF Final Energy:  -518.47852846231797

   => Energetics <=

    Nuclear Repulsion Energy =            528.8895758038634085
    One-Electron Energy =               -1759.9878994799489647
    Two-Electron Energy =                 712.6197952137675884
    Total Energy =                       -518.4785284623179678
  Basis Set: (AUG-CC-PVTZ AUX)
    Blend: AUG-CC-PVTZ-RI
    Molecular point group: c1

    Geometry (in Angstrom), charge = 0, multiplicity = 1:

       Center              X                  Y                   Z               Mass
    ------------   -----------------  -----------------  -----------------  -----------------
         F            0.884122590035    -2.135099415291    -0.251529725260    18.998403162730
         O            1.650226590035     0.570115584709    -0.412350725260    15.994914619570
         O           -0.232814409965     2.484467584709    -0.122497725260    15.994914619570
         C            0.351606590035     0.168295584709    -0.163102725260    12.000000000000
         C           -0.615575409965     1.177480584709    -0.041845725260    12.000000000000
         C           -0.056588409965    -1.163589415291    -0.105111725260    12.000000000000
         C           -1.955546409965     0.849131584709     0.168826274740    12.000000000000
         C           -1.381179409965    -1.514294415291     0.116749274740    12.000000000000
         C           -2.327422409965    -0.493233415291     0.244266274740    12.000000000000
         C            2.574374590035     0.189610584709     0.628097274740    12.000000000000
         H           -2.697303509965     1.663768784709     0.263166574740     1.007825032230
         H           -1.653766409965    -2.563815415291     0.161146274740     1.007825032230
         H           -3.369662409965    -0.751022415291     0.410874274740     1.007825032230
         H            2.688865590035    -0.894443415291     0.660440274740     1.007825032230
         H            2.228290590035     0.559864584709     1.598257274740     1.007825032230
         H            3.522570590035     0.658194584709     0.365135274740     1.007825032230
         H            0.725369590035     2.463433584709    -0.324575725260     1.007825032230

  Basis Set: AUG-CC-PVTZ
    Blend: AUG-CC-PVTZ
  Basis Set: (AUG-CC-PVTZ AUX)
    Blend: AUG-CC-PVTZ-JKFIT
	 Reference Energy          =    -518.4785284623179678 [Eh]
	 Singles Energy            =      -0.0000000000000000 [Eh]
	 Same-Spin Energy          =      -0.5089453687824504 [Eh]
	 Opposite-Spin Energy      =      -1.5384816574796689 [Eh]
	 Correlation Energy        =      -2.0474270262621195 [Eh]
	 Total Energy              =    -520.5259554885800526 [Eh]

	 ================> DF-SCS-MP2 Energies <==================
	-----------------------------------------------------------
	 SCS Same-Spin Scale       =       0.3333333333333333 [-]
	 SCS Opposite-Spin Scale   =       1.2000000000000000 [-]
	 SCS Same-Spin Energy      =      -0.1696484562608168 [Eh]
	 SCS Opposite-Spin Energy  =      -1.8461779889756027 [Eh]
	 SCS Correlation Energy    =      -2.0158264452364194 [Eh]
	 SCS Total Energy          =    -520.4943549075543388 [Eh]
	-----------------------------------------------------------

  Dipole Moment: [D]
     X:     0.6503      Y:    -0.1677      Z:     1.1690     Total:     1.3482

*** Psi4 exiting successfully. Buy a developer a beer!
