                               Psi4 1.4a3.dev225

  ==> Input File <==

--------------------------------------------------------------------------
#psi4
#
memory 32 gb

molecule  {
0 1
  F        0.8801740    -2.1570240    -0.2741980
  O        1.6462780     0.5481910    -0.4350190
  O       -0.2367630     2.4625430    -0.1451660
  C        0.3476580     0.1463710    -0.1857710
  C       -0.6195240     1.1555560    -0.0645140
  C       -0.0605370    -1.1855140    -0.1277800
  C       -1.9594950     0.8272070     0.1461580
  C       -1.3851280    -1.5362190     0.0940810
  C       -2.3313710    -0.5151580     0.2215980
  C        2.5704260     0.1676860     0.6054290
  H       -2.6878360     1.6271100     0.2387920
  H       -1.6577150    -2.5857400     0.1384780
  H       -3.3736110    -0.7729470     0.3882060
  H        2.6849170    -0.9163680     0.6377720
  H        2.2243420     0.5379400     1.5755890
  H        3.5186220     0.6362700     0.3424670
  H        0.7018560     2.4419385    -0.3431178
units angstrom
no_reorient  #important for SAPT in psi4, default
symmetry c1  #important for SAPT in psi4, default
}

set PROPERTIES_ORIGIN ["COM"]
properties('MP2/aug-cc-pvtz', properties = ['dipole'])
--------------------------------------------------------------------------

    Molecular point group: c1
  Charge       = 0
  Multiplicity = 1
  Basis Set: AUG-CC-PVTZ
    Blend: AUG-CC-PVTZ
  Basis Set: (AUG-CC-PVTZ AUX)
    Blend: AUG-CC-PVTZ-JKFIT

    Orbital Energies [Eh]
    ---------------------

    Doubly Occupied:

       1A    -26.318339     2A    -20.598577     3A    -20.594579
       4A    -11.339450     5A    -11.315619     6A    -11.303950
       7A    -11.291213     8A    -11.255236     9A    -11.244141
      10A    -11.240059    11A     -1.630610    12A     -1.428682
      13A     -1.396822    14A     -1.159336    15A     -1.030165
      16A     -1.022534    17A     -0.947039    18A     -0.854637
      19A     -0.850151    20A     -0.762208    21A     -0.747645
      22A     -0.711298    23A     -0.700253    24A     -0.678045
      25A     -0.653663    26A     -0.646511    27A     -0.635496
      28A     -0.621583    29A     -0.590724    30A     -0.574853
      31A     -0.553855    32A     -0.541288    33A     -0.519920
      34A     -0.490852    35A     -0.473037    36A     -0.343554
      37A     -0.325476

  @DF-RHF Final Energy:  -518.48015221986475

   => Energetics <=

    Nuclear Repulsion Energy =            529.0977255710140525
    One-Electron Energy =               -1760.3729482980706962
    Two-Electron Energy =                 712.7950705071918946
    Total Energy =                       -518.4801522198647490
  Basis Set: (AUG-CC-PVTZ AUX)
    Blend: AUG-CC-PVTZ-RI
    Molecular point group: c1

    Geometry (in Angstrom), charge = 0, multiplicity = 1:

       Center              X                  Y                   Z               Mass
    ------------   -----------------  -----------------  -----------------  -----------------
         F            0.884166217775    -2.134997920434    -0.251546894960    18.998403162730
         O            1.650270217775     0.570217079566    -0.412367894960    15.994914619570
         O           -0.232770782225     2.484569079566    -0.122514894960    15.994914619570
         C            0.351650217775     0.168397079566    -0.163119894960    12.000000000000
         C           -0.615531782225     1.177582079566    -0.041862894960    12.000000000000
         C           -0.056544782225    -1.163487920434    -0.105128894960    12.000000000000
         C           -1.955502782225     0.849233079566     0.168809105040    12.000000000000
         C           -1.381135782225    -1.514192920434     0.116732105040    12.000000000000
         C           -2.327378782225    -0.493131920434     0.244249105040    12.000000000000
         C            2.574418217775     0.189712079566     0.628080105040    12.000000000000
         H           -2.683843782225     1.649136079566     0.261443105040     1.007825032230
         H           -1.653722782225    -2.563713920434     0.161129105040     1.007825032230
         H           -3.369618782225    -0.750920920434     0.410857105040     1.007825032230
         H            2.688909217775    -0.894341920434     0.660423105040     1.007825032230
         H            2.228334217775     0.559966079566     1.598240105040     1.007825032230
         H            3.522614217775     0.658296079566     0.365118105040     1.007825032230
         H            0.705848217775     2.463964579566    -0.320466694960     1.007825032230

  Basis Set: AUG-CC-PVTZ
    Blend: AUG-CC-PVTZ
  Basis Set: (AUG-CC-PVTZ AUX)
    Blend: AUG-CC-PVTZ-JKFIT
	 Reference Energy          =    -518.4801522198647490 [Eh]
	 Singles Energy            =      -0.0000000000000000 [Eh]
	 Same-Spin Energy          =      -0.5086039345859250 [Eh]
	 Opposite-Spin Energy      =      -1.5376961214039881 [Eh]
	 Correlation Energy        =      -2.0463000559899132 [Eh]
	 Total Energy              =    -520.5264522758546946 [Eh]

	 ================> DF-SCS-MP2 Energies <==================
	-----------------------------------------------------------
	 SCS Same-Spin Scale       =       0.3333333333333333 [-]
	 SCS Opposite-Spin Scale   =       1.2000000000000000 [-]
	 SCS Same-Spin Energy      =      -0.1695346448619750 [Eh]
	 SCS Opposite-Spin Energy  =      -1.8452353456847856 [Eh]
	 SCS Correlation Energy    =      -2.0147699905467604 [Eh]
	 SCS Total Energy          =    -520.4949222104114597 [Eh]
	-----------------------------------------------------------

  Dipole Moment: [D]
     X:     0.6198      Y:    -0.1709      Z:     1.1734     Total:     1.3380

*** Psi4 exiting successfully. Buy a developer a beer!
