                               Psi4 1.4a3.dev225

  ==> Input File <==

--------------------------------------------------------------------------
#psi4
#
memory 32 gb

molecule  {
0 1
  F        0.8801740    -2.1570240    -0.2741980
  O        1.6462780     0.5481910    -0.4350190
  O       -0.2367630     2.4625430    -0.1451660
  C        0.3476580     0.1463710    -0.1857710
  C       -0.6195240     1.1555560    -0.0645140
  C       -0.0605370    -1.1855140    -0.1277800
  C       -1.9594950     0.8272070     0.1461580
  C       -1.3851280    -1.5362190     0.0940810
  C       -2.3313710    -0.5151580     0.2215980
  C        2.5704260     0.1676860     0.6054290
  H       -2.6542958     1.5902744     0.2345262
  H       -1.6577150    -2.5857400     0.1384780
  H       -3.3736110    -0.7729470     0.3882060
  H        2.6849170    -0.9163680     0.6377720
  H        2.2243420     0.5379400     1.5755890
  H        3.5186220     0.6362700     0.3424670
  H        0.7214210     2.4415090    -0.3472440
units angstrom
no_reorient  #important for SAPT in psi4, default
symmetry c1  #important for SAPT in psi4, default
}

set PROPERTIES_ORIGIN ["COM"]
properties('MP2/aug-cc-pvtz', properties = ['dipole'])
--------------------------------------------------------------------------

    Molecular point group: c1
  Charge       = 0
  Multiplicity = 1
  Basis Set: AUG-CC-PVTZ
    Blend: AUG-CC-PVTZ
  Basis Set: (AUG-CC-PVTZ AUX)
    Blend: AUG-CC-PVTZ-JKFIT

    Orbital Energies [Eh]
    ---------------------

    Doubly Occupied:

       1A    -26.318197     2A    -20.598731     3A    -20.595753
       4A    -11.339280     5A    -11.315024     6A    -11.303462
       7A    -11.291301     8A    -11.254810     9A    -11.243682
      10A    -11.234144    11A     -1.630474    12A     -1.426620
      13A     -1.394476    14A     -1.159028    15A     -1.031137
      16A     -1.022354    17A     -0.946939    18A     -0.855059
      19A     -0.850868    20A     -0.759568    21A     -0.747400
      22A     -0.714331    23A     -0.700660    24A     -0.676872
      25A     -0.654547    26A     -0.650264    27A     -0.635017
      28A     -0.621122    29A     -0.589841    30A     -0.575186
      31A     -0.553580    32A     -0.543497    33A     -0.520279
      34A     -0.490515    35A     -0.473194    36A     -0.343340
      37A     -0.324962

  @DF-RHF Final Energy:  -518.47836966980378

   => Energetics <=

    Nuclear Repulsion Energy =            529.2714733584417672
    One-Electron Energy =               -1760.7286534977540668
    Two-Electron Energy =                 712.9788104695084030
    Total Energy =                       -518.4783696698037829
  Basis Set: (AUG-CC-PVTZ AUX)
    Blend: AUG-CC-PVTZ-RI
    Molecular point group: c1

    Geometry (in Angstrom), charge = 0, multiplicity = 1:

       Center              X                  Y                   Z               Mass
    ------------   -----------------  -----------------  -----------------  -----------------
         F            0.883789425205    -2.134733516707    -0.251487351954    18.998403162730
         O            1.649893425205     0.570481483293    -0.412308351954    15.994914619570
         O           -0.233147574795     2.484833483293    -0.122455351954    15.994914619570
         C            0.351273425205     0.168661483293    -0.163060351954    12.000000000000
         C           -0.615908574795     1.177846483293    -0.041803351954    12.000000000000
         C           -0.056921574795    -1.163223516707    -0.105069351954    12.000000000000
         C           -1.955879574795     0.849497483293     0.168868648046    12.000000000000
         C           -1.381512574795    -1.513928516707     0.116791648046    12.000000000000
         C           -2.327755574795    -0.492867516707     0.244308648046    12.000000000000
         C            2.574041425205     0.189976483293     0.628139648046    12.000000000000
         H           -2.650680374795     1.612564883293     0.257236848046     1.007825032230
         H           -1.654099574795    -2.563449516707     0.161188648046     1.007825032230
         H           -3.369995574795    -0.750656516707     0.410916648046     1.007825032230
         H            2.688532425205    -0.894077516707     0.660482648046     1.007825032230
         H            2.227957425205     0.560230483293     1.598299648046     1.007825032230
         H            3.522237425205     0.658560483293     0.365177648046     1.007825032230
         H            0.725036425205     2.463799483293    -0.324533351954     1.007825032230

  Basis Set: AUG-CC-PVTZ
    Blend: AUG-CC-PVTZ
  Basis Set: (AUG-CC-PVTZ AUX)
    Blend: AUG-CC-PVTZ-JKFIT
	 Reference Energy          =    -518.4783696698037829 [Eh]
	 Singles Energy            =      -0.0000000000000000 [Eh]
	 Same-Spin Energy          =      -0.5088094360238399 [Eh]
	 Opposite-Spin Energy      =      -1.5380738160302458 [Eh]
	 Correlation Energy        =      -2.0468832520540858 [Eh]
	 Total Energy              =    -520.5252529218578275 [Eh]

	 ================> DF-SCS-MP2 Energies <==================
	-----------------------------------------------------------
	 SCS Same-Spin Scale       =       0.3333333333333333 [-]
	 SCS Opposite-Spin Scale   =       1.2000000000000000 [-]
	 SCS Same-Spin Energy      =      -0.1696031453412800 [Eh]
	 SCS Opposite-Spin Energy  =      -1.8456885792362949 [Eh]
	 SCS Correlation Energy    =      -2.0152917245775748 [Eh]
	 SCS Total Energy          =    -520.4936613943813200 [Eh]
	-----------------------------------------------------------

  Dipole Moment: [D]
     X:     0.6454      Y:    -0.1633      Z:     1.1690     Total:     1.3452

*** Psi4 exiting successfully. Buy a developer a beer!
