                               Psi4 1.4a3.dev225

  ==> Input File <==

--------------------------------------------------------------------------
#psi4
#
memory 32 gb

molecule  {
0 1
  F        0.8801740    -2.1570240    -0.2741980
  O        1.6462780     0.5481910    -0.4350190
  O       -0.2367630     2.4625430    -0.1451660
  C        0.3476580     0.1463710    -0.1857710
  C       -0.6195240     1.1555560    -0.0645140
  C       -0.0605370    -1.1855140    -0.1277800
  C       -1.9594950     0.8272070     0.1461580
  C       -1.3851280    -1.5362190     0.0940810
  C       -2.3313710    -0.5151580     0.2215980
  C        2.5704260     0.1676860     0.6054290
  H       -2.6878360     1.6271100     0.2387920
  H       -1.6577150    -2.5857400     0.1384780
  H       -3.3736110    -0.7729470     0.3882060
  H        2.6870167    -0.9362486     0.6383651
  H        2.2243420     0.5379400     1.5755890
  H        3.5186220     0.6362700     0.3424670
  H        0.7214210     2.4415090    -0.3472440
units angstrom
no_reorient  #important for SAPT in psi4, default
symmetry c1  #important for SAPT in psi4, default
}

set PROPERTIES_ORIGIN ["COM"]
properties('MP2/aug-cc-pvtz', properties = ['dipole'])
--------------------------------------------------------------------------

    Molecular point group: c1
  Charge       = 0
  Multiplicity = 1
  Basis Set: AUG-CC-PVTZ
    Blend: AUG-CC-PVTZ
  Basis Set: (AUG-CC-PVTZ AUX)
    Blend: AUG-CC-PVTZ-JKFIT

    Orbital Energies [Eh]
    ---------------------

    Doubly Occupied:

       1A    -26.318249     2A    -20.599186     3A    -20.595787
       4A    -11.339416     5A    -11.315451     6A    -11.303816
       7A    -11.293580     8A    -11.255169     9A    -11.243974
      10A    -11.239889    11A     -1.630553    12A     -1.426802
      13A     -1.394608    14A     -1.158997    15A     -1.029949
      16A     -1.021744    17A     -0.945432    18A     -0.853801
      19A     -0.849422    20A     -0.759479    21A     -0.747518
      22A     -0.711092    23A     -0.700110    24A     -0.676867
      25A     -0.653231    26A     -0.645676    27A     -0.635237
      28A     -0.620131    29A     -0.589912    30A     -0.573754
      31A     -0.553367    32A     -0.540794    33A     -0.519651
      34A     -0.490341    35A     -0.472380    36A     -0.343505
      37A     -0.325205

  @DF-RHF Final Energy:  -518.47858407946751

   => Energetics <=

    Nuclear Repulsion Energy =            528.9179153052122047
    One-Electron Energy =               -1760.0448526768957436
    Two-Electron Energy =                 712.6483532922161430
    Total Energy =                       -518.4785840794675096
  Basis Set: (AUG-CC-PVTZ AUX)
    Blend: AUG-CC-PVTZ-RI
    Molecular point group: c1

    Geometry (in Angstrom), charge = 0, multiplicity = 1:

       Center              X                  Y                   Z               Mass
    ------------   -----------------  -----------------  -----------------  -----------------
         F            0.884012502169    -2.134853816000    -0.251521826872    18.998403162730
         O            1.650116502169     0.570361184000    -0.412342826872    15.994914619570
         O           -0.232924497831     2.484713184000    -0.122489826872    15.994914619570
         C            0.351496502169     0.168541184000    -0.163094826872    12.000000000000
         C           -0.615685497831     1.177726184000    -0.041837826872    12.000000000000
         C           -0.056698497831    -1.163343816000    -0.105103826872    12.000000000000
         C           -1.955656497831     0.849377184000     0.168834173128    12.000000000000
         C           -1.381289497831    -1.514048816000     0.116757173128    12.000000000000
         C           -2.327532497831    -0.492987816000     0.244274173128    12.000000000000
         C            2.574264502169     0.189856184000     0.628105173128    12.000000000000
         H           -2.683997497831     1.649280184000     0.261468173128     1.007825032230
         H           -1.653876497831    -2.563569816000     0.161154173128     1.007825032230
         H           -3.369772497831    -0.750776816000     0.410882173128     1.007825032230
         H            2.690855202169    -0.914078416000     0.661041273128     1.007825032230
         H            2.228180502169     0.560110184000     1.598265173128     1.007825032230
         H            3.522460502169     0.658440184000     0.365143173128     1.007825032230
         H            0.725259502169     2.463679184000    -0.324567826872     1.007825032230

  Basis Set: AUG-CC-PVTZ
    Blend: AUG-CC-PVTZ
  Basis Set: (AUG-CC-PVTZ AUX)
    Blend: AUG-CC-PVTZ-JKFIT
	 Reference Energy          =    -518.4785840794675096 [Eh]
	 Singles Energy            =      -0.0000000000000000 [Eh]
	 Same-Spin Energy          =      -0.5089425379628381 [Eh]
	 Opposite-Spin Energy      =      -1.5385134404110401 [Eh]
	 Correlation Energy        =      -2.0474559783738782 [Eh]
	 Total Energy              =    -520.5260400578414419 [Eh]

	 ================> DF-SCS-MP2 Energies <==================
	-----------------------------------------------------------
	 SCS Same-Spin Scale       =       0.3333333333333333 [-]
	 SCS Opposite-Spin Scale   =       1.2000000000000000 [-]
	 SCS Same-Spin Energy      =      -0.1696475126542794 [Eh]
	 SCS Opposite-Spin Energy  =      -1.8462161284932481 [Eh]
	 SCS Correlation Energy    =      -2.0158636411475275 [Eh]
	 SCS Total Energy          =    -520.4944477206150850 [Eh]
	-----------------------------------------------------------

  Dipole Moment: [D]
     X:     0.6401      Y:    -0.1608      Z:     1.1651     Total:     1.3390

*** Psi4 exiting successfully. Buy a developer a beer!
