                               Psi4 1.4a3.dev225

  ==> Input File <==

--------------------------------------------------------------------------
#psi4
#
memory 32 gb

molecule  {
0 1
  F        0.8801740    -2.1570240    -0.2741980
  O        1.6462780     0.5481910    -0.4350190
  O       -0.2367630     2.4625430    -0.1451660
  C        0.3476580     0.1463710    -0.1857710
  C       -0.6195240     1.1555560    -0.0645140
  C       -0.0605370    -1.1855140    -0.1277800
  C       -1.9594950     0.8272070     0.1461580
  C       -1.3851280    -1.5362190     0.0940810
  C       -2.3313710    -0.5151580     0.2215980
  C        2.5832374     0.1624111     0.6198527
  H       -2.6878360     1.6271100     0.2387920
  H       -1.6577150    -2.5857400     0.1384780
  H       -3.3736110    -0.7729470     0.3882060
  H        2.6849170    -0.9163680     0.6377720
  H        2.2243420     0.5379400     1.5755890
  H        3.5186220     0.6362700     0.3424670
  H        0.7214210     2.4415090    -0.3472440
units angstrom
no_reorient  #important for SAPT in psi4, default
symmetry c1  #important for SAPT in psi4, default
}

set PROPERTIES_ORIGIN ["COM"]
properties('MP2/aug-cc-pvtz', properties = ['dipole'])
--------------------------------------------------------------------------

    Molecular point group: c1
  Charge       = 0
  Multiplicity = 1
  Basis Set: AUG-CC-PVTZ
    Blend: AUG-CC-PVTZ
  Basis Set: (AUG-CC-PVTZ AUX)
    Blend: AUG-CC-PVTZ-JKFIT

    Orbital Energies [Eh]
    ---------------------

    Doubly Occupied:

       1A    -26.317953     2A    -20.597282     3A    -20.595049
       4A    -11.338564     5A    -11.314561     6A    -11.302858
       7A    -11.291861     8A    -11.254467     9A    -11.243446
      10A    -11.239312    11A     -1.630222    12A     -1.423461
      13A     -1.390945    14A     -1.158092    15A     -1.028865
      16A     -1.021034    17A     -0.948865    18A     -0.853044
      19A     -0.849168    20A     -0.758635    21A     -0.746692
      22A     -0.709457    23A     -0.699429    24A     -0.676295
      25A     -0.652124    26A     -0.645371    27A     -0.633712
      28A     -0.620548    29A     -0.589319    30A     -0.573111
      31A     -0.554821    32A     -0.541374    33A     -0.521149
      34A     -0.490230    35A     -0.474218    36A     -0.342602
      37A     -0.324320

  @DF-RHF Final Energy:  -518.47854124561945

   => Energetics <=

    Nuclear Repulsion Energy =            528.5996230064876045
    One-Electron Energy =               -1759.4514130495313111
    Two-Electron Energy =                 712.3732487974243668
    Total Energy =                       -518.4785412456194535
  Basis Set: (AUG-CC-PVTZ AUX)
    Blend: AUG-CC-PVTZ-RI
    Molecular point group: c1

    Geometry (in Angstrom), charge = 0, multiplicity = 1:

       Center              X                  Y                   Z               Mass
    ------------   -----------------  -----------------  -----------------  -----------------
         F            0.882945074266    -2.134549241812    -0.252736153869    18.998403162730
         O            1.649049074266     0.570665758188    -0.413557153869    15.994914619570
         O           -0.233991925734     2.485017758188    -0.123704153869    15.994914619570
         C            0.350429074266     0.168845758188    -0.164309153869    12.000000000000
         C           -0.616752925734     1.178030758188    -0.043052153869    12.000000000000
         C           -0.057765925734    -1.163039241812    -0.106318153869    12.000000000000
         C           -1.956723925734     0.849681758188     0.167619846131    12.000000000000
         C           -1.382356925734    -1.513744241812     0.115542846131    12.000000000000
         C           -2.328599925734    -0.492683241812     0.243059846131    12.000000000000
         C            2.586008474266     0.184885858188     0.641314546131    12.000000000000
         H           -2.685064925734     1.649584758188     0.260253846131     1.007825032230
         H           -1.654943925734    -2.563265241812     0.159939846131     1.007825032230
         H           -3.370839925734    -0.750472241812     0.409667846131     1.007825032230
         H            2.687688074266    -0.893893241812     0.659233846131     1.007825032230
         H            2.227113074266     0.560414758188     1.597050846131     1.007825032230
         H            3.521393074266     0.658744758188     0.363928846131     1.007825032230
         H            0.724192074266     2.463983758188    -0.325782153869     1.007825032230

  Basis Set: AUG-CC-PVTZ
    Blend: AUG-CC-PVTZ
  Basis Set: (AUG-CC-PVTZ AUX)
    Blend: AUG-CC-PVTZ-JKFIT
	 Reference Energy          =    -518.4785412456194535 [Eh]
	 Singles Energy            =      -0.0000000000000000 [Eh]
	 Same-Spin Energy          =      -0.5089361355326329 [Eh]
	 Opposite-Spin Energy      =      -1.5385937937838507 [Eh]
	 Correlation Energy        =      -2.0475299293164837 [Eh]
	 Total Energy              =    -520.5260711749359643 [Eh]

	 ================> DF-SCS-MP2 Energies <==================
	-----------------------------------------------------------
	 SCS Same-Spin Scale       =       0.3333333333333333 [-]
	 SCS Opposite-Spin Scale   =       1.2000000000000000 [-]
	 SCS Same-Spin Energy      =      -0.1696453785108776 [Eh]
	 SCS Opposite-Spin Energy  =      -1.8463125525406208 [Eh]
	 SCS Correlation Energy    =      -2.0159579310514983 [Eh]
	 SCS Total Energy          =    -520.4944991766709563 [Eh]
	-----------------------------------------------------------

  Dipole Moment: [D]
     X:     0.7251      Y:    -0.1742      Z:     1.2148     Total:     1.4254

*** Psi4 exiting successfully. Buy a developer a beer!
