                               Psi4 1.4a3.dev225

  ==> Input File <==

--------------------------------------------------------------------------
#psi4
#
memory 32 gb

molecule  {
0 1
  F        0.8801740    -2.1570240    -0.2741980
  O        1.6462780     0.5481910    -0.4350190
  O       -0.2367630     2.4625430    -0.1451660
  C        0.3476580     0.1463710    -0.1857710
  C       -0.6195240     1.1555560    -0.0645140
  C       -0.0605370    -1.1855140    -0.1277800
  C       -1.9594950     0.8272070     0.1461580
  C       -1.3851280    -1.5362190     0.0940810
  C       -2.3047125    -0.4189287     0.2161900
  C        2.5704260     0.1676860     0.6054290
  H       -2.6878360     1.6271100     0.2387920
  H       -1.6577150    -2.5857400     0.1384780
  H       -3.3736110    -0.7729470     0.3882060
  H        2.6849170    -0.9163680     0.6377720
  H        2.2243420     0.5379400     1.5755890
  H        3.5186220     0.6362700     0.3424670
  H        0.7214210     2.4415090    -0.3472440
units angstrom
no_reorient  #important for SAPT in psi4, default
symmetry c1  #important for SAPT in psi4, default
}

set PROPERTIES_ORIGIN ["COM"]
properties('MP2/aug-cc-pvtz', properties = ['dipole'])
--------------------------------------------------------------------------

    Molecular point group: c1
  Charge       = 0
  Multiplicity = 1
  Basis Set: AUG-CC-PVTZ
    Blend: AUG-CC-PVTZ
  Basis Set: (AUG-CC-PVTZ AUX)
    Blend: AUG-CC-PVTZ-JKFIT

    Orbital Energies [Eh]
    ---------------------

    Doubly Occupied:

       1A    -26.317028     2A    -20.597727     3A    -20.597348
       4A    -11.338986     5A    -11.317140     6A    -11.300676
       7A    -11.290522     8A    -11.253154     9A    -11.245921
      10A    -11.231052    11A     -1.629583    12A     -1.426624
      13A     -1.394685    14A     -1.165539    15A     -1.042712
      16A     -1.015526    17A     -0.944725    18A     -0.860115
      19A     -0.844566    20A     -0.759108    21A     -0.744588
      22A     -0.710467    23A     -0.699278    24A     -0.675742
      25A     -0.653283    26A     -0.648835    27A     -0.632678
      28A     -0.622273    29A     -0.591930    30A     -0.580900
      31A     -0.555505    32A     -0.534804    33A     -0.506170
      34A     -0.493345    35A     -0.473877    36A     -0.357659
      37A     -0.317418

  @DF-RHF Final Energy:  -518.46576255040031

   => Energetics <=

    Nuclear Repulsion Energy =            530.0865455462903810
    One-Electron Energy =               -1762.3616423588848647
    Two-Electron Energy =                 713.8093342621941702
    Total Energy =                       -518.4657625504003136
  Basis Set: (AUG-CC-PVTZ AUX)
    Blend: AUG-CC-PVTZ-RI
    Molecular point group: c1

    Geometry (in Angstrom), charge = 0, multiplicity = 1:

       Center              X                  Y                   Z               Mass
    ------------   -----------------  -----------------  -----------------  -----------------
         F            0.881775251106    -2.143124464347    -0.251060742992    18.998403162730
         O            1.647879251106     0.562090535653    -0.411881742992    15.994914619570
         O           -0.235161748894     2.476442535653    -0.122028742992    15.994914619570
         C            0.349259251106     0.160270535653    -0.162633742992    12.000000000000
         C           -0.617922748894     1.169455535653    -0.041376742992    12.000000000000
         C           -0.058935748894    -1.171614464347    -0.104642742992    12.000000000000
         C           -1.957893748894     0.841106535653     0.169295257008    12.000000000000
         C           -1.383526748894    -1.522319464347     0.117218257008    12.000000000000
         C           -2.303111248894    -0.405029164347     0.239327257008    12.000000000000
         C            2.572027251106     0.181585535653     0.628566257008    12.000000000000
         H           -2.686234748894     1.641009535653     0.261929257008     1.007825032230
         H           -1.656113748894    -2.571840464347     0.161615257008     1.007825032230
         H           -3.372009748894    -0.759047464347     0.411343257008     1.007825032230
         H            2.686518251106    -0.902468464347     0.660909257008     1.007825032230
         H            2.225943251106     0.551839535653     1.598726257008     1.007825032230
         H            3.520223251106     0.650169535653     0.365604257008     1.007825032230
         H            0.723022251106     2.455408535653    -0.324106742992     1.007825032230

  Basis Set: AUG-CC-PVTZ
    Blend: AUG-CC-PVTZ
  Basis Set: (AUG-CC-PVTZ AUX)
    Blend: AUG-CC-PVTZ-JKFIT
	 Reference Energy          =    -518.4657625504003136 [Eh]
	 Singles Energy            =      -0.0000000000000000 [Eh]
	 Same-Spin Energy          =      -0.5087592024002213 [Eh]
	 Opposite-Spin Energy      =      -1.5386232505584283 [Eh]
	 Correlation Energy        =      -2.0473824529586495 [Eh]
	 Total Energy              =    -520.5131450033589999 [Eh]

	 ================> DF-SCS-MP2 Energies <==================
	-----------------------------------------------------------
	 SCS Same-Spin Scale       =       0.3333333333333333 [-]
	 SCS Opposite-Spin Scale   =       1.2000000000000000 [-]
	 SCS Same-Spin Energy      =      -0.1695864008000738 [Eh]
	 SCS Opposite-Spin Energy  =      -1.8463479006701138 [Eh]
	 SCS Correlation Energy    =      -2.0159343014701876 [Eh]
	 SCS Total Energy          =    -520.4816968518705380 [Eh]
	-----------------------------------------------------------

  Dipole Moment: [D]
     X:     0.6233      Y:    -0.0916      Z:     1.1668     Total:     1.3260

*** Psi4 exiting successfully. Buy a developer a beer!
