                               Psi4 1.4a3.dev225

  ==> Input File <==

--------------------------------------------------------------------------
#psi4
#
memory 32 gb

molecule  {
0 1
  F        0.8801740    -2.1570240    -0.2741980
  O        1.6646478     0.5612372    -0.4462596
  O       -0.2367630     2.4625430    -0.1451660
  C        0.3476580     0.1463710    -0.1857710
  C       -0.6195240     1.1555560    -0.0645140
  C       -0.0605370    -1.1855140    -0.1277800
  C       -1.9594950     0.8272070     0.1461580
  C       -1.3851280    -1.5362190     0.0940810
  C       -2.3313710    -0.5151580     0.2215980
  C        2.5704260     0.1676860     0.6054290
  H       -2.6878360     1.6271100     0.2387920
  H       -1.6577150    -2.5857400     0.1384780
  H       -3.3736110    -0.7729470     0.3882060
  H        2.6849170    -0.9163680     0.6377720
  H        2.2243420     0.5379400     1.5755890
  H        3.5186220     0.6362700     0.3424670
  H        0.7214210     2.4415090    -0.3472440
units angstrom
no_reorient  #important for SAPT in psi4, default
symmetry c1  #important for SAPT in psi4, default
}

set PROPERTIES_ORIGIN ["COM"]
properties('MP2/aug-cc-pvtz', properties = ['dipole'])
--------------------------------------------------------------------------

    Molecular point group: c1
  Charge       = 0
  Multiplicity = 1
  Basis Set: AUG-CC-PVTZ
    Blend: AUG-CC-PVTZ
  Basis Set: (AUG-CC-PVTZ AUX)
    Blend: AUG-CC-PVTZ-JKFIT

    Orbital Energies [Eh]
    ---------------------

    Doubly Occupied:

       1A    -26.318903     2A    -20.599758     3A    -20.596014
       4A    -11.341290     5A    -11.316920     6A    -11.305057
       7A    -11.289852     8A    -11.256422     9A    -11.244805
      10A    -11.240615    11A     -1.631146    12A     -1.423000
      13A     -1.391102    14A     -1.160113    15A     -1.030123
      16A     -1.022312    17A     -0.944721    18A     -0.853915
      19A     -0.850606    20A     -0.759265    21A     -0.747358
      22A     -0.709221    23A     -0.699886    24A     -0.677498
      25A     -0.651258    26A     -0.645894    27A     -0.635169
      28A     -0.619873    29A     -0.589608    30A     -0.574246
      31A     -0.554344    32A     -0.540916    33A     -0.517508
      34A     -0.491813    35A     -0.473627    36A     -0.345216
      37A     -0.326511

  @DF-RHF Final Energy:  -518.47745999989206

   => Energetics <=

    Nuclear Repulsion Energy =            528.2951966144191829
    One-Electron Energy =               -1758.7935469807691788
    Two-Electron Energy =                 712.0208903664579339
    Total Energy =                       -518.4774599998920621
  Basis Set: (AUG-CC-PVTZ AUX)
    Blend: AUG-CC-PVTZ-RI
    Molecular point group: c1

    Geometry (in Angstrom), charge = 0, multiplicity = 1:

       Center              X                  Y                   Z               Mass
    ------------   -----------------  -----------------  -----------------  -----------------
         F            0.881958847735    -2.136463955248    -0.250251858140    18.998403162730
         O            1.666432647735     0.581797244752    -0.422313458140    15.994914619570
         O           -0.234978152265     2.483103044752    -0.121219858140    15.994914619570
         C            0.349442847735     0.166931044752    -0.161824858140    12.000000000000
         C           -0.617739152265     1.176116044752    -0.040567858140    12.000000000000
         C           -0.058752152265    -1.164953955248    -0.103833858140    12.000000000000
         C           -1.957710152265     0.847767044752     0.170104141860    12.000000000000
         C           -1.383343152265    -1.515658955248     0.118027141860    12.000000000000
         C           -2.329586152265    -0.494597955248     0.245544141860    12.000000000000
         C            2.572210847735     0.188246044752     0.629375141860    12.000000000000
         H           -2.686051152265     1.647670044752     0.262738141860     1.007825032230
         H           -1.655930152265    -2.565179955248     0.162424141860     1.007825032230
         H           -3.371826152265    -0.752386955248     0.412152141860     1.007825032230
         H            2.686701847735    -0.895807955248     0.661718141860     1.007825032230
         H            2.226126847735     0.558500044752     1.599535141860     1.007825032230
         H            3.520406847735     0.656830044752     0.366413141860     1.007825032230
         H            0.723205847735     2.462069044752    -0.323297858140     1.007825032230

  Basis Set: AUG-CC-PVTZ
    Blend: AUG-CC-PVTZ
  Basis Set: (AUG-CC-PVTZ AUX)
    Blend: AUG-CC-PVTZ-JKFIT
	 Reference Energy          =    -518.4774599998920621 [Eh]
	 Singles Energy            =      -0.0000000000000000 [Eh]
	 Same-Spin Energy          =      -0.5089932319607617 [Eh]
	 Opposite-Spin Energy      =      -1.5390031315236994 [Eh]
	 Correlation Energy        =      -2.0479963634844611 [Eh]
	 Total Energy              =    -520.5254563633765201 [Eh]

	 ================> DF-SCS-MP2 Energies <==================
	-----------------------------------------------------------
	 SCS Same-Spin Scale       =       0.3333333333333333 [-]
	 SCS Opposite-Spin Scale   =       1.2000000000000000 [-]
	 SCS Same-Spin Energy      =      -0.1696644106535872 [Eh]
	 SCS Opposite-Spin Energy  =      -1.8468037578284391 [Eh]
	 SCS Correlation Energy    =      -2.0164681684820263 [Eh]
	 SCS Total Energy          =    -520.4939281683740546 [Eh]
	-----------------------------------------------------------

  Dipole Moment: [D]
     X:     0.5298      Y:    -0.2001      Z:     1.1810     Total:     1.3097

*** Psi4 exiting successfully. Buy a developer a beer!
