                               Psi4 1.4a3.dev225

  ==> Input File <==

--------------------------------------------------------------------------
#psi4
#
memory 32 gb

molecule  {
0 1
  F        0.8801740    -2.1570240    -0.2741980
  O        1.6462780     0.5481910    -0.4350190
  O       -0.2367630     2.4625430    -0.1451660
  C        0.3476580     0.1463710    -0.1857710
  C       -0.6195240     1.1555560    -0.0645140
  C       -0.0605370    -1.1855140    -0.1277800
  C       -1.9594950     0.8272070     0.1461580
  C       -1.3851280    -1.5362190     0.0940810
  C       -2.3180418    -0.4670433     0.2188940
  C        2.5704260     0.1676860     0.6054290
  H       -2.6878360     1.6271100     0.2387920
  H       -1.6577150    -2.5857400     0.1384780
  H       -3.3736110    -0.7729470     0.3882060
  H        2.6849170    -0.9163680     0.6377720
  H        2.2243420     0.5379400     1.5755890
  H        3.5186220     0.6362700     0.3424670
  H        0.7214210     2.4415090    -0.3472440
units angstrom
no_reorient  #important for SAPT in psi4, default
symmetry c1  #important for SAPT in psi4, default
}

set PROPERTIES_ORIGIN ["COM"]
properties('MP2/aug-cc-pvtz', properties = ['dipole'])
--------------------------------------------------------------------------

    Molecular point group: c1
  Charge       = 0
  Multiplicity = 1
  Basis Set: AUG-CC-PVTZ
    Blend: AUG-CC-PVTZ
  Basis Set: (AUG-CC-PVTZ AUX)
    Blend: AUG-CC-PVTZ-JKFIT

    Orbital Energies [Eh]
    ---------------------

    Doubly Occupied:

       1A    -26.317667     2A    -20.598275     3A    -20.596517
       4A    -11.339188     5A    -11.316252     6A    -11.302163
       7A    -11.290938     8A    -11.254363     9A    -11.244939
      10A    -11.235790    11A     -1.630084    12A     -1.426619
      13A     -1.394590    14A     -1.161703    15A     -1.035621
      16A     -1.019124    17A     -0.945831    18A     -0.856875
      19A     -0.847175    20A     -0.759426    21A     -0.746054
      22A     -0.710931    23A     -0.699754    24A     -0.676102
      25A     -0.653386    26A     -0.647397    27A     -0.633922
      28A     -0.621709    29A     -0.590780    30A     -0.576125
      31A     -0.554884    32A     -0.538381    33A     -0.514871
      34A     -0.491706    35A     -0.473485    36A     -0.350214
      37A     -0.321204

  @DF-RHF Final Energy:  -518.47615942733364

   => Energetics <=

    Nuclear Repulsion Energy =            529.5215883610791252
    One-Electron Energy =               -1761.2474019821718230
    Two-Electron Energy =                 713.2496541937589427
    Total Energy =                       -518.4761594273336414
  Basis Set: (AUG-CC-PVTZ AUX)
    Blend: AUG-CC-PVTZ-RI
    Molecular point group: c1

    Geometry (in Angstrom), charge = 0, multiplicity = 1:

       Center              X                  Y                   Z               Mass
    ------------   -----------------  -----------------  -----------------  -----------------
         F            0.882901329768    -2.139059672918    -0.251289180847    18.998403162730
         O            1.649005329768     0.566155327082    -0.412110180847    15.994914619570
         O           -0.234035670232     2.480507327082    -0.122257180847    15.994914619570
         C            0.350385329768     0.164335327082    -0.162862180847    12.000000000000
         C           -0.616796670232     1.173520327082    -0.041605180847    12.000000000000
         C           -0.057809670232    -1.167549672918    -0.104871180847    12.000000000000
         C           -1.956767670232     0.845171327082     0.169066819153    12.000000000000
         C           -1.382400670232    -1.518254672918     0.116989819153    12.000000000000
         C           -2.315314470232    -0.449078972918     0.241802819153    12.000000000000
         C            2.573153329768     0.185650327082     0.628337819153    12.000000000000
         H           -2.685108670232     1.645074327082     0.261700819153     1.007825032230
         H           -1.654987670232    -2.567775672918     0.161386819153     1.007825032230
         H           -3.370883670232    -0.754982672918     0.411114819153     1.007825032230
         H            2.687644329768    -0.898403672918     0.660680819153     1.007825032230
         H            2.227069329768     0.555904327082     1.598497819153     1.007825032230
         H            3.521349329768     0.654234327082     0.365375819153     1.007825032230
         H            0.724148329768     2.459473327082    -0.324335180847     1.007825032230

  Basis Set: AUG-CC-PVTZ
    Blend: AUG-CC-PVTZ
  Basis Set: (AUG-CC-PVTZ AUX)
    Blend: AUG-CC-PVTZ-JKFIT
	 Reference Energy          =    -518.4761594273336414 [Eh]
	 Singles Energy            =      -0.0000000000000000 [Eh]
	 Same-Spin Energy          =      -0.5088651674250119 [Eh]
	 Opposite-Spin Energy      =      -1.5383435477980849 [Eh]
	 Correlation Energy        =      -2.0472087152230967 [Eh]
	 Total Energy              =    -520.5233681425567056 [Eh]

	 ================> DF-SCS-MP2 Energies <==================
	-----------------------------------------------------------
	 SCS Same-Spin Scale       =       0.3333333333333333 [-]
	 SCS Opposite-Spin Scale   =       1.2000000000000000 [-]
	 SCS Same-Spin Energy      =      -0.1696217224750040 [Eh]
	 SCS Opposite-Spin Energy  =      -1.8460122573577018 [Eh]
	 SCS Correlation Energy    =      -2.0156339798327059 [Eh]
	 SCS Total Energy          =    -520.4917934071663694 [Eh]
	-----------------------------------------------------------

  Dipole Moment: [D]
     X:     0.6356      Y:    -0.1294      Z:     1.1680     Total:     1.3361

*** Psi4 exiting successfully. Buy a developer a beer!
