                               Psi4 1.4a3.dev225

  ==> Input File <==

--------------------------------------------------------------------------
#psi4
#
memory 32 gb

molecule  {
0 1
  F        0.8801740    -2.1570240    -0.2741980
  O        1.6462780     0.5481910    -0.4350190
  O       -0.2367630     2.4625430    -0.1451660
  C        0.3476580     0.1463710    -0.1857710
  C       -0.6195240     1.1555560    -0.0645140
  C       -0.0605370    -1.1855140    -0.1277800
  C       -1.9594950     0.8272070     0.1461580
  C       -1.3851280    -1.5362190     0.0940810
  C       -2.3846879    -0.7076166     0.2324140
  C        2.5704260     0.1676860     0.6054290
  H       -2.6878360     1.6271100     0.2387920
  H       -1.6577150    -2.5857400     0.1384780
  H       -3.3736110    -0.7729470     0.3882060
  H        2.6849170    -0.9163680     0.6377720
  H        2.2243420     0.5379400     1.5755890
  H        3.5186220     0.6362700     0.3424670
  H        0.7214210     2.4415090    -0.3472440
units angstrom
no_reorient  #important for SAPT in psi4, default
symmetry c1  #important for SAPT in psi4, default
}

set PROPERTIES_ORIGIN ["COM"]
properties('MP2/aug-cc-pvtz', properties = ['dipole'])
--------------------------------------------------------------------------

    Molecular point group: c1
  Charge       = 0
  Multiplicity = 1
  Basis Set: AUG-CC-PVTZ
    Blend: AUG-CC-PVTZ
  Basis Set: (AUG-CC-PVTZ AUX)
    Blend: AUG-CC-PVTZ-JKFIT

    Orbital Energies [Eh]
    ---------------------

    Doubly Occupied:

       1A    -26.320124     2A    -20.601542     3A    -20.592798
       4A    -11.339661     5A    -11.312082     6A    -11.310324
       7A    -11.293278     8A    -11.256340     9A    -11.249282
      10A    -11.240908    11A     -1.631889    12A     -1.427400
      13A     -1.394069    14A     -1.154852    15A     -1.040712
      16A     -1.006309    17A     -0.952537    18A     -0.857754
      19A     -0.844695    20A     -0.758548    21A     -0.753353
      22A     -0.712613    23A     -0.701751    24A     -0.688006
      25A     -0.656269    26A     -0.646384    27A     -0.638215
      28A     -0.620333    29A     -0.592499    30A     -0.586931
      31A     -0.551939    32A     -0.529155    33A     -0.502546
      34A     -0.486464    35A     -0.470550    36A     -0.344354
      37A     -0.321095

  @DF-RHF Final Energy:  -518.43726116016330

   => Energetics <=

    Nuclear Repulsion Energy =            527.1567298212056585
    One-Electron Energy =               -1756.4128609257199969
    Two-Electron Energy =                 710.8188699443509222
    Total Energy =                       -518.4372611601633025
  Basis Set: (AUG-CC-PVTZ AUX)
    Blend: AUG-CC-PVTZ-RI
    Molecular point group: c1

    Geometry (in Angstrom), charge = 0, multiplicity = 1:

       Center              X                  Y                   Z               Mass
    ------------   -----------------  -----------------  -----------------  -----------------
         F            0.888531689286    -2.118735690427    -0.252431370123    18.998403162730
         O            1.654635689286     0.586479309573    -0.413252370123    15.994914619570
         O           -0.228405310714     2.500831309573    -0.123399370123    15.994914619570
         C            0.356015689286     0.184659309573    -0.164004370123    12.000000000000
         C           -0.611166310714     1.193844309573    -0.042747370123    12.000000000000
         C           -0.052179310714    -1.147225690427    -0.106013370123    12.000000000000
         C           -1.951137310714     0.865495309573     0.167924629877    12.000000000000
         C           -1.376770310714    -1.497930690427     0.115847629877    12.000000000000
         C           -2.376330210714    -0.669328290427     0.254180629877    12.000000000000
         C            2.578783689286     0.205974309573     0.627195629877    12.000000000000
         H           -2.679478310714     1.665398309573     0.260558629877     1.007825032230
         H           -1.649357310714    -2.547451690427     0.160244629877     1.007825032230
         H           -3.365253310714    -0.734658690427     0.409972629877     1.007825032230
         H            2.693274689286    -0.878079690427     0.659538629877     1.007825032230
         H            2.232699689286     0.576228309573     1.597355629877     1.007825032230
         H            3.526979689286     0.674558309573     0.364233629877     1.007825032230
         H            0.729778689286     2.479797309573    -0.325477370123     1.007825032230

  Basis Set: AUG-CC-PVTZ
    Blend: AUG-CC-PVTZ
  Basis Set: (AUG-CC-PVTZ AUX)
    Blend: AUG-CC-PVTZ-JKFIT
	 Reference Energy          =    -518.4372611601633025 [Eh]
	 Singles Energy            =      -0.0000000000000000 [Eh]
	 Same-Spin Energy          =      -0.5086119337295950 [Eh]
	 Opposite-Spin Energy      =      -1.5411420344283087 [Eh]
	 Correlation Energy        =      -2.0497539681579036 [Eh]
	 Total Energy              =    -520.4870151283212181 [Eh]

	 ================> DF-SCS-MP2 Energies <==================
	-----------------------------------------------------------
	 SCS Same-Spin Scale       =       0.3333333333333333 [-]
	 SCS Opposite-Spin Scale   =       1.2000000000000000 [-]
	 SCS Same-Spin Energy      =      -0.1695373112431983 [Eh]
	 SCS Opposite-Spin Energy  =      -1.8493704413139702 [Eh]
	 SCS Correlation Energy    =      -2.0189077525571686 [Eh]
	 SCS Total Energy          =    -520.4561689127205000 [Eh]
	-----------------------------------------------------------

  Dipole Moment: [D]
     X:     0.6919      Y:    -0.3220      Z:     1.1733     Total:     1.3996

*** Psi4 exiting successfully. Buy a developer a beer!
