                               Psi4 1.4a3.dev225

  ==> Input File <==

--------------------------------------------------------------------------
#psi4
#
memory 32 gb

molecule  {
0 1
  F        0.8801740    -2.1570240    -0.2741980
  O        1.6431994     0.5238940    -0.4408656
  O       -0.2367630     2.4625430    -0.1451660
  C        0.3476580     0.1463710    -0.1857710
  C       -0.6195240     1.1555560    -0.0645140
  C       -0.0605370    -1.1855140    -0.1277800
  C       -1.9594950     0.8272070     0.1461580
  C       -1.3851280    -1.5362190     0.0940810
  C       -2.3313710    -0.5151580     0.2215980
  C        2.5704260     0.1676860     0.6054290
  H       -2.6878360     1.6271100     0.2387920
  H       -1.6577150    -2.5857400     0.1384780
  H       -3.3736110    -0.7729470     0.3882060
  H        2.6849170    -0.9163680     0.6377720
  H        2.2243420     0.5379400     1.5755890
  H        3.5186220     0.6362700     0.3424670
  H        0.7214210     2.4415090    -0.3472440
units angstrom
no_reorient  #important for SAPT in psi4, default
symmetry c1  #important for SAPT in psi4, default
}

set PROPERTIES_ORIGIN ["COM"]
properties('MP2/aug-cc-pvtz', properties = ['dipole'])
--------------------------------------------------------------------------

    Molecular point group: c1
  Charge       = 0
  Multiplicity = 1
  Basis Set: AUG-CC-PVTZ
    Blend: AUG-CC-PVTZ
  Basis Set: (AUG-CC-PVTZ AUX)
    Blend: AUG-CC-PVTZ-JKFIT

    Orbital Energies [Eh]
    ---------------------

    Doubly Occupied:

       1A    -26.317891     2A    -20.598039     3A    -20.596183
       4A    -11.338271     5A    -11.315267     6A    -11.303086
       7A    -11.291778     8A    -11.254766     9A    -11.243522
      10A    -11.239768    11A     -1.630141    12A     -1.427911
      13A     -1.396067    14A     -1.158529    15A     -1.030103
      16A     -1.021531    17A     -0.947580    18A     -0.853859
      19A     -0.849404    20A     -0.759688    21A     -0.747482
      22A     -0.712031    23A     -0.700198    24A     -0.676524
      25A     -0.653719    26A     -0.646191    27A     -0.635262
      28A     -0.622835    29A     -0.590149    30A     -0.573754
      31A     -0.553406    32A     -0.541364    33A     -0.520635
      34A     -0.489617    35A     -0.472261    36A     -0.342853
      37A     -0.324947

  @DF-RHF Final Energy:  -518.47957140193807

   => Energetics <=

    Nuclear Repulsion Energy =            529.2384185271799879
    One-Electron Energy =               -1760.6827538609022668
    Two-Electron Energy =                 712.9647639317843186
    Total Energy =                       -518.4795714019380739
  Basis Set: (AUG-CC-PVTZ AUX)
    Blend: AUG-CC-PVTZ-RI
    Molecular point group: c1

    Geometry (in Angstrom), charge = 0, multiplicity = 1:

       Center              X                  Y                   Z               Mass
    ------------   -----------------  -----------------  -----------------  -----------------
         F            0.884374069241    -2.132258881688    -0.250859255652    18.998403162730
         O            1.647399469241     0.548659118312    -0.417526855652    15.994914619570
         O           -0.232562930759     2.487308118312    -0.121827255652    15.994914619570
         C            0.351858069241     0.171136118312    -0.162432255652    12.000000000000
         C           -0.615323930759     1.180321118312    -0.041175255652    12.000000000000
         C           -0.056336930759    -1.160748881688    -0.104441255652    12.000000000000
         C           -1.955294930759     0.851972118312     0.169496744348    12.000000000000
         C           -1.380927930759    -1.511453881688     0.117419744348    12.000000000000
         C           -2.327170930759    -0.490392881688     0.244936744348    12.000000000000
         C            2.574626069241     0.192451118312     0.628767744348    12.000000000000
         H           -2.683635930759     1.651875118312     0.262130744348     1.007825032230
         H           -1.653514930759    -2.560974881688     0.161816744348     1.007825032230
         H           -3.369410930759    -0.748181881688     0.411544744348     1.007825032230
         H            2.689117069241    -0.891602881688     0.661110744348     1.007825032230
         H            2.228542069241     0.562705118312     1.598927744348     1.007825032230
         H            3.522822069241     0.661035118312     0.365805744348     1.007825032230
         H            0.725621069241     2.466274118312    -0.323905255652     1.007825032230

  Basis Set: AUG-CC-PVTZ
    Blend: AUG-CC-PVTZ
  Basis Set: (AUG-CC-PVTZ AUX)
    Blend: AUG-CC-PVTZ-JKFIT
	 Reference Energy          =    -518.4795714019380739 [Eh]
	 Singles Energy            =      -0.0000000000000000 [Eh]
	 Same-Spin Energy          =      -0.5088278737597125 [Eh]
	 Opposite-Spin Energy      =      -1.5380679108599429 [Eh]
	 Correlation Energy        =      -2.0468957846196556 [Eh]
	 Total Energy              =    -520.5264671865577384 [Eh]

	 ================> DF-SCS-MP2 Energies <==================
	-----------------------------------------------------------
	 SCS Same-Spin Scale       =       0.3333333333333333 [-]
	 SCS Opposite-Spin Scale   =       1.2000000000000000 [-]
	 SCS Same-Spin Energy      =      -0.1696092912532375 [Eh]
	 SCS Opposite-Spin Energy  =      -1.8456814930319314 [Eh]
	 SCS Correlation Energy    =      -2.0152907842851691 [Eh]
	 SCS Total Energy          =    -520.4948621862232585 [Eh]
	-----------------------------------------------------------

  Dipole Moment: [D]
     X:     0.6715      Y:    -0.1228      Z:     1.1783     Total:     1.3617

*** Psi4 exiting successfully. Buy a developer a beer!
