                               Psi4 1.4a3.dev225

  ==> Input File <==

--------------------------------------------------------------------------
#psi4
#
memory 32 gb

molecule  {
0 1
  F        0.8801740    -2.1570240    -0.2741980
  O        1.6147037     0.6393347    -0.4339239
  O       -0.2367630     2.4625430    -0.1451660
  C        0.3476580     0.1463710    -0.1857710
  C       -0.6195240     1.1555560    -0.0645140
  C       -0.0605370    -1.1855140    -0.1277800
  C       -1.9594950     0.8272070     0.1461580
  C       -1.3851280    -1.5362190     0.0940810
  C       -2.3313710    -0.5151580     0.2215980
  C        2.5704260     0.1676860     0.6054290
  H       -2.6878360     1.6271100     0.2387920
  H       -1.6577150    -2.5857400     0.1384780
  H       -3.3736110    -0.7729470     0.3882060
  H        2.6849170    -0.9163680     0.6377720
  H        2.2243420     0.5379400     1.5755890
  H        3.5186220     0.6362700     0.3424670
  H        0.7214210     2.4415090    -0.3472440
units angstrom
no_reorient  #important for SAPT in psi4, default
symmetry c1  #important for SAPT in psi4, default
}

set PROPERTIES_ORIGIN ["COM"]
properties('MP2/aug-cc-pvtz', properties = ['dipole'])
--------------------------------------------------------------------------

    Molecular point group: c1
  Charge       = 0
  Multiplicity = 1
  Basis Set: AUG-CC-PVTZ
    Blend: AUG-CC-PVTZ
  Basis Set: (AUG-CC-PVTZ AUX)
    Blend: AUG-CC-PVTZ-JKFIT

    Orbital Energies [Eh]
    ---------------------

    Doubly Occupied:

       1A    -26.318267     2A    -20.602677     3A    -20.591865
       4A    -11.339898     5A    -11.311826     6A    -11.302792
       7A    -11.297579     8A    -11.253533     9A    -11.243544
      10A    -11.237899    11A     -1.630774    12A     -1.423943
      13A     -1.386442    14A     -1.157298    15A     -1.026681
      16A     -1.020076    17A     -0.950258    18A     -0.852162
      19A     -0.848800    20A     -0.757770    21A     -0.746710
      22A     -0.708276    23A     -0.699448    24A     -0.676389
      25A     -0.652434    26A     -0.645400    27A     -0.633749
      28A     -0.610682    29A     -0.586172    30A     -0.571621
      31A     -0.556861    32A     -0.540210    33A     -0.520843
      34A     -0.494021    35A     -0.477352    36A     -0.342150
      37A     -0.322469

  @DF-RHF Final Energy:  -518.47354992874443

   => Energetics <=

    Nuclear Repulsion Energy =            528.5730481094138895
    One-Electron Energy =               -1759.4154469585630522
    Two-Electron Energy =                 712.3688489204046164
    Total Energy =                       -518.4735499287444327
  Basis Set: (AUG-CC-PVTZ AUX)
    Blend: AUG-CC-PVTZ-RI
    Molecular point group: c1

    Geometry (in Angstrom), charge = 0, multiplicity = 1:

       Center              X                  Y                   Z               Mass
    ------------   -----------------  -----------------  -----------------  -----------------
         F            0.887582859988    -2.145258213165    -0.251640933685    18.998403162730
         O            1.622112559988     0.651100486835    -0.411366833685    15.994914619570
         O           -0.229354140012     2.474308786835    -0.122608933685    15.994914619570
         C            0.355066859988     0.158136786835    -0.163213933685    12.000000000000
         C           -0.612115140012     1.167321786835    -0.041956933685    12.000000000000
         C           -0.053128140012    -1.173748213165    -0.105222933685    12.000000000000
         C           -1.952086140012     0.838972786835     0.168715066315    12.000000000000
         C           -1.377719140012    -1.524453213165     0.116638066315    12.000000000000
         C           -2.323962140012    -0.503392213165     0.244155066315    12.000000000000
         C            2.577834859988     0.179451786835     0.627986066315    12.000000000000
         H           -2.680427140012     1.638875786835     0.261349066315     1.007825032230
         H           -1.650306140012    -2.573974213165     0.161035066315     1.007825032230
         H           -3.366202140012    -0.761181213165     0.410763066315     1.007825032230
         H            2.692325859988    -0.904602213165     0.660329066315     1.007825032230
         H            2.231750859988     0.549705786835     1.598146066315     1.007825032230
         H            3.526030859988     0.648035786835     0.365024066315     1.007825032230
         H            0.728829859988     2.453274786835    -0.324686933685     1.007825032230

  Basis Set: AUG-CC-PVTZ
    Blend: AUG-CC-PVTZ
  Basis Set: (AUG-CC-PVTZ AUX)
    Blend: AUG-CC-PVTZ-JKFIT
	 Reference Energy          =    -518.4735499287444327 [Eh]
	 Singles Energy            =      -0.0000000000000000 [Eh]
	 Same-Spin Energy          =      -0.5096160816416018 [Eh]
	 Opposite-Spin Energy      =      -1.5400959456737902 [Eh]
	 Correlation Energy        =      -2.0497120273153921 [Eh]
	 Total Energy              =    -520.5232619560598550 [Eh]

	 ================> DF-SCS-MP2 Energies <==================
	-----------------------------------------------------------
	 SCS Same-Spin Scale       =       0.3333333333333333 [-]
	 SCS Opposite-Spin Scale   =       1.2000000000000000 [-]
	 SCS Same-Spin Energy      =      -0.1698720272138672 [Eh]
	 SCS Opposite-Spin Energy  =      -1.8481151348085481 [Eh]
	 SCS Correlation Energy    =      -2.0179871620224152 [Eh]
	 SCS Total Energy          =    -520.4915370907668830 [Eh]
	-----------------------------------------------------------

  Dipole Moment: [D]
     X:     0.8710      Y:    -0.3159      Z:     1.2115     Total:     1.5252

*** Psi4 exiting successfully. Buy a developer a beer!
