                               Psi4 1.4a3.dev225

  ==> Input File <==

--------------------------------------------------------------------------
#psi4
#
memory 32 gb

molecule  {
0 1
  F        0.8801740    -2.1570240    -0.2741980
  O        1.6462780     0.5481910    -0.4350190
  O       -0.2367630     2.4625430    -0.1451660
  C        0.3476580     0.1463710    -0.1857710
  C       -0.6610791     1.2955294    -0.0600175
  C       -0.0605370    -1.1855140    -0.1277800
  C       -1.9594950     0.8272070     0.1461580
  C       -1.3851280    -1.5362190     0.0940810
  C       -2.3313710    -0.5151580     0.2215980
  C        2.5704260     0.1676860     0.6054290
  H       -2.6878360     1.6271100     0.2387920
  H       -1.6577150    -2.5857400     0.1384780
  H       -3.3736110    -0.7729470     0.3882060
  H        2.6849170    -0.9163680     0.6377720
  H        2.2243420     0.5379400     1.5755890
  H        3.5186220     0.6362700     0.3424670
  H        0.7214210     2.4415090    -0.3472440
units angstrom
no_reorient  #important for SAPT in psi4, default
symmetry c1  #important for SAPT in psi4, default
}

set PROPERTIES_ORIGIN ["COM"]
properties('MP2/aug-cc-pvtz', properties = ['dipole'])
--------------------------------------------------------------------------

    Molecular point group: c1
  Charge       = 0
  Multiplicity = 1
  Basis Set: AUG-CC-PVTZ
    Blend: AUG-CC-PVTZ
  Basis Set: (AUG-CC-PVTZ AUX)
    Blend: AUG-CC-PVTZ-JKFIT

    Orbital Energies [Eh]
    ---------------------

    Doubly Occupied:

       1A    -26.313561     2A    -20.618984     3A    -20.597456
       4A    -11.333106     5A    -11.330529     6A    -11.304771
       7A    -11.289914     8A    -11.252497     9A    -11.235844
      10A    -11.231336    11A     -1.625768    12A     -1.483758
      13A     -1.406450    14A     -1.143478    15A     -1.024133
      16A     -1.008327    17A     -0.944625    18A     -0.865177
      19A     -0.834228    20A     -0.791950    21A     -0.745745
      22A     -0.709144    23A     -0.695937    24A     -0.686781
      25A     -0.657297    26A     -0.648839    27A     -0.634055
      28A     -0.630067    29A     -0.622488    30A     -0.569663
      31A     -0.555951    32A     -0.532244    33A     -0.504833
      34A     -0.483229    35A     -0.462246    36A     -0.340812
      37A     -0.303328

  @DF-RHF Final Energy:  -518.45321204300944

   => Energetics <=

    Nuclear Repulsion Energy =            527.9014143301410513
    One-Electron Energy =               -1757.8721499050443526
    Two-Electron Energy =                 711.5175235318938576
    Total Energy =                       -518.4532120430094437
  Basis Set: (AUG-CC-PVTZ AUX)
    Blend: AUG-CC-PVTZ-RI
    Molecular point group: c1

    Geometry (in Angstrom), charge = 0, multiplicity = 1:

       Center              X                  Y                   Z               Mass
    ------------   -----------------  -----------------  -----------------  -----------------
         F            0.887538035305    -2.146820029576    -0.251897489566    18.998403162730
         O            1.653642035305     0.558394970424    -0.412718489566    15.994914619570
         O           -0.229398964695     2.472746970424    -0.122865489566    15.994914619570
         C            0.355022035305     0.156574970424    -0.163470489566    12.000000000000
         C           -0.653715064695     1.305733370424    -0.037716989566    12.000000000000
         C           -0.053172964695    -1.175310029576    -0.105479489566    12.000000000000
         C           -1.952130964695     0.837410970424     0.168458510434    12.000000000000
         C           -1.377763964695    -1.526015029576     0.116381510434    12.000000000000
         C           -2.324006964695    -0.504954029576     0.243898510434    12.000000000000
         C            2.577790035305     0.177889970424     0.627729510434    12.000000000000
         H           -2.680471964695     1.637313970424     0.261092510434     1.007825032230
         H           -1.650350964695    -2.575536029576     0.160778510434     1.007825032230
         H           -3.366246964695    -0.762743029576     0.410506510434     1.007825032230
         H            2.692281035305    -0.906164029576     0.660072510434     1.007825032230
         H            2.231706035305     0.548143970424     1.597889510434     1.007825032230
         H            3.525986035305     0.646473970424     0.364767510434     1.007825032230
         H            0.728785035305     2.451712970424    -0.324943489566     1.007825032230

  Basis Set: AUG-CC-PVTZ
    Blend: AUG-CC-PVTZ
  Basis Set: (AUG-CC-PVTZ AUX)
    Blend: AUG-CC-PVTZ-JKFIT
	 Reference Energy          =    -518.4532120430094437 [Eh]
	 Singles Energy            =      -0.0000000000000000 [Eh]
	 Same-Spin Energy          =      -0.5094304426125940 [Eh]
	 Opposite-Spin Energy      =      -1.5385511460810495 [Eh]
	 Correlation Energy        =      -2.0479815886936432 [Eh]
	 Total Energy              =    -520.5011936317031314 [Eh]

	 ================> DF-SCS-MP2 Energies <==================
	-----------------------------------------------------------
	 SCS Same-Spin Scale       =       0.3333333333333333 [-]
	 SCS Opposite-Spin Scale   =       1.2000000000000000 [-]
	 SCS Same-Spin Energy      =      -0.1698101475375313 [Eh]
	 SCS Opposite-Spin Energy  =      -1.8462613752972592 [Eh]
	 SCS Correlation Energy    =      -2.0160715228347903 [Eh]
	 SCS Total Energy          =    -520.4692835658441936 [Eh]
	-----------------------------------------------------------

  Dipole Moment: [D]
     X:     0.9394      Y:     0.6673      Z:     1.0879     Total:     1.5847

*** Psi4 exiting successfully. Buy a developer a beer!
