                               Psi4 1.4a3.dev225

  ==> Input File <==

--------------------------------------------------------------------------
#psi4
#
memory 32 gb

molecule  {
0 1
  F        0.8801740    -2.1570240    -0.2741980
  O        1.6462780     0.5481910    -0.4350190
  O       -0.2367630     2.4625430    -0.1451660
  C        0.3476580     0.1463710    -0.1857710
  C       -0.6195240     1.1555560    -0.0645140
  C       -0.0605370    -1.1855140    -0.1277800
  C       -1.7674680     0.8742617     0.1159673
  C       -1.3851280    -1.5362190     0.0940810
  C       -2.3313710    -0.5151580     0.2215980
  C        2.5704260     0.1676860     0.6054290
  H       -2.6878360     1.6271100     0.2387920
  H       -1.6577150    -2.5857400     0.1384780
  H       -3.3736110    -0.7729470     0.3882060
  H        2.6849170    -0.9163680     0.6377720
  H        2.2243420     0.5379400     1.5755890
  H        3.5186220     0.6362700     0.3424670
  H        0.7214210     2.4415090    -0.3472440
units angstrom
no_reorient  #important for SAPT in psi4, default
symmetry c1  #important for SAPT in psi4, default
}

set PROPERTIES_ORIGIN ["COM"]
properties('MP2/aug-cc-pvtz', properties = ['dipole'])
--------------------------------------------------------------------------

    Molecular point group: c1
  Charge       = 0
  Multiplicity = 1
  Basis Set: AUG-CC-PVTZ
    Blend: AUG-CC-PVTZ
  Basis Set: (AUG-CC-PVTZ AUX)
    Blend: AUG-CC-PVTZ-JKFIT

    Orbital Energies [Eh]
    ---------------------

    Doubly Occupied:

       1A    -26.317432     2A    -20.600041     3A    -20.585267
       4A    -11.335876     5A    -11.308288     6A    -11.292189
       7A    -11.283038     8A    -11.266181     9A    -11.249886
      10A    -11.230265    11A     -1.629830    12A     -1.425842
      13A     -1.391967    14A     -1.172144    15A     -1.052496
      16A     -1.019221    17A     -0.948286    18A     -0.862936
      19A     -0.839071    20A     -0.757667    21A     -0.747107
      22A     -0.706931    23A     -0.698606    24A     -0.683918
      25A     -0.654729    26A     -0.644409    27A     -0.629969
      28A     -0.621230    29A     -0.595473    30A     -0.568999
      31A     -0.564758    32A     -0.527630    33A     -0.506072
      34A     -0.487845    35A     -0.466881    36A     -0.359054
      37A     -0.326371

  @DF-RHF Final Energy:  -518.41654669115565

   => Energetics <=

    Nuclear Repulsion Energy =            532.3881550973395633
    One-Electron Energy =               -1766.8935962800157995
    Two-Electron Energy =                 716.0888944915207048
    Total Energy =                       -518.4165466911556450
  Basis Set: (AUG-CC-PVTZ AUX)
    Blend: AUG-CC-PVTZ-RI
    Molecular point group: c1

    Geometry (in Angstrom), charge = 0, multiplicity = 1:

       Center              X                  Y                   Z               Mass
    ------------   -----------------  -----------------  -----------------  -----------------
         F            0.867804679565    -2.138970122576    -0.248967064430    18.998403162730
         O            1.633908679565     0.566244877424    -0.409788064430    15.994914619570
         O           -0.249132320435     2.480596877424    -0.119935064430    15.994914619570
         C            0.335288679565     0.164424877424    -0.160540064430    12.000000000000
         C           -0.631893320435     1.173609877424    -0.039283064430    12.000000000000
         C           -0.072906320435    -1.167460122576    -0.102549064430    12.000000000000
         C           -1.779837320435     0.892315577424     0.141198235570    12.000000000000
         C           -1.397497320435    -1.518165122576     0.119311935570    12.000000000000
         C           -2.343740320435    -0.497104122576     0.246828935570    12.000000000000
         C            2.558056679565     0.185739877424     0.630659935570    12.000000000000
         H           -2.700205320435     1.645163877424     0.264022935570     1.007825032230
         H           -1.670084320435    -2.567686122576     0.163708935570     1.007825032230
         H           -3.385980320435    -0.754893122576     0.413436935570     1.007825032230
         H            2.672547679565    -0.898314122576     0.663002935570     1.007825032230
         H            2.211972679565     0.555993877424     1.600819935570     1.007825032230
         H            3.506252679565     0.654323877424     0.367697935570     1.007825032230
         H            0.709051679565     2.459562877424    -0.322013064430     1.007825032230

  Basis Set: AUG-CC-PVTZ
    Blend: AUG-CC-PVTZ
  Basis Set: (AUG-CC-PVTZ AUX)
    Blend: AUG-CC-PVTZ-JKFIT
	 Reference Energy          =    -518.4165466911556450 [Eh]
	 Singles Energy            =      -0.0000000000000000 [Eh]
	 Same-Spin Energy          =      -0.5086450941194647 [Eh]
	 Opposite-Spin Energy      =      -1.5399528032425924 [Eh]
	 Correlation Energy        =      -2.0485978973620571 [Eh]
	 Total Energy              =    -520.4651445885176599 [Eh]

	 ================> DF-SCS-MP2 Energies <==================
	-----------------------------------------------------------
	 SCS Same-Spin Scale       =       0.3333333333333333 [-]
	 SCS Opposite-Spin Scale   =       1.2000000000000000 [-]
	 SCS Same-Spin Energy      =      -0.1695483647064882 [Eh]
	 SCS Opposite-Spin Energy  =      -1.8479433638911109 [Eh]
	 SCS Correlation Energy    =      -2.0174917285975993 [Eh]
	 SCS Total Energy          =    -520.4340384197532785 [Eh]
	-----------------------------------------------------------

  Dipole Moment: [D]
     X:     0.5340      Y:    -0.5293      Z:     1.1964     Total:     1.4131

*** Psi4 exiting successfully. Buy a developer a beer!
