                               Psi4 1.4a3.dev225

  ==> Input File <==

--------------------------------------------------------------------------
#psi4
#
memory 32 gb

molecule  {
0 1
  F        0.8801740    -2.1570240    -0.2741980
  O        1.6462780     0.5481910    -0.4350190
  O       -0.2367630     2.4625430    -0.1451660
  C        0.3476580     0.1463710    -0.1857710
  C       -0.6195240     1.1555560    -0.0645140
  C       -0.0605370    -1.1855140    -0.1277800
  C       -1.9594950     0.8272070     0.1461580
  C       -1.3851280    -1.5362190     0.0940810
  C       -2.3313710    -0.5151580     0.2215980
  C        2.5704260     0.1676860     0.6054290
  H       -2.6878360     1.6271100     0.2387920
  H       -1.6577150    -2.5857400     0.1384780
  H       -3.3736110    -0.7729470     0.3882060
  H        2.6954153    -1.0157712     0.6407377
  H        2.2243420     0.5379400     1.5755890
  H        3.5186220     0.6362700     0.3424670
  H        0.7214210     2.4415090    -0.3472440
units angstrom
no_reorient  #important for SAPT in psi4, default
symmetry c1  #important for SAPT in psi4, default
}

set PROPERTIES_ORIGIN ["COM"]
properties('MP2/aug-cc-pvtz', properties = ['dipole'])
--------------------------------------------------------------------------

    Molecular point group: c1
  Charge       = 0
  Multiplicity = 1
  Basis Set: AUG-CC-PVTZ
    Blend: AUG-CC-PVTZ
  Basis Set: (AUG-CC-PVTZ AUX)
    Blend: AUG-CC-PVTZ-JKFIT

    Orbital Energies [Eh]
    ---------------------

    Doubly Occupied:

       1A    -26.318112     2A    -20.600574     3A    -20.596099
       4A    -11.339629     5A    -11.315725     6A    -11.304130
       7A    -11.302031     8A    -11.255350     9A    -11.244107
      10A    -11.240065    11A     -1.630522    12A     -1.427372
      13A     -1.395111    14A     -1.159171    15A     -1.029649
      16A     -1.021765    17A     -0.940041    18A     -0.853942
      19A     -0.848667    20A     -0.759500    21A     -0.747665
      22A     -0.710533    23A     -0.699795    24A     -0.676939
      25A     -0.652532    26A     -0.643011    27A     -0.635384
      28A     -0.615145    29A     -0.590160    30A     -0.573979
      31A     -0.551724    32A     -0.540333    33A     -0.519470
      34A     -0.489274    35A     -0.468301    36A     -0.343688
      37A     -0.325451

  @DF-RHF Final Energy:  -518.47216228995808

   => Energetics <=

    Nuclear Repulsion Energy =            528.6254320850208615
    One-Electron Energy =               -1759.4652998392675727
    Two-Electron Energy =                 712.3677054642887470
    Total Energy =                       -518.4721622899580780
  Basis Set: (AUG-CC-PVTZ AUX)
    Blend: AUG-CC-PVTZ-RI
    Molecular point group: c1

    Geometry (in Angstrom), charge = 0, multiplicity = 1:

       Center              X                  Y                   Z               Mass
    ------------   -----------------  -----------------  -----------------  -----------------
         F            0.883952912334    -2.134289586417    -0.251538660968    18.998403162730
         O            1.650056912334     0.570925413583    -0.412359660968    15.994914619570
         O           -0.232984087666     2.485277413583    -0.122506660968    15.994914619570
         C            0.351436912334     0.169105413583    -0.163111660968    12.000000000000
         C           -0.615745087666     1.178290413583    -0.041854660968    12.000000000000
         C           -0.056758087666    -1.162779586417    -0.105120660968    12.000000000000
         C           -1.955716087666     0.849941413583     0.168817339032    12.000000000000
         C           -1.381349087666    -1.513484586417     0.116740339032    12.000000000000
         C           -2.327592087666    -0.492423586417     0.244257339032    12.000000000000
         C            2.574204912334     0.190420413583     0.628088339032    12.000000000000
         H           -2.684057087666     1.649844413583     0.261451339032     1.007825032230
         H           -1.653936087666    -2.563005586417     0.161137339032     1.007825032230
         H           -3.369832087666    -0.750212586417     0.410865339032     1.007825032230
         H            2.699194212334    -0.993036786417     0.663397039032     1.007825032230
         H            2.228120912334     0.560674413583     1.598248339032     1.007825032230
         H            3.522400912334     0.659004413583     0.365126339032     1.007825032230
         H            0.725199912334     2.464243413583    -0.324584660968     1.007825032230

  Basis Set: AUG-CC-PVTZ
    Blend: AUG-CC-PVTZ
  Basis Set: (AUG-CC-PVTZ AUX)
    Blend: AUG-CC-PVTZ-JKFIT
	 Reference Energy          =    -518.4721622899580780 [Eh]
	 Singles Energy            =      -0.0000000000000000 [Eh]
	 Same-Spin Energy          =      -0.5091263039706053 [Eh]
	 Opposite-Spin Energy      =      -1.5393082458756435 [Eh]
	 Correlation Energy        =      -2.0484345498462488 [Eh]
	 Total Energy              =    -520.5205968398042842 [Eh]

	 ================> DF-SCS-MP2 Energies <==================
	-----------------------------------------------------------
	 SCS Same-Spin Scale       =       0.3333333333333333 [-]
	 SCS Opposite-Spin Scale   =       1.2000000000000000 [-]
	 SCS Same-Spin Energy      =      -0.1697087679902018 [Eh]
	 SCS Opposite-Spin Energy  =      -1.8471698950507722 [Eh]
	 SCS Correlation Energy    =      -2.0168786630409739 [Eh]
	 SCS Total Energy          =    -520.4890409529990620 [Eh]
	-----------------------------------------------------------

  Dipole Moment: [D]
     X:     0.6026      Y:    -0.1350      Z:     1.1477     Total:     1.3033

*** Psi4 exiting successfully. Buy a developer a beer!
