                               Psi4 1.4a3.dev225

  ==> Input File <==

--------------------------------------------------------------------------
#psi4
#
memory 32 gb

molecule  {
0 1
  F        0.8801740    -2.1570240    -0.2741980
  O        1.6832935     0.5741635    -0.4571799
  O       -0.2367630     2.4625430    -0.1451660
  C        0.3476580     0.1463710    -0.1857710
  C       -0.6195240     1.1555560    -0.0645140
  C       -0.0605370    -1.1855140    -0.1277800
  C       -1.9594950     0.8272070     0.1461580
  C       -1.3851280    -1.5362190     0.0940810
  C       -2.3313710    -0.5151580     0.2215980
  C        2.5704260     0.1676860     0.6054290
  H       -2.6878360     1.6271100     0.2387920
  H       -1.6577150    -2.5857400     0.1384780
  H       -3.3736110    -0.7729470     0.3882060
  H        2.6849170    -0.9163680     0.6377720
  H        2.2243420     0.5379400     1.5755890
  H        3.5186220     0.6362700     0.3424670
  H        0.7214210     2.4415090    -0.3472440
units angstrom
no_reorient  #important for SAPT in psi4, default
symmetry c1  #important for SAPT in psi4, default
}

set PROPERTIES_ORIGIN ["COM"]
properties('MP2/aug-cc-pvtz', properties = ['dipole'])
--------------------------------------------------------------------------

    Molecular point group: c1
  Charge       = 0
  Multiplicity = 1
  Basis Set: AUG-CC-PVTZ
    Blend: AUG-CC-PVTZ
  Basis Set: (AUG-CC-PVTZ AUX)
    Blend: AUG-CC-PVTZ-JKFIT

    Orbital Energies [Eh]
    ---------------------

    Doubly Occupied:

       1A    -26.319505     2A    -20.600652     3A    -20.596303
       4A    -11.343120     5A    -11.318382     6A    -11.306386
       7A    -11.288435     8A    -11.257647     9A    -11.245638
      10A    -11.241357    11A     -1.631719    12A     -1.420384
      13A     -1.387066    14A     -1.161228    15A     -1.030351
      16A     -1.022815    17A     -0.942370    18A     -0.854220
      19A     -0.851449    20A     -0.759125    21A     -0.747255
      22A     -0.707575    23A     -0.699279    24A     -0.678128
      25A     -0.649417    26A     -0.644882    27A     -0.635254
      28A     -0.618381    29A     -0.589293    30A     -0.574798
      31A     -0.554937    32A     -0.541064    33A     -0.515090
      34A     -0.492874    35A     -0.473979    36A     -0.346922
      37A     -0.327750

  @DF-RHF Final Energy:  -518.47489834789917

   => Energetics <=

    Nuclear Repulsion Energy =            527.6014371015078268
    One-Electron Energy =               -1757.4026092152439560
    Two-Electron Energy =                 711.3262737658369588
    Total Energy =                       -518.4748983478991704
  Basis Set: (AUG-CC-PVTZ AUX)
    Blend: AUG-CC-PVTZ-RI
    Molecular point group: c1

    Geometry (in Angstrom), charge = 0, multiplicity = 1:

       Center              X                  Y                   Z               Mass
    ------------   -----------------  -----------------  -----------------  -----------------
         F            0.879859227455    -2.137919535978    -0.249022165323    18.998403162730
         O            1.682978727455     0.593267964022    -0.432004065323    15.994914619570
         O           -0.237077772545     2.481647464022    -0.119990165323    15.994914619570
         C            0.347343227455     0.165475464022    -0.160595165323    12.000000000000
         C           -0.619838772545     1.174660464022    -0.039338165323    12.000000000000
         C           -0.060851772545    -1.166409535978    -0.102604165323    12.000000000000
         C           -1.959809772545     0.846311464022     0.171333834677    12.000000000000
         C           -1.385442772545    -1.517114535978     0.119256834677    12.000000000000
         C           -2.331685772545    -0.496053535978     0.246773834677    12.000000000000
         C            2.570111227455     0.186790464022     0.630604834677    12.000000000000
         H           -2.688150772545     1.646214464022     0.263967834677     1.007825032230
         H           -1.658029772545    -2.566635535978     0.163653834677     1.007825032230
         H           -3.373925772545    -0.753842535978     0.413381834677     1.007825032230
         H            2.684602227455    -0.897263535978     0.662947834677     1.007825032230
         H            2.224027227455     0.557044464022     1.600764834677     1.007825032230
         H            3.518307227455     0.655374464022     0.367642834677     1.007825032230
         H            0.721106227455     2.460613464022    -0.322068165323     1.007825032230

  Basis Set: AUG-CC-PVTZ
    Blend: AUG-CC-PVTZ
  Basis Set: (AUG-CC-PVTZ AUX)
    Blend: AUG-CC-PVTZ-JKFIT
	 Reference Energy          =    -518.4748983478991704 [Eh]
	 Singles Energy            =      -0.0000000000000000 [Eh]
	 Same-Spin Energy          =      -0.5091177764724750 [Eh]
	 Opposite-Spin Energy      =      -1.5397314783605203 [Eh]
	 Correlation Energy        =      -2.0488492548329953 [Eh]
	 Total Energy              =    -520.5237476027322145 [Eh]

	 ================> DF-SCS-MP2 Energies <==================
	-----------------------------------------------------------
	 SCS Same-Spin Scale       =       0.3333333333333333 [-]
	 SCS Opposite-Spin Scale   =       1.2000000000000000 [-]
	 SCS Same-Spin Energy      =      -0.1697059254908250 [Eh]
	 SCS Opposite-Spin Energy  =      -1.8476777740326242 [Eh]
	 SCS Correlation Energy    =      -2.0173836995234491 [Eh]
	 SCS Total Energy          =    -520.4922820474225773 [Eh]
	-----------------------------------------------------------

  Dipole Moment: [D]
     X:     0.4164      Y:    -0.2329      Z:     1.1923     Total:     1.2842

*** Psi4 exiting successfully. Buy a developer a beer!
