                               Psi4 1.4a3.dev225

  ==> Input File <==

--------------------------------------------------------------------------
#psi4
#
memory 32 gb

molecule  {
0 1
  O       -0.1447520     2.0657680    -0.9147710
  O       -2.4135200    -1.3721290    -0.1231600
  N        2.4623060    -1.2702550     0.0647480
  C        1.2743520    -0.4775570    -0.2805680
  C        1.2169020     0.7460590     0.6287670
  C        0.0617202    -1.3104737    -0.2323690
  C       -0.0652210     1.5501200     0.4236430
  C       -1.2565570    -0.5478520    -0.3033930
  C       -1.3010200     0.6792110     0.6017970
  H        1.2815110    -0.1258050    -1.3254330
  H        1.2829160     0.4071000     1.6706590
  H        2.0904420     1.3917410     0.4518040
  H        0.0420040    -2.2046970    -0.7480580
  H        0.0468530    -1.7199520     0.9526730
  H       -0.0971920     2.3821090     1.1446700
  H       -1.3133970    -0.2220240    -1.3458810
  H       -1.3538320     0.3483370     1.6492240
  H       -2.2017640     1.2636240     0.3898210
  H        3.3008500    -0.7206310    -0.1283000
  H        2.5136850    -2.0796090    -0.5553910
  H        0.6334020     2.6343050    -1.0521070
  H       -2.3814240    -1.6980050     0.7940470
units angstrom
no_reorient  #important for SAPT in psi4, default
symmetry c1  #important for SAPT in psi4, default
}

set PROPERTIES_ORIGIN ["COM"]
properties('MP2/aug-cc-pvtz', properties = ['dipole'])
--------------------------------------------------------------------------

    Molecular point group: c1
  Charge       = 0
  Multiplicity = 1
  Basis Set: AUG-CC-PVTZ
    Blend: AUG-CC-PVTZ
  Basis Set: (AUG-CC-PVTZ AUX)
    Blend: AUG-CC-PVTZ-JKFIT

    Orbital Energies [Eh]
    ---------------------

    Doubly Occupied:

       1A    -20.562433     2A    -20.554509     3A    -15.547536
       4A    -11.286923     5A    -11.274255     6A    -11.256677
       7A    -11.228170     8A    -11.225732     9A    -11.221957
      10A     -1.363336    11A     -1.351235    12A     -1.196198
      13A     -1.089008    14A     -1.001741    15A     -0.989276
      16A     -0.843817    17A     -0.828774    18A     -0.764520
      19A     -0.697844    20A     -0.678806    21A     -0.657665
      22A     -0.650777    23A     -0.627034    24A     -0.611117
      25A     -0.589490    26A     -0.571497    27A     -0.557081
      28A     -0.531487    29A     -0.515871    30A     -0.507049
      31A     -0.490910    32A     -0.465459    33A     -0.455012
      34A     -0.430775    35A     -0.425428    36A     -0.392523

  @DF-RHF Final Energy:  -439.08466241387816

   => Energetics <=

    Nuclear Repulsion Energy =            507.0995104973075627
    One-Electron Energy =               -1605.4845020094855954
    Two-Electron Energy =                 659.3003290982998124
    Total Energy =                       -439.0846624138781635
  Basis Set: (AUG-CC-PVTZ AUX)
    Blend: AUG-CC-PVTZ-RI
    Molecular point group: c1

    Geometry (in Angstrom), charge = 0, multiplicity = 1:

       Center              X                  Y                   Z               Mass
    ------------   -----------------  -----------------  -----------------  -----------------
         O           -0.118791814885     2.060923297624    -0.886334709775    15.994914619570
         O           -2.387559814885    -1.376973702376    -0.094723709775    15.994914619570
         N            2.488266185115    -1.275099702376     0.093184290225    14.003074004430
         C            1.300312185115    -0.482401702376    -0.252131709775    12.000000000000
         C            1.242862185115     0.741214297624     0.657203290225    12.000000000000
         C            0.087680385115    -1.315318402376    -0.203932709775    12.000000000000
         C           -0.039260814885     1.545275297624     0.452079290225    12.000000000000
         C           -1.230596814885    -0.552696702376    -0.274956709775    12.000000000000
         C           -1.275059814885     0.674366297624     0.630233290225    12.000000000000
         H            1.307471185115    -0.130649702376    -1.296996709775     1.007825032230
         H            1.308876185115     0.402255297624     1.699095290225     1.007825032230
         H            2.116402185115     1.386896297624     0.480240290225     1.007825032230
         H            0.067964185115    -2.209541702376    -0.719621709775     1.007825032230
         H            0.072813185115    -1.724796702376     0.981109290225     1.007825032230
         H           -0.071231814885     2.377264297624     1.173106290225     1.007825032230
         H           -1.287436814885    -0.226868702376    -1.317444709775     1.007825032230
         H           -1.327871814885     0.343492297624     1.677660290225     1.007825032230
         H           -2.175803814885     1.258779297624     0.418257290225     1.007825032230
         H            3.326810185115    -0.725475702376    -0.099863709775     1.007825032230
         H            2.539645185115    -2.084453702376    -0.526954709775     1.007825032230
         H            0.659362185115     2.629460297624    -1.023670709775     1.007825032230
         H           -2.355463814885    -1.702849702376     0.822483290225     1.007825032230

  Basis Set: AUG-CC-PVTZ
    Blend: AUG-CC-PVTZ
  Basis Set: (AUG-CC-PVTZ AUX)
    Blend: AUG-CC-PVTZ-JKFIT
	 Reference Energy          =    -439.0846624138781635 [Eh]
	 Singles Energy            =      -0.0000000000000000 [Eh]
	 Same-Spin Energy          =      -0.4524811002264505 [Eh]
	 Opposite-Spin Energy      =      -1.4751684660166355 [Eh]
	 Correlation Energy        =      -1.9276495662430859 [Eh]
	 Total Energy              =    -441.0123119801212397 [Eh]

	 ================> DF-SCS-MP2 Energies <==================
	-----------------------------------------------------------
	 SCS Same-Spin Scale       =       0.3333333333333333 [-]
	 SCS Opposite-Spin Scale   =       1.2000000000000000 [-]
	 SCS Same-Spin Energy      =      -0.1508270334088168 [Eh]
	 SCS Opposite-Spin Energy  =      -1.7702021592199626 [Eh]
	 SCS Correlation Energy    =      -1.9210291926287795 [Eh]
	 SCS Total Energy          =    -441.0056916065069572 [Eh]
	-----------------------------------------------------------

  Dipole Moment: [D]
     X:     2.5441      Y:     1.1881      Z:     0.6180     Total:     2.8750

*** Psi4 exiting successfully. Buy a developer a beer!
