                               Psi4 1.4a3.dev225

  ==> Input File <==

--------------------------------------------------------------------------
#psi4
#
memory 32 gb

molecule  {
0 1
  O       -0.1447520     2.0657680    -0.9147710
  O       -2.4135200    -1.3721290    -0.1231600
  N        2.4623060    -1.2702550     0.0647480
  C        1.2743520    -0.4775570    -0.2805680
  C        1.2169020     0.7460590     0.6287670
  C        0.0292070    -1.3356180    -0.0781670
  C       -0.0652210     1.5501200     0.4236430
  C       -1.2565570    -0.5478520    -0.3033930
  C       -1.3010200     0.6792110     0.6017970
  H        1.2815110    -0.1258050    -1.3254330
  H        1.2829160     0.4071000     1.6706590
  H        2.0904420     1.3917410     0.4518040
  H        0.0420040    -2.2046970    -0.7480580
  H        0.0468530    -1.7199520     0.9526730
  H       -0.0971920     2.3821090     1.1446700
  H       -1.3133970    -0.2220240    -1.3458810
  H       -1.3538320     0.3483370     1.6492240
  H       -2.2017640     1.2636240     0.3898210
  H        3.3008500    -0.7206310    -0.1283000
  H        2.5136850    -2.0796090    -0.5553910
  H        0.6334020     2.6343050    -1.0521070
  H       -2.3807649    -1.7046971     0.8128826
units angstrom
no_reorient  #important for SAPT in psi4, default
symmetry c1  #important for SAPT in psi4, default
}

set PROPERTIES_ORIGIN ["COM"]
properties('MP2/aug-cc-pvtz', properties = ['dipole'])
--------------------------------------------------------------------------

    Molecular point group: c1
  Charge       = 0
  Multiplicity = 1
  Basis Set: AUG-CC-PVTZ
    Blend: AUG-CC-PVTZ
  Basis Set: (AUG-CC-PVTZ AUX)
    Blend: AUG-CC-PVTZ-JKFIT

    Orbital Energies [Eh]
    ---------------------

    Doubly Occupied:

       1A    -20.561831     2A    -20.553515     3A    -15.546011
       4A    -11.285850     5A    -11.271816     6A    -11.256411
       7A    -11.225766     8A    -11.219761     9A    -11.217570
      10A     -1.362495    11A     -1.346072    12A     -1.192254
      13A     -1.086994    14A     -0.995647    15A     -0.985784
      16A     -0.839559    17A     -0.822656    18A     -0.769099
      19A     -0.695039    20A     -0.677253    21A     -0.654632
      22A     -0.641528    23A     -0.625584    24A     -0.609619
      25A     -0.591779    26A     -0.563297    27A     -0.548450
      28A     -0.529824    29A     -0.526675    30A     -0.499720
      31A     -0.490242    32A     -0.475655    33A     -0.453459
      34A     -0.443799    35A     -0.420132    36A     -0.395361

  @DF-RHF Final Energy:  -439.10788444896366

   => Energetics <=

    Nuclear Repulsion Energy =            506.7705181401464074
    One-Electron Energy =               -1604.9945311165895419
    Two-Electron Energy =                 659.1161285274795318
    Total Energy =                       -439.1078844489636595
  Basis Set: (AUG-CC-PVTZ AUX)
    Blend: AUG-CC-PVTZ-RI
    Molecular point group: c1

    Geometry (in Angstrom), charge = 0, multiplicity = 1:

       Center              X                  Y                   Z               Mass
    ------------   -----------------  -----------------  -----------------  -----------------
         O           -0.115820723342     2.063276376992    -0.900594691349    15.994914619570
         O           -2.384588723342    -1.374620623008    -0.108983691349    15.994914619570
         N            2.491237276658    -1.272746623008     0.078924308651    14.003074004430
         C            1.303283276658    -0.480048623008    -0.266391691349    12.000000000000
         C            1.245833276658     0.743567376992     0.642943308651    12.000000000000
         C            0.058138276658    -1.338109623008    -0.063990691349    12.000000000000
         C           -0.036289723342     1.547628376992     0.437819308651    12.000000000000
         C           -1.227625723342    -0.550343623008    -0.289216691349    12.000000000000
         C           -1.272088723342     0.676719376992     0.615973308651    12.000000000000
         H            1.310442276658    -0.128296623008    -1.311256691349     1.007825032230
         H            1.311847276658     0.404608376992     1.684835308651     1.007825032230
         H            2.119373276658     1.389249376992     0.465980308651     1.007825032230
         H            0.070935276658    -2.207188623008    -0.733881691349     1.007825032230
         H            0.075784276658    -1.722443623008     0.966849308651     1.007825032230
         H           -0.068260723342     2.379617376992     1.158846308651     1.007825032230
         H           -1.284465723342    -0.224515623008    -1.331704691349     1.007825032230
         H           -1.324900723342     0.345845376992     1.663400308651     1.007825032230
         H           -2.172832723342     1.261132376992     0.403997308651     1.007825032230
         H            3.329781276658    -0.723122623008    -0.114123691349     1.007825032230
         H            2.542616276658    -2.082100623008    -0.541214691349     1.007825032230
         H            0.662333276658     2.631813376992    -1.037930691349     1.007825032230
         H           -2.351833623342    -1.707188723008     0.827058908651     1.007825032230

  Basis Set: AUG-CC-PVTZ
    Blend: AUG-CC-PVTZ
  Basis Set: (AUG-CC-PVTZ AUX)
    Blend: AUG-CC-PVTZ-JKFIT
	 Reference Energy          =    -439.1078844489636595 [Eh]
	 Singles Energy            =      -0.0000000000000000 [Eh]
	 Same-Spin Energy          =      -0.4517521510477866 [Eh]
	 Opposite-Spin Energy      =      -1.4739103401563993 [Eh]
	 Correlation Energy        =      -1.9256624912041860 [Eh]
	 Total Energy              =    -441.0335469401678665 [Eh]

	 ================> DF-SCS-MP2 Energies <==================
	-----------------------------------------------------------
	 SCS Same-Spin Scale       =       0.3333333333333333 [-]
	 SCS Opposite-Spin Scale   =       1.2000000000000000 [-]
	 SCS Same-Spin Energy      =      -0.1505840503492622 [Eh]
	 SCS Opposite-Spin Energy  =      -1.7686924081876791 [Eh]
	 SCS Correlation Energy    =      -1.9192764585369413 [Eh]
	 SCS Total Energy          =    -441.0271609075006154 [Eh]
	-----------------------------------------------------------

  Dipole Moment: [D]
     X:     2.5333      Y:     1.1212      Z:     0.7544     Total:     2.8712

*** Psi4 exiting successfully. Buy a developer a beer!
