                               Psi4 1.4a3.dev225

  ==> Input File <==

--------------------------------------------------------------------------
#psi4
#
memory 32 gb

molecule  {
0 1
  O       -0.1447520     2.0657680    -0.9147710
  O       -2.4135200    -1.3721290    -0.1231600
  N        2.4623060    -1.2702550     0.0647480
  C        1.2743520    -0.4775570    -0.2805680
  C        1.2169020     0.7460590     0.6287670
  C        0.0292070    -1.3356180    -0.0781670
  C       -0.0652210     1.5501200     0.4236430
  C       -1.2565570    -0.5478520    -0.3033930
  C       -1.3010200     0.6792110     0.6017970
  H        1.2815110    -0.1258050    -1.3254330
  H        1.2889302     0.3762190     1.7655810
  H        2.0904420     1.3917410     0.4518040
  H        0.0420040    -2.2046970    -0.7480580
  H        0.0468530    -1.7199520     0.9526730
  H       -0.0971920     2.3821090     1.1446700
  H       -1.3133970    -0.2220240    -1.3458810
  H       -1.3538320     0.3483370     1.6492240
  H       -2.2017640     1.2636240     0.3898210
  H        3.3008500    -0.7206310    -0.1283000
  H        2.5136850    -2.0796090    -0.5553910
  H        0.6334020     2.6343050    -1.0521070
  H       -2.3814240    -1.6980050     0.7940470
units angstrom
no_reorient  #important for SAPT in psi4, default
symmetry c1  #important for SAPT in psi4, default
}

set PROPERTIES_ORIGIN ["COM"]
properties('MP2/aug-cc-pvtz', properties = ['dipole'])
--------------------------------------------------------------------------

    Molecular point group: c1
  Charge       = 0
  Multiplicity = 1
  Basis Set: AUG-CC-PVTZ
    Blend: AUG-CC-PVTZ
  Basis Set: (AUG-CC-PVTZ AUX)
    Blend: AUG-CC-PVTZ-JKFIT

    Orbital Energies [Eh]
    ---------------------

    Doubly Occupied:

       1A    -20.563016     2A    -20.551714     3A    -15.546199
       4A    -11.286816     5A    -11.272039     6A    -11.257647
       7A    -11.237452     8A    -11.219814     9A    -11.217770
      10A     -1.363654    11A     -1.350202    12A     -1.192295
      13A     -1.086670    14A     -0.994349    15A     -0.984450
      16A     -0.839451    17A     -0.822971    18A     -0.766555
      19A     -0.696506    20A     -0.675508    21A     -0.653991
      22A     -0.642211    23A     -0.625331    24A     -0.609897
      25A     -0.591021    26A     -0.563526    27A     -0.548217
      28A     -0.530278    29A     -0.523761    30A     -0.498531
      31A     -0.483402    32A     -0.476348    33A     -0.454047
      34A     -0.444301    35A     -0.420618    36A     -0.395831

  @DF-RHF Final Energy:  -439.10288820758075

   => Energetics <=

    Nuclear Repulsion Energy =            506.3963536881351502
    One-Electron Energy =               -1604.2257083574161243
    Two-Electron Energy =                 658.7264664617002836
    Total Energy =                       -439.1028882075806905
  Basis Set: (AUG-CC-PVTZ AUX)
    Blend: AUG-CC-PVTZ-RI
    Molecular point group: c1

    Geometry (in Angstrom), charge = 0, multiplicity = 1:

       Center              X                  Y                   Z               Mass
    ------------   -----------------  -----------------  -----------------  -----------------
         O           -0.115861892106     2.063462335632    -0.901179625906    15.994914619570
         O           -2.384629892106    -1.374434664368    -0.109568625906    15.994914619570
         N            2.491196107894    -1.272560664368     0.078339374094    14.003074004430
         C            1.303242107894    -0.479862664368    -0.266976625906    12.000000000000
         C            1.245792107894     0.743753335632     0.642358374094    12.000000000000
         C            0.058097107894    -1.337923664368    -0.064575625906    12.000000000000
         C           -0.036330892106     1.547814335632     0.437234374094    12.000000000000
         C           -1.227666892106    -0.550157664368    -0.289801625906    12.000000000000
         C           -1.272129892106     0.676905335632     0.615388374094    12.000000000000
         H            1.310401107894    -0.128110664368    -1.311841625906     1.007825032230
         H            1.317820307894     0.373913335632     1.779172374094     1.007825032230
         H            2.119332107894     1.389435335632     0.465395374094     1.007825032230
         H            0.070894107894    -2.207002664368    -0.734466625906     1.007825032230
         H            0.075743107894    -1.722257664368     0.966264374094     1.007825032230
         H           -0.068301892106     2.379803335632     1.158261374094     1.007825032230
         H           -1.284506892106    -0.224329664368    -1.332289625906     1.007825032230
         H           -1.324941892106     0.346031335632     1.662815374094     1.007825032230
         H           -2.172873892106     1.261318335632     0.403412374094     1.007825032230
         H            3.329740107894    -0.722936664368    -0.114708625906     1.007825032230
         H            2.542575107894    -2.081914664368    -0.541799625906     1.007825032230
         H            0.662292107894     2.631999335632    -1.038515625906     1.007825032230
         H           -2.352533892106    -1.700310664368     0.807638374094     1.007825032230

  Basis Set: AUG-CC-PVTZ
    Blend: AUG-CC-PVTZ
  Basis Set: (AUG-CC-PVTZ AUX)
    Blend: AUG-CC-PVTZ-JKFIT
	 Reference Energy          =    -439.1028882075807473 [Eh]
	 Singles Energy            =      -0.0000000000000000 [Eh]
	 Same-Spin Energy          =      -0.4516529226253906 [Eh]
	 Opposite-Spin Energy      =      -1.4741429557915215 [Eh]
	 Correlation Energy        =      -1.9257958784169122 [Eh]
	 Total Energy              =    -441.0286840859976678 [Eh]

	 ================> DF-SCS-MP2 Energies <==================
	-----------------------------------------------------------
	 SCS Same-Spin Scale       =       0.3333333333333333 [-]
	 SCS Opposite-Spin Scale   =       1.2000000000000000 [-]
	 SCS Same-Spin Energy      =      -0.1505509742084635 [Eh]
	 SCS Opposite-Spin Energy  =      -1.7689715469498257 [Eh]
	 SCS Correlation Energy    =      -1.9195225211582894 [Eh]
	 SCS Total Energy          =    -441.0224107287390325 [Eh]
	-----------------------------------------------------------

  Dipole Moment: [D]
     X:     2.5307      Y:     1.1340      Z:     0.6881     Total:     2.8572

*** Psi4 exiting successfully. Buy a developer a beer!
