                               Psi4 1.4a3.dev225

  ==> Input File <==

--------------------------------------------------------------------------
#psi4
#
memory 32 gb

molecule  {
0 1
  O       -0.1447520     2.0657680    -0.9147710
  O       -2.4135200    -1.3721290    -0.1231600
  N        2.4623060    -1.2702550     0.0647480
  C        1.2743520    -0.4775570    -0.2805680
  C        1.2150191     0.7861620     0.6585697
  C        0.0292070    -1.3356180    -0.0781670
  C       -0.0652210     1.5501200     0.4236430
  C       -1.2565570    -0.5478520    -0.3033930
  C       -1.3010200     0.6792110     0.6017970
  H        1.2815110    -0.1258050    -1.3254330
  H        1.2829160     0.4071000     1.6706590
  H        2.0904420     1.3917410     0.4518040
  H        0.0420040    -2.2046970    -0.7480580
  H        0.0468530    -1.7199520     0.9526730
  H       -0.0971920     2.3821090     1.1446700
  H       -1.3133970    -0.2220240    -1.3458810
  H       -1.3538320     0.3483370     1.6492240
  H       -2.2017640     1.2636240     0.3898210
  H        3.3008500    -0.7206310    -0.1283000
  H        2.5136850    -2.0796090    -0.5553910
  H        0.6334020     2.6343050    -1.0521070
  H       -2.3814240    -1.6980050     0.7940470
units angstrom
no_reorient  #important for SAPT in psi4, default
symmetry c1  #important for SAPT in psi4, default
}

set PROPERTIES_ORIGIN ["COM"]
properties('MP2/aug-cc-pvtz', properties = ['dipole'])
--------------------------------------------------------------------------

    Molecular point group: c1
  Charge       = 0
  Multiplicity = 1
  Basis Set: AUG-CC-PVTZ
    Blend: AUG-CC-PVTZ
  Basis Set: (AUG-CC-PVTZ AUX)
    Blend: AUG-CC-PVTZ-JKFIT

    Orbital Energies [Eh]
    ---------------------

    Doubly Occupied:

       1A    -20.562367     2A    -20.551498     3A    -15.546008
       4A    -11.284882     5A    -11.271737     6A    -11.258369
       7A    -11.224822     8A    -11.220205     9A    -11.217421
      10A     -1.362986    11A     -1.349986    12A     -1.189730
      13A     -1.087024    14A     -0.998445    15A     -0.982741
      16A     -0.839675    17A     -0.822557    18A     -0.770052
      19A     -0.695875    20A     -0.678076    21A     -0.653755
      22A     -0.641972    23A     -0.627010    24A     -0.612006
      25A     -0.592842    26A     -0.562829    27A     -0.548041
      28A     -0.531327    29A     -0.527098    30A     -0.501658
      31A     -0.490580    32A     -0.471930    33A     -0.458353
      34A     -0.442107    35A     -0.419143    36A     -0.392931

  @DF-RHF Final Energy:  -439.10760741330472

   => Energetics <=

    Nuclear Repulsion Energy =            506.3119768299325187
    One-Electron Energy =               -1604.0630955002270639
    Two-Electron Energy =                 658.6435112569898820
    Total Energy =                       -439.1076074133046632
  Basis Set: (AUG-CC-PVTZ AUX)
    Blend: AUG-CC-PVTZ-RI
    Molecular point group: c1

    Geometry (in Angstrom), charge = 0, multiplicity = 1:

       Center              X                  Y                   Z               Mass
    ------------   -----------------  -----------------  -----------------  -----------------
         O           -0.115643301447     2.059554024132    -0.903177935333    15.994914619570
         O           -2.384411301447    -1.378342975868    -0.111566935333    15.994914619570
         N            2.491414698553    -1.276468975868     0.076341064667    14.003074004430
         C            1.303460698553    -0.483770975868    -0.268974935333    12.000000000000
         C            1.244127798553     0.779948024132     0.670162764667    12.000000000000
         C            0.058315698553    -1.341831975868    -0.066573935333    12.000000000000
         C           -0.036112301447     1.543906024132     0.435236064667    12.000000000000
         C           -1.227448301447    -0.554065975868    -0.291799935333    12.000000000000
         C           -1.271911301447     0.672997024132     0.613390064667    12.000000000000
         H            1.310619698553    -0.132018975868    -1.313839935333     1.007825032230
         H            1.312024698553     0.400886024132     1.682252064667     1.007825032230
         H            2.119550698553     1.385527024132     0.463397064667     1.007825032230
         H            0.071112698553    -2.210910975868    -0.736464935333     1.007825032230
         H            0.075961698553    -1.726165975868     0.964266064667     1.007825032230
         H           -0.068083301447     2.375895024132     1.156263064667     1.007825032230
         H           -1.284288301447    -0.228237975868    -1.334287935333     1.007825032230
         H           -1.324723301447     0.342123024132     1.660817064667     1.007825032230
         H           -2.172655301447     1.257410024132     0.401414064667     1.007825032230
         H            3.329958698553    -0.726844975868    -0.116706935333     1.007825032230
         H            2.542793698553    -2.085822975868    -0.543797935333     1.007825032230
         H            0.662510698553     2.628091024132    -1.040513935333     1.007825032230
         H           -2.352315301447    -1.704218975868     0.805640064667     1.007825032230

  Basis Set: AUG-CC-PVTZ
    Blend: AUG-CC-PVTZ
  Basis Set: (AUG-CC-PVTZ AUX)
    Blend: AUG-CC-PVTZ-JKFIT
	 Reference Energy          =    -439.1076074133047200 [Eh]
	 Singles Energy            =      -0.0000000000000000 [Eh]
	 Same-Spin Energy          =      -0.4513532956385080 [Eh]
	 Opposite-Spin Energy      =      -1.4731963185649628 [Eh]
	 Correlation Energy        =      -1.9245496142034708 [Eh]
	 Total Energy              =    -441.0321570275081626 [Eh]

	 ================> DF-SCS-MP2 Energies <==================
	-----------------------------------------------------------
	 SCS Same-Spin Scale       =       0.3333333333333333 [-]
	 SCS Opposite-Spin Scale   =       1.2000000000000000 [-]
	 SCS Same-Spin Energy      =      -0.1504510985461693 [Eh]
	 SCS Opposite-Spin Energy  =      -1.7678355822779552 [Eh]
	 SCS Correlation Energy    =      -1.9182866808241246 [Eh]
	 SCS Total Energy          =    -441.0258940941288301 [Eh]
	-----------------------------------------------------------

  Dipole Moment: [D]
     X:     2.5585      Y:     1.1209      Z:     0.7425     Total:     2.8903

*** Psi4 exiting successfully. Buy a developer a beer!
