                               Psi4 1.4a3.dev225

  ==> Input File <==

--------------------------------------------------------------------------
#psi4
#
memory 32 gb

molecule  {
0 1
  O       -0.1447520     2.0657680    -0.9147710
  O       -2.4135200    -1.3721290    -0.1231600
  N        2.4623060    -1.2702550     0.0647480
  C        1.2743520    -0.4775570    -0.2805680
  C        1.1871740     0.7028151     0.6381436
  C        0.0292070    -1.3356180    -0.0781670
  C       -0.0652210     1.5501200     0.4236430
  C       -1.2565570    -0.5478520    -0.3033930
  C       -1.3010200     0.6792110     0.6017970
  H        1.2815110    -0.1258050    -1.3254330
  H        1.2829160     0.4071000     1.6706590
  H        2.0904420     1.3917410     0.4518040
  H        0.0420040    -2.2046970    -0.7480580
  H        0.0468530    -1.7199520     0.9526730
  H       -0.0971920     2.3821090     1.1446700
  H       -1.3133970    -0.2220240    -1.3458810
  H       -1.3538320     0.3483370     1.6492240
  H       -2.2017640     1.2636240     0.3898210
  H        3.3008500    -0.7206310    -0.1283000
  H        2.5136850    -2.0796090    -0.5553910
  H        0.6334020     2.6343050    -1.0521070
  H       -2.3814240    -1.6980050     0.7940470
units angstrom
no_reorient  #important for SAPT in psi4, default
symmetry c1  #important for SAPT in psi4, default
}

set PROPERTIES_ORIGIN ["COM"]
properties('MP2/aug-cc-pvtz', properties = ['dipole'])
--------------------------------------------------------------------------

    Molecular point group: c1
  Charge       = 0
  Multiplicity = 1
  Basis Set: AUG-CC-PVTZ
    Blend: AUG-CC-PVTZ
  Basis Set: (AUG-CC-PVTZ AUX)
    Blend: AUG-CC-PVTZ-JKFIT

    Orbital Energies [Eh]
    ---------------------

    Doubly Occupied:

       1A    -20.562948     2A    -20.551727     3A    -15.546472
       4A    -11.286477     5A    -11.272061     6A    -11.255604
       7A    -11.227684     8A    -11.219157     9A    -11.217385
      10A     -1.363133    11A     -1.350179    12A     -1.194335
      13A     -1.089601    14A     -0.995334    15A     -0.987799
      16A     -0.840136    17A     -0.823380    18A     -0.770735
      19A     -0.696822    20A     -0.680607    21A     -0.655962
      22A     -0.637508    23A     -0.624479    24A     -0.612644
      25A     -0.592326    26A     -0.565293    27A     -0.551105
      28A     -0.528910    29A     -0.525141    30A     -0.501242
      31A     -0.494053    32A     -0.473907    33A     -0.451283
      34A     -0.441163    35A     -0.421347    36A     -0.397630

  @DF-RHF Final Energy:  -439.10598900942773

   => Energetics <=

    Nuclear Repulsion Energy =            507.5017162556763424
    One-Electron Energy =               -1606.4042744567932459
    Two-Electron Energy =                 659.7965691916890592
    Total Energy =                       -439.1059890094277307
  Basis Set: (AUG-CC-PVTZ AUX)
    Blend: AUG-CC-PVTZ-RI
    Molecular point group: c1

    Geometry (in Angstrom), charge = 0, multiplicity = 1:

       Center              X                  Y                   Z               Mass
    ------------   -----------------  -----------------  -----------------  -----------------
         O           -0.113094446445     2.067183343580    -0.901308192823    15.994914619570
         O           -2.381862446445    -1.370713656420    -0.109697192823    15.994914619570
         N            2.493963553555    -1.268839656420     0.078210807177    14.003074004430
         C            1.306009553555    -0.476141656420    -0.267105192823    12.000000000000
         C            1.218831553555     0.704230443580     0.651606407177    12.000000000000
         C            0.060864553555    -1.334202656420    -0.064704192823    12.000000000000
         C           -0.033563446445     1.551535343580     0.437105807177    12.000000000000
         C           -1.224899446445    -0.546436656420    -0.289930192823    12.000000000000
         C           -1.269362446445     0.680626343580     0.615259807177    12.000000000000
         H            1.313168553555    -0.124389656420    -1.311970192823     1.007825032230
         H            1.314573553555     0.408515343580     1.684121807177     1.007825032230
         H            2.122099553555     1.393156343580     0.465266807177     1.007825032230
         H            0.073661553555    -2.203281656420    -0.734595192823     1.007825032230
         H            0.078510553555    -1.718536656420     0.966135807177     1.007825032230
         H           -0.065534446445     2.383524343580     1.158132807177     1.007825032230
         H           -1.281739446445    -0.220608656420    -1.332418192823     1.007825032230
         H           -1.322174446445     0.349752343580     1.662686807177     1.007825032230
         H           -2.170106446445     1.265039343580     0.403283807177     1.007825032230
         H            3.332507553555    -0.719215656420    -0.114837192823     1.007825032230
         H            2.545342553555    -2.078193656420    -0.541928192823     1.007825032230
         H            0.665059553555     2.635720343580    -1.038644192823     1.007825032230
         H           -2.349766446445    -1.696589656420     0.807509807177     1.007825032230

  Basis Set: AUG-CC-PVTZ
    Blend: AUG-CC-PVTZ
  Basis Set: (AUG-CC-PVTZ AUX)
    Blend: AUG-CC-PVTZ-JKFIT
	 Reference Energy          =    -439.1059890094277307 [Eh]
	 Singles Energy            =      -0.0000000000000000 [Eh]
	 Same-Spin Energy          =      -0.4518818050231137 [Eh]
	 Opposite-Spin Energy      =      -1.4737344049898449 [Eh]
	 Correlation Energy        =      -1.9256162100129586 [Eh]
	 Total Energy              =    -441.0316052194406780 [Eh]

	 ================> DF-SCS-MP2 Energies <==================
	-----------------------------------------------------------
	 SCS Same-Spin Scale       =       0.3333333333333333 [-]
	 SCS Opposite-Spin Scale   =       1.2000000000000000 [-]
	 SCS Same-Spin Energy      =      -0.1506272683410379 [Eh]
	 SCS Opposite-Spin Energy  =      -1.7684812859878138 [Eh]
	 SCS Correlation Energy    =      -1.9191085543288517 [Eh]
	 SCS Total Energy          =    -441.0250975637565602 [Eh]
	-----------------------------------------------------------

  Dipole Moment: [D]
     X:     2.5116      Y:     1.1114      Z:     0.7560     Total:     2.8487

*** Psi4 exiting successfully. Buy a developer a beer!
