                               Psi4 1.4a3.dev225

  ==> Input File <==

--------------------------------------------------------------------------
#psi4
#
memory 32 gb

molecule  {
0 1
  O       -0.1447520     2.0657680    -0.9147710
  O       -2.4135200    -1.3721290    -0.1231600
  N        2.4623060    -1.2702550     0.0647480
  C        1.2743520    -0.4775570    -0.2805680
  C        1.2169020     0.7460590     0.6287670
  C        0.0292070    -1.3356180    -0.0781670
  C       -0.0652210     1.5501200     0.4236430
  C       -1.2565570    -0.5478520    -0.3033930
  C       -1.3010200     0.6792110     0.6017970
  H        1.2815110    -0.1258050    -1.3254330
  H        1.2829160     0.4071000     1.6706590
  H        2.0904420     1.3917410     0.4518040
  H        0.0420040    -2.2046970    -0.7480580
  H        0.0468530    -1.7199520     0.9526730
  H       -0.0971920     2.3821090     1.1446700
  H       -1.3133970    -0.2220240    -1.3458810
  H       -1.3634367     0.2881624     1.8397149
  H       -2.2017640     1.2636240     0.3898210
  H        3.3008500    -0.7206310    -0.1283000
  H        2.5136850    -2.0796090    -0.5553910
  H        0.6334020     2.6343050    -1.0521070
  H       -2.3814240    -1.6980050     0.7940470
units angstrom
no_reorient  #important for SAPT in psi4, default
symmetry c1  #important for SAPT in psi4, default
}

set PROPERTIES_ORIGIN ["COM"]
properties('MP2/aug-cc-pvtz', properties = ['dipole'])
--------------------------------------------------------------------------

    Molecular point group: c1
  Charge       = 0
  Multiplicity = 1
  Basis Set: AUG-CC-PVTZ
    Blend: AUG-CC-PVTZ
  Basis Set: (AUG-CC-PVTZ AUX)
    Blend: AUG-CC-PVTZ-JKFIT

    Orbital Energies [Eh]
    ---------------------

    Doubly Occupied:

       1A    -20.564340     2A    -20.551764     3A    -15.546348
       4A    -11.288506     5A    -11.274915     6A    -11.256904
       7A    -11.243762     8A    -11.226062     9A    -11.217985
      10A     -1.365073    11A     -1.350415    12A     -1.192623
      13A     -1.085831    14A     -0.996954    15A     -0.981950
      16A     -0.842052    17A     -0.819545    18A     -0.762990
      19A     -0.695626    20A     -0.678738    21A     -0.655093
      22A     -0.642657    23A     -0.626996    24A     -0.609718
      25A     -0.590147    26A     -0.564055    27A     -0.549735
      28A     -0.530322    29A     -0.514580    30A     -0.494044
      31A     -0.490303    32A     -0.469494    33A     -0.455718
      34A     -0.443494    35A     -0.422193    36A     -0.395844

  @DF-RHF Final Energy:  -439.09006981763230

   => Energetics <=

    Nuclear Repulsion Energy =            505.9482299425930591
    One-Electron Energy =               -1603.2830432183559424
    Two-Electron Energy =                 658.2447434581305288
    Total Energy =                       -439.0900698176322976
  Basis Set: (AUG-CC-PVTZ AUX)
    Blend: AUG-CC-PVTZ-RI
    Molecular point group: c1

    Geometry (in Angstrom), charge = 0, multiplicity = 1:

       Center              X                  Y                   Z               Mass
    ------------   -----------------  -----------------  -----------------  -----------------
         O           -0.115741817634     2.063687538020    -0.901914337394    15.994914619570
         O           -2.384509817634    -1.374209461980    -0.110303337394    15.994914619570
         N            2.491316182366    -1.272335461980     0.077604662606    14.003074004430
         C            1.303362182366    -0.479637461980    -0.267711337394    12.000000000000
         C            1.245912182366     0.743978538020     0.641623662606    12.000000000000
         C            0.058217182366    -1.337698461980    -0.065310337394    12.000000000000
         C           -0.036210817634     1.548039538020     0.436499662606    12.000000000000
         C           -1.227546817634    -0.549932461980    -0.290536337394    12.000000000000
         C           -1.272009817634     0.677130538020     0.614653662606    12.000000000000
         H            1.310521182366    -0.127885461980    -1.312576337394     1.007825032230
         H            1.311926182366     0.405019538020     1.683515662606     1.007825032230
         H            2.119452182366     1.389660538020     0.464660662606     1.007825032230
         H            0.071014182366    -2.206777461980    -0.735201337394     1.007825032230
         H            0.075863182366    -1.722032461980     0.965529662606     1.007825032230
         H           -0.068181817634     2.380028538020     1.157526662606     1.007825032230
         H           -1.284386817634    -0.224104461980    -1.333024337394     1.007825032230
         H           -1.334426517634     0.286081938020     1.852571562606     1.007825032230
         H           -2.172753817634     1.261543538020     0.402677662606     1.007825032230
         H            3.329860182366    -0.722711461980    -0.115443337394     1.007825032230
         H            2.542695182366    -2.081689461980    -0.542534337394     1.007825032230
         H            0.662412182366     2.632224538020    -1.039250337394     1.007825032230
         H           -2.352413817634    -1.700085461980     0.806903662606     1.007825032230

  Basis Set: AUG-CC-PVTZ
    Blend: AUG-CC-PVTZ
  Basis Set: (AUG-CC-PVTZ AUX)
    Blend: AUG-CC-PVTZ-JKFIT
	 Reference Energy          =    -439.0900698176322976 [Eh]
	 Singles Energy            =      -0.0000000000000000 [Eh]
	 Same-Spin Energy          =      -0.4515741530838608 [Eh]
	 Opposite-Spin Energy      =      -1.4747854876435076 [Eh]
	 Correlation Energy        =      -1.9263596407273684 [Eh]
	 Total Energy              =    -441.0164294583596529 [Eh]

	 ================> DF-SCS-MP2 Energies <==================
	-----------------------------------------------------------
	 SCS Same-Spin Scale       =       0.3333333333333333 [-]
	 SCS Opposite-Spin Scale   =       1.2000000000000000 [-]
	 SCS Same-Spin Energy      =      -0.1505247176946203 [Eh]
	 SCS Opposite-Spin Energy  =      -1.7697425851722091 [Eh]
	 SCS Correlation Energy    =      -1.9202673028668293 [Eh]
	 SCS Total Energy          =    -441.0103371204991163 [Eh]
	-----------------------------------------------------------

  Dipole Moment: [D]
     X:     2.5693      Y:     1.1692      Z:     0.5971     Total:     2.8853

*** Psi4 exiting successfully. Buy a developer a beer!
