                               Psi4 1.4a3.dev225

  ==> Input File <==

--------------------------------------------------------------------------
#psi4
#
memory 32 gb

molecule  {
0 1
  O       -0.1447520     2.0657680    -0.9147710
  O       -2.4135200    -1.3721290    -0.1231600
  N        2.4623060    -1.2702550     0.0647480
  C        1.2743520    -0.4775570    -0.2805680
  C        1.2169020     0.7460590     0.6287670
  C        0.0292070    -1.3356180    -0.0781670
  C       -0.0652210     1.5501200     0.4236430
  C       -1.2565570    -0.5478520    -0.3033930
  C       -1.3416097     0.6506061     0.6076484
  H        1.2815110    -0.1258050    -1.3254330
  H        1.2829160     0.4071000     1.6706590
  H        2.0904420     1.3917410     0.4518040
  H        0.0420040    -2.2046970    -0.7480580
  H        0.0468530    -1.7199520     0.9526730
  H       -0.0971920     2.3821090     1.1446700
  H       -1.3133970    -0.2220240    -1.3458810
  H       -1.3538320     0.3483370     1.6492240
  H       -2.2017640     1.2636240     0.3898210
  H        3.3008500    -0.7206310    -0.1283000
  H        2.5136850    -2.0796090    -0.5553910
  H        0.6334020     2.6343050    -1.0521070
  H       -2.3814240    -1.6980050     0.7940470
units angstrom
no_reorient  #important for SAPT in psi4, default
symmetry c1  #important for SAPT in psi4, default
}

set PROPERTIES_ORIGIN ["COM"]
properties('MP2/aug-cc-pvtz', properties = ['dipole'])
--------------------------------------------------------------------------

    Molecular point group: c1
  Charge       = 0
  Multiplicity = 1
  Basis Set: AUG-CC-PVTZ
    Blend: AUG-CC-PVTZ
  Basis Set: (AUG-CC-PVTZ AUX)
    Blend: AUG-CC-PVTZ-JKFIT

    Orbital Energies [Eh]
    ---------------------

    Doubly Occupied:

       1A    -20.561720     2A    -20.549622     3A    -15.546038
       4A    -11.287539     5A    -11.270997     6A    -11.256429
       7A    -11.225671     8A    -11.218956     9A    -11.218191
      10A     -1.361529    11A     -1.349685    12A     -1.192218
      13A     -1.084620    14A     -0.995386    15A     -0.984948
      16A     -0.839044    17A     -0.824579    18A     -0.769977
      19A     -0.694408    20A     -0.677637    21A     -0.654245
      22A     -0.643004    23A     -0.624643    24A     -0.611860
      25A     -0.593064    26A     -0.562747    27A     -0.549949
      28A     -0.533810    29A     -0.526929    30A     -0.498027
      31A     -0.489075    32A     -0.476801    33A     -0.448437
      34A     -0.442831    35A     -0.422453    36A     -0.395515

  @DF-RHF Final Energy:  -439.10772326264510

   => Energetics <=

    Nuclear Repulsion Energy =            506.4454524566090186
    One-Electron Energy =               -1604.3411810344957757
    Two-Electron Energy =                 658.7880053152416622
    Total Energy =                       -439.1077232626450950
  Basis Set: (AUG-CC-PVTZ AUX)
    Blend: AUG-CC-PVTZ-RI
    Molecular point group: c1

    Geometry (in Angstrom), charge = 0, multiplicity = 1:

       Center              X                  Y                   Z               Mass
    ------------   -----------------  -----------------  -----------------  -----------------
         O           -0.112100199760     2.065843334445    -0.900985506833    15.994914619570
         O           -2.380868199760    -1.372053665555    -0.109374506833    15.994914619570
         N            2.494957800240    -1.270179665555     0.078533493167    14.003074004430
         C            1.307003800240    -0.477481665555    -0.266782506833    12.000000000000
         C            1.249553800240     0.746134334445     0.642552493167    12.000000000000
         C            0.061858800240    -1.335542665555    -0.064381506833    12.000000000000
         C           -0.032569199760     1.550195334445     0.437428493167    12.000000000000
         C           -1.223905199760    -0.547776665555    -0.289607506833    12.000000000000
         C           -1.308957899760     0.650681434445     0.621433893167    12.000000000000
         H            1.314162800240    -0.125729665555    -1.311647506833     1.007825032230
         H            1.315567800240     0.407175334445     1.684444493167     1.007825032230
         H            2.123093800240     1.391816334445     0.465589493167     1.007825032230
         H            0.074655800240    -2.204621665555    -0.734272506833     1.007825032230
         H            0.079504800240    -1.719876665555     0.966458493167     1.007825032230
         H           -0.064540199760     2.382184334445     1.158455493167     1.007825032230
         H           -1.280745199760    -0.221948665555    -1.332095506833     1.007825032230
         H           -1.321180199760     0.348412334445     1.663009493167     1.007825032230
         H           -2.169112199760     1.263699334445     0.403606493167     1.007825032230
         H            3.333501800240    -0.720555665555    -0.114514506833     1.007825032230
         H            2.546336800240    -2.079533665555    -0.541605506833     1.007825032230
         H            0.666053800240     2.634380334445    -1.038321506833     1.007825032230
         H           -2.348772199760    -1.697929665555     0.807832493167     1.007825032230

  Basis Set: AUG-CC-PVTZ
    Blend: AUG-CC-PVTZ
  Basis Set: (AUG-CC-PVTZ AUX)
    Blend: AUG-CC-PVTZ-JKFIT
	 Reference Energy          =    -439.1077232626450950 [Eh]
	 Singles Energy            =      -0.0000000000000000 [Eh]
	 Same-Spin Energy          =      -0.4513462498256047 [Eh]
	 Opposite-Spin Energy      =      -1.4731554628555816 [Eh]
	 Correlation Energy        =      -1.9245017126811863 [Eh]
	 Total Energy              =    -441.0322249753263009 [Eh]

	 ================> DF-SCS-MP2 Energies <==================
	-----------------------------------------------------------
	 SCS Same-Spin Scale       =       0.3333333333333333 [-]
	 SCS Opposite-Spin Scale   =       1.2000000000000000 [-]
	 SCS Same-Spin Energy      =      -0.1504487499418682 [Eh]
	 SCS Opposite-Spin Energy  =      -1.7677865554266978 [Eh]
	 SCS Correlation Energy    =      -1.9182353053685661 [Eh]
	 SCS Total Energy          =    -441.0259585680136638 [Eh]
	-----------------------------------------------------------

  Dipole Moment: [D]
     X:     2.5530      Y:     1.1464      Z:     0.7450     Total:     2.8960

*** Psi4 exiting successfully. Buy a developer a beer!
