                               Psi4 1.4a3.dev225

  ==> Input File <==

--------------------------------------------------------------------------
#psi4
#
memory 32 gb

molecule  {
0 1
  O       -0.1447520     2.0657680    -0.9147710
  O       -2.4135200    -1.3721290    -0.1231600
  N        2.4623060    -1.2702550     0.0647480
  C        1.2743520    -0.4775570    -0.2805680
  C        1.2169020     0.7460590     0.6287670
  C        0.0292070    -1.3356180    -0.0781670
  C       -0.0652210     1.5501200     0.4236430
  C       -1.2565570    -0.5478520    -0.3033930
  C       -1.3010200     0.6792110     0.6017970
  H        1.2815110    -0.1258050    -1.3254330
  H        1.2829160     0.4071000     1.6706590
  H        2.0904420     1.3917410     0.4518040
  H        0.0420040    -2.2046970    -0.7480580
  H        0.0468530    -1.7199520     0.9526730
  H       -0.0971920     2.3821090     1.1446700
  H       -1.3133970    -0.2220240    -1.3458810
  H       -1.3538320     0.3483370     1.6492240
  H       -2.2017640     1.2636240     0.3898210
  H        3.3008500    -0.7206310    -0.1283000
  H        2.5187176    -2.1588864    -0.6161345
  H        0.6334020     2.6343050    -1.0521070
  H       -2.3814240    -1.6980050     0.7940470
units angstrom
no_reorient  #important for SAPT in psi4, default
symmetry c1  #important for SAPT in psi4, default
}

set PROPERTIES_ORIGIN ["COM"]
properties('MP2/aug-cc-pvtz', properties = ['dipole'])
--------------------------------------------------------------------------

    Molecular point group: c1
  Charge       = 0
  Multiplicity = 1
  Basis Set: AUG-CC-PVTZ
    Blend: AUG-CC-PVTZ
  Basis Set: (AUG-CC-PVTZ AUX)
    Blend: AUG-CC-PVTZ-JKFIT

    Orbital Energies [Eh]
    ---------------------

    Doubly Occupied:

       1A    -20.562089     2A    -20.551608     3A    -15.556771
       4A    -11.286349     5A    -11.271855     6A    -11.256798
       7A    -11.226449     8A    -11.219965     9A    -11.217445
      10A     -1.362867    11A     -1.350073    12A     -1.184246
      13A     -1.084469    14A     -0.996181    15A     -0.982817
      16A     -0.840210    17A     -0.821214    18A     -0.769462
      19A     -0.696126    20A     -0.677297    21A     -0.646434
      22A     -0.636815    23A     -0.624745    24A     -0.611708
      25A     -0.589731    26A     -0.561520    27A     -0.545126
      28A     -0.530487    29A     -0.526509    30A     -0.499888
      31A     -0.490352    32A     -0.474974    33A     -0.453743
      34A     -0.443810    35A     -0.420271    36A     -0.394428

  @DF-RHF Final Energy:  -439.09968345646865

   => Energetics <=

    Nuclear Repulsion Energy =            506.3841262217972599
    One-Electron Energy =               -1604.2379569245631501
    Two-Electron Energy =                 658.7541472462971797
    Total Energy =                       -439.0996834564687106
  Basis Set: (AUG-CC-PVTZ AUX)
    Blend: AUG-CC-PVTZ-RI
    Molecular point group: c1

    Geometry (in Angstrom), charge = 0, multiplicity = 1:

       Center              X                  Y                   Z               Mass
    ------------   -----------------  -----------------  -----------------  -----------------
         O           -0.115854345794     2.063834395905    -0.899982905726    15.994914619570
         O           -2.384622345794    -1.374062604095    -0.108371905726    15.994914619570
         N            2.491203654206    -1.272188604095     0.079536094274    14.003074004430
         C            1.303249654206    -0.479490604095    -0.265779905726    12.000000000000
         C            1.245799654206     0.744125395905     0.643555094274    12.000000000000
         C            0.058104654206    -1.337551604095    -0.063378905726    12.000000000000
         C           -0.036323345794     1.548186395905     0.438431094274    12.000000000000
         C           -1.227659345794    -0.549785604095    -0.288604905726    12.000000000000
         C           -1.272122345794     0.677277395905     0.616585094274    12.000000000000
         H            1.310408654206    -0.127738604095    -1.310644905726     1.007825032230
         H            1.311813654206     0.405166395905     1.685447094274     1.007825032230
         H            2.119339654206     1.389807395905     0.466592094274     1.007825032230
         H            0.070901654206    -2.206630604095    -0.733269905726     1.007825032230
         H            0.075750654206    -1.721885604095     0.967461094274     1.007825032230
         H           -0.068294345794     2.380175395905     1.159458094274     1.007825032230
         H           -1.284499345794    -0.223957604095    -1.331092905726     1.007825032230
         H           -1.324934345794     0.346403395905     1.664012094274     1.007825032230
         H           -2.172866345794     1.261690395905     0.404609094274     1.007825032230
         H            3.329747654206    -0.722564604095    -0.113511905726     1.007825032230
         H            2.547615254206    -2.160820004095    -0.601346405726     1.007825032230
         H            0.662299654206     2.632371395905    -1.037318905726     1.007825032230
         H           -2.352526345794    -1.699938604095     0.808835094274     1.007825032230

  Basis Set: AUG-CC-PVTZ
    Blend: AUG-CC-PVTZ
  Basis Set: (AUG-CC-PVTZ AUX)
    Blend: AUG-CC-PVTZ-JKFIT
	 Reference Energy          =    -439.0996834564686537 [Eh]
	 Singles Energy            =      -0.0000000000000000 [Eh]
	 Same-Spin Energy          =      -0.4520400783295746 [Eh]
	 Opposite-Spin Energy      =      -1.4751830190882351 [Eh]
	 Correlation Energy        =      -1.9272230974178097 [Eh]
	 Total Energy              =    -441.0269065538864766 [Eh]

	 ================> DF-SCS-MP2 Energies <==================
	-----------------------------------------------------------
	 SCS Same-Spin Scale       =       0.3333333333333333 [-]
	 SCS Opposite-Spin Scale   =       1.2000000000000000 [-]
	 SCS Same-Spin Energy      =      -0.1506800261098582 [Eh]
	 SCS Opposite-Spin Energy  =      -1.7702196229058822 [Eh]
	 SCS Correlation Energy    =      -1.9208996490157404 [Eh]
	 SCS Total Energy          =    -441.0205831054843770 [Eh]
	-----------------------------------------------------------

  Dipole Moment: [D]
     X:     2.5170      Y:     1.1325      Z:     0.7475     Total:     2.8594

*** Psi4 exiting successfully. Buy a developer a beer!
