                               Psi4 1.4a3.dev225

  ==> Input File <==

--------------------------------------------------------------------------
#psi4
#
memory 32 gb

molecule  {
0 1
  O       -0.1447520     2.0657680    -0.9147710
  O       -2.4135200    -1.3721290    -0.1231600
  N        2.4623060    -1.2702550     0.0647480
  C        1.2743520    -0.4775570    -0.2805680
  C        1.2169020     0.7460590     0.6287670
  C        0.0455298    -1.3243696    -0.0808203
  C       -0.0652210     1.5501200     0.4236430
  C       -1.2565570    -0.5478520    -0.3033930
  C       -1.3010200     0.6792110     0.6017970
  H        1.2815110    -0.1258050    -1.3254330
  H        1.2829160     0.4071000     1.6706590
  H        2.0904420     1.3917410     0.4518040
  H        0.0420040    -2.2046970    -0.7480580
  H        0.0468530    -1.7199520     0.9526730
  H       -0.0971920     2.3821090     1.1446700
  H       -1.3133970    -0.2220240    -1.3458810
  H       -1.3538320     0.3483370     1.6492240
  H       -2.2017640     1.2636240     0.3898210
  H        3.3008500    -0.7206310    -0.1283000
  H        2.5136850    -2.0796090    -0.5553910
  H        0.6334020     2.6343050    -1.0521070
  H       -2.3814240    -1.6980050     0.7940470
units angstrom
no_reorient  #important for SAPT in psi4, default
symmetry c1  #important for SAPT in psi4, default
}

set PROPERTIES_ORIGIN ["COM"]
properties('MP2/aug-cc-pvtz', properties = ['dipole'])
--------------------------------------------------------------------------

    Molecular point group: c1
  Charge       = 0
  Multiplicity = 1
  Basis Set: AUG-CC-PVTZ
    Blend: AUG-CC-PVTZ
  Basis Set: (AUG-CC-PVTZ AUX)
    Blend: AUG-CC-PVTZ-JKFIT

    Orbital Energies [Eh]
    ---------------------

    Doubly Occupied:

       1A    -20.561915     2A    -20.552516     3A    -15.546068
       4A    -11.285967     5A    -11.272456     6A    -11.255673
       7A    -11.225919     8A    -11.219689     9A    -11.218304
      10A     -1.362709    11A     -1.350342    12A     -1.193507
      13A     -1.087700    14A     -0.995757    15A     -0.987046
      16A     -0.840593    17A     -0.823317    18A     -0.769436
      19A     -0.696368    20A     -0.678362    21A     -0.655040
      22A     -0.641443    23A     -0.625860    24A     -0.611512
      25A     -0.591709    26A     -0.564386    27A     -0.548533
      28A     -0.530159    29A     -0.526087    30A     -0.500523
      31A     -0.489034    32A     -0.477076    33A     -0.453850
      34A     -0.444632    35A     -0.419474    36A     -0.395792

  @DF-RHF Final Energy:  -439.10882297542366

   => Energetics <=

    Nuclear Repulsion Energy =            507.0641644993845603
    One-Electron Energy =               -1605.5484674484307561
    Two-Electron Energy =                 659.3754799736225323
    Total Energy =                       -439.1088229754236636
  Basis Set: (AUG-CC-PVTZ AUX)
    Blend: AUG-CC-PVTZ-RI
    Molecular point group: c1

    Geometry (in Angstrom), charge = 0, multiplicity = 1:

       Center              X                  Y                   Z               Mass
    ------------   -----------------  -----------------  -----------------  -----------------
         O           -0.117309795355     2.062195285666    -0.900207012695    15.994914619570
         O           -2.386077795355    -1.375701714334    -0.108596012695    15.994914619570
         N            2.489748204645    -1.273827714334     0.079311987305    14.003074004430
         C            1.301794204645    -0.481129714334    -0.266004012695    12.000000000000
         C            1.244344204645     0.742486285666     0.643330987305    12.000000000000
         C            0.072972004645    -1.327942314334    -0.066256312695    12.000000000000
         C           -0.037778795355     1.546547285666     0.438206987305    12.000000000000
         C           -1.229114795355    -0.551424714334    -0.288829012695    12.000000000000
         C           -1.273577795355     0.675638285666     0.616360987305    12.000000000000
         H            1.308953204645    -0.129377714334    -1.310869012695     1.007825032230
         H            1.310358204645     0.403527285666     1.685222987305     1.007825032230
         H            2.117884204645     1.388168285666     0.466367987305     1.007825032230
         H            0.069446204645    -2.208269714334    -0.733494012695     1.007825032230
         H            0.074295204645    -1.723524714334     0.967236987305     1.007825032230
         H           -0.069749795355     2.378536285666     1.159233987305     1.007825032230
         H           -1.285954795355    -0.225596714334    -1.331317012695     1.007825032230
         H           -1.326389795355     0.344764285666     1.663787987305     1.007825032230
         H           -2.174321795355     1.260051285666     0.404384987305     1.007825032230
         H            3.328292204645    -0.724203714334    -0.113736012695     1.007825032230
         H            2.541127204645    -2.083181714334    -0.540827012695     1.007825032230
         H            0.660844204645     2.630732285666    -1.037543012695     1.007825032230
         H           -2.353981795355    -1.701577714334     0.808610987305     1.007825032230

  Basis Set: AUG-CC-PVTZ
    Blend: AUG-CC-PVTZ
  Basis Set: (AUG-CC-PVTZ AUX)
    Blend: AUG-CC-PVTZ-JKFIT
	 Reference Energy          =    -439.1088229754236636 [Eh]
	 Singles Energy            =      -0.0000000000000000 [Eh]
	 Same-Spin Energy          =      -0.4516579526827373 [Eh]
	 Opposite-Spin Energy      =      -1.4734445885052159 [Eh]
	 Correlation Energy        =      -1.9251025411879532 [Eh]
	 Total Energy              =    -441.0339255166115890 [Eh]

	 ================> DF-SCS-MP2 Energies <==================
	-----------------------------------------------------------
	 SCS Same-Spin Scale       =       0.3333333333333333 [-]
	 SCS Opposite-Spin Scale   =       1.2000000000000000 [-]
	 SCS Same-Spin Energy      =      -0.1505526508942458 [Eh]
	 SCS Opposite-Spin Energy  =      -1.7681335062062591 [Eh]
	 SCS Correlation Energy    =      -1.9186861571005049 [Eh]
	 SCS Total Energy          =    -441.0275091325241874 [Eh]
	-----------------------------------------------------------

  Dipole Moment: [D]
     X:     2.5252      Y:     1.1299      Z:     0.7456     Total:     2.8652

*** Psi4 exiting successfully. Buy a developer a beer!
