                               Psi4 1.4a3.dev225

  ==> Input File <==

--------------------------------------------------------------------------
#psi4
#
memory 32 gb

molecule  {
0 1
  O       -0.1447520     2.0657680    -0.9147710
  O       -2.4135200    -1.3721290    -0.1231600
  N        2.4623060    -1.2702550     0.0647480
  C        1.2743520    -0.4775570    -0.2805680
  C        1.2169020     0.7460590     0.6287670
  C        0.0292070    -1.3356180    -0.0781670
  C       -0.0652210     1.5501200     0.4236430
  C       -1.2565570    -0.5478520    -0.3033930
  C       -1.3010200     0.6792110     0.6017970
  H        1.2815110    -0.1258050    -1.3254330
  H        1.2829160     0.4071000     1.6706590
  H        2.0904420     1.3917410     0.4518040
  H        0.0431702    -2.2838937    -0.8091033
  H        0.0468530    -1.7199520     0.9526730
  H       -0.0971920     2.3821090     1.1446700
  H       -1.3133970    -0.2220240    -1.3458810
  H       -1.3538320     0.3483370     1.6492240
  H       -2.2017640     1.2636240     0.3898210
  H        3.3008500    -0.7206310    -0.1283000
  H        2.5136850    -2.0796090    -0.5553910
  H        0.6334020     2.6343050    -1.0521070
  H       -2.3814240    -1.6980050     0.7940470
units angstrom
no_reorient  #important for SAPT in psi4, default
symmetry c1  #important for SAPT in psi4, default
}

set PROPERTIES_ORIGIN ["COM"]
properties('MP2/aug-cc-pvtz', properties = ['dipole'])
--------------------------------------------------------------------------

    Molecular point group: c1
  Charge       = 0
  Multiplicity = 1
  Basis Set: AUG-CC-PVTZ
    Blend: AUG-CC-PVTZ
  Basis Set: (AUG-CC-PVTZ AUX)
    Blend: AUG-CC-PVTZ-JKFIT

    Orbital Energies [Eh]
    ---------------------

    Doubly Occupied:

       1A    -20.562439     2A    -20.551767     3A    -15.545996
       4A    -11.286661     5A    -11.273027     6A    -11.257500
       7A    -11.229538     8A    -11.226809     9A    -11.220948
      10A     -1.363232    11A     -1.350256    12A     -1.192298
      13A     -1.087746    14A     -0.993812    15A     -0.985649
      16A     -0.837967    17A     -0.822758    18A     -0.769764
      19A     -0.696198    20A     -0.678231    21A     -0.654791
      22A     -0.635304    23A     -0.625598    24A     -0.612170
      25A     -0.592402    26A     -0.562442    27A     -0.546413
      28A     -0.530314    29A     -0.526284    30A     -0.499481
      31A     -0.486710    32A     -0.475454    33A     -0.454068
      34A     -0.444238    35A     -0.419675    36A     -0.395538

  @DF-RHF Final Energy:  -439.10292325603439

   => Energetics <=

    Nuclear Repulsion Energy =            506.3709269743361006
    One-Electron Energy =               -1604.1607441555420337
    Two-Electron Energy =                 658.6868939251716029
    Total Energy =                       -439.1029232560343871
  Basis Set: (AUG-CC-PVTZ AUX)
    Blend: AUG-CC-PVTZ-RI
    Molecular point group: c1

    Geometry (in Angstrom), charge = 0, multiplicity = 1:

       Center              X                  Y                   Z               Mass
    ------------   -----------------  -----------------  -----------------  -----------------
         O           -0.115824621809     2.063833775503    -0.899980585558    15.994914619570
         O           -2.384592621809    -1.374063224497    -0.108369585558    15.994914619570
         N            2.491233378191    -1.272189224497     0.079538414442    14.003074004430
         C            1.303279378191    -0.479491224497    -0.265777585558    12.000000000000
         C            1.245829378191     0.744124775503     0.643557414442    12.000000000000
         C            0.058134378191    -1.337552224497    -0.063376585558    12.000000000000
         C           -0.036293621809     1.548185775503     0.438433414442    12.000000000000
         C           -1.227629621809    -0.549786224497    -0.288602585558    12.000000000000
         C           -1.272092621809     0.677276775503     0.616587414442    12.000000000000
         H            1.310438378191    -0.127739224497    -1.310642585558     1.007825032230
         H            1.311843378191     0.405165775503     1.685449414442     1.007825032230
         H            2.119369378191     1.389806775503     0.466594414442     1.007825032230
         H            0.072097578191    -2.285827924497    -0.794312885558     1.007825032230
         H            0.075780378191    -1.721886224497     0.967463414442     1.007825032230
         H           -0.068264621809     2.380174775503     1.159460414442     1.007825032230
         H           -1.284469621809    -0.223958224497    -1.331090585558     1.007825032230
         H           -1.324904621809     0.346402775503     1.664014414442     1.007825032230
         H           -2.172836621809     1.261689775503     0.404611414442     1.007825032230
         H            3.329777378191    -0.722565224497    -0.113509585558     1.007825032230
         H            2.542612378191    -2.081543224497    -0.540600585558     1.007825032230
         H            0.662329378191     2.632370775503    -1.037316585558     1.007825032230
         H           -2.352496621809    -1.699939224497     0.808837414442     1.007825032230

  Basis Set: AUG-CC-PVTZ
    Blend: AUG-CC-PVTZ
  Basis Set: (AUG-CC-PVTZ AUX)
    Blend: AUG-CC-PVTZ-JKFIT
	 Reference Energy          =    -439.1029232560343871 [Eh]
	 Singles Energy            =      -0.0000000000000000 [Eh]
	 Same-Spin Energy          =      -0.4516044822089105 [Eh]
	 Opposite-Spin Energy      =      -1.4740757935677959 [Eh]
	 Correlation Energy        =      -1.9256802757767064 [Eh]
	 Total Energy              =    -441.0286035318110862 [Eh]

	 ================> DF-SCS-MP2 Energies <==================
	-----------------------------------------------------------
	 SCS Same-Spin Scale       =       0.3333333333333333 [-]
	 SCS Opposite-Spin Scale   =       1.2000000000000000 [-]
	 SCS Same-Spin Energy      =      -0.1505348274029701 [Eh]
	 SCS Opposite-Spin Energy  =      -1.7688909522813552 [Eh]
	 SCS Correlation Energy    =      -1.9194257796843253 [Eh]
	 SCS Total Energy          =    -441.0223490357187188 [Eh]
	-----------------------------------------------------------

  Dipole Moment: [D]
     X:     2.5279      Y:     1.2053      Z:     0.7814     Total:     2.9075

*** Psi4 exiting successfully. Buy a developer a beer!
