                               Psi4 1.4a3.dev225

  ==> Input File <==

--------------------------------------------------------------------------
#psi4
#
memory 32 gb

molecule  {
0 1
  O       -0.1447520     2.0657680    -0.9147710
  O       -2.4135200    -1.3721290    -0.1231600
  N        2.4623060    -1.2702550     0.0647480
  C        1.2743520    -0.4775570    -0.2805680
  C        1.2169020     0.7460590     0.6287670
  C        0.0292070    -1.3356180    -0.0781670
  C       -0.0652210     1.5501200     0.4236430
  C       -1.2565570    -0.5478520    -0.3033930
  C       -1.3010200     0.6792110     0.6017970
  H        1.2815110    -0.1258050    -1.3254330
  H        1.2829160     0.4071000     1.6706590
  H        2.0904420     1.3917410     0.4518040
  H        0.0420040    -2.2046970    -0.7480580
  H        0.0468530    -1.7199520     0.9526730
  H       -0.0971920     2.3821090     1.1446700
  H       -1.3133970    -0.2220240    -1.3458810
  H       -1.3538320     0.3483370     1.6492240
  H       -2.2017640     1.2636240     0.3898210
  H        3.3008500    -0.7206310    -0.1283000
  H        2.5111687    -2.0399703    -0.5250193
  H        0.6334020     2.6343050    -1.0521070
  H       -2.3814240    -1.6980050     0.7940470
units angstrom
no_reorient  #important for SAPT in psi4, default
symmetry c1  #important for SAPT in psi4, default
}

set PROPERTIES_ORIGIN ["COM"]
properties('MP2/aug-cc-pvtz', properties = ['dipole'])
--------------------------------------------------------------------------

    Molecular point group: c1
  Charge       = 0
  Multiplicity = 1
  Basis Set: AUG-CC-PVTZ
    Blend: AUG-CC-PVTZ
  Basis Set: (AUG-CC-PVTZ AUX)
    Blend: AUG-CC-PVTZ-JKFIT

    Orbital Energies [Eh]
    ---------------------

    Doubly Occupied:

       1A    -20.561821     2A    -20.551672     3A    -15.540267
       4A    -11.285776     5A    -11.271989     6A    -11.256422
       7A    -11.225611     8A    -11.219841     9A    -11.217790
      10A     -1.362601    11A     -1.350127    12A     -1.197992
      13A     -1.089131    14A     -0.996058    15A     -0.987873
      16A     -0.840546    17A     -0.824490    18A     -0.769690
      19A     -0.696025    20A     -0.679101    21A     -0.661612
      22A     -0.642262    23A     -0.626104    24A     -0.611698
      25A     -0.592960    26A     -0.564544    27A     -0.549829
      28A     -0.530374    29A     -0.526836    30A     -0.499896
      31A     -0.490417    32A     -0.476191    33A     -0.453605
      34A     -0.444284    35A     -0.420476    36A     -0.396002

  @DF-RHF Final Energy:  -439.10904169124478

   => Energetics <=

    Nuclear Repulsion Energy =            507.1618321960005460
    One-Electron Energy =               -1605.7179196628860609
    Two-Electron Energy =                 659.4470457756406176
    Total Energy =                       -439.1090416912447836
  Basis Set: (AUG-CC-PVTZ AUX)
    Blend: AUG-CC-PVTZ-RI
    Molecular point group: c1

    Geometry (in Angstrom), charge = 0, multiplicity = 1:

       Center              X                  Y                   Z               Mass
    ------------   -----------------  -----------------  -----------------  -----------------
         O           -0.115796311605     2.062920196571    -0.900683378204    15.994914619570
         O           -2.384564311605    -1.374976803429    -0.109072378204    15.994914619570
         N            2.491261688395    -1.273102803429     0.078835621796    14.003074004430
         C            1.303307688395    -0.480404803429    -0.266480378204    12.000000000000
         C            1.245857688395     0.743211196571     0.642854621796    12.000000000000
         C            0.058162688395    -1.338465803429    -0.064079378204    12.000000000000
         C           -0.036265311605     1.547272196571     0.437730621796    12.000000000000
         C           -1.227601311605    -0.550699803429    -0.289305378204    12.000000000000
         C           -1.272064311605     0.676363196571     0.615884621796    12.000000000000
         H            1.310466688395    -0.128652803429    -1.311345378204     1.007825032230
         H            1.311871688395     0.404252196571     1.684746621796     1.007825032230
         H            2.119397688395     1.388893196571     0.465891621796     1.007825032230
         H            0.070959688395    -2.207544803429    -0.733970378204     1.007825032230
         H            0.075808688395    -1.722799803429     0.966760621796     1.007825032230
         H           -0.068236311605     2.379261196571     1.158757621796     1.007825032230
         H           -1.284441311605    -0.224871803429    -1.331793378204     1.007825032230
         H           -1.324876311605     0.345489196571     1.663311621796     1.007825032230
         H           -2.172808311605     1.260776196571     0.403908621796     1.007825032230
         H            3.329805688395    -0.723478803429    -0.114212378204     1.007825032230
         H            2.540124388395    -2.042818103429    -0.510931678204     1.007825032230
         H            0.662357688395     2.631457196571    -1.038019378204     1.007825032230
         H           -2.352468311605    -1.700852803429     0.808134621796     1.007825032230

  Basis Set: AUG-CC-PVTZ
    Blend: AUG-CC-PVTZ
  Basis Set: (AUG-CC-PVTZ AUX)
    Blend: AUG-CC-PVTZ-JKFIT
	 Reference Energy          =    -439.1090416912447836 [Eh]
	 Singles Energy            =      -0.0000000000000000 [Eh]
	 Same-Spin Energy          =      -0.4512477700171339 [Eh]
	 Opposite-Spin Energy      =      -1.4724223651283086 [Eh]
	 Correlation Energy        =      -1.9236701351454424 [Eh]
	 Total Energy              =    -441.0327118263901980 [Eh]

	 ================> DF-SCS-MP2 Energies <==================
	-----------------------------------------------------------
	 SCS Same-Spin Scale       =       0.3333333333333333 [-]
	 SCS Opposite-Spin Scale   =       1.2000000000000000 [-]
	 SCS Same-Spin Energy      =      -0.1504159233390446 [Eh]
	 SCS Opposite-Spin Energy  =      -1.7669068381539703 [Eh]
	 SCS Correlation Energy    =      -1.9173227614930148 [Eh]
	 SCS Total Energy          =    -441.0263644527378233 [Eh]
	-----------------------------------------------------------

  Dipole Moment: [D]
     X:     2.5451      Y:     1.1307      Z:     0.7460     Total:     2.8831

*** Psi4 exiting successfully. Buy a developer a beer!
