                               Psi4 1.4a3.dev225

  ==> Input File <==

--------------------------------------------------------------------------
#psi4
#
memory 32 gb

molecule  {
0 1
  O       -0.1447520     2.0657680    -0.9147710
  O       -2.4135200    -1.3721290    -0.1231600
  N        2.4623060    -1.2702550     0.0647480
  C        1.2743520    -0.4775570    -0.2805680
  C        1.2169020     0.7460590     0.6287670
  C        0.0292070    -1.3356180    -0.0781670
  C       -0.0652210     1.5501200     0.4236430
  C       -1.2565570    -0.5478520    -0.3033930
  C       -1.3004371     0.6631232     0.5899292
  H        1.2815110    -0.1258050    -1.3254330
  H        1.2829160     0.4071000     1.6706590
  H        2.0904420     1.3917410     0.4518040
  H        0.0420040    -2.2046970    -0.7480580
  H        0.0468530    -1.7199520     0.9526730
  H       -0.0971920     2.3821090     1.1446700
  H       -1.3133970    -0.2220240    -1.3458810
  H       -1.3538320     0.3483370     1.6492240
  H       -2.2017640     1.2636240     0.3898210
  H        3.3008500    -0.7206310    -0.1283000
  H        2.5136850    -2.0796090    -0.5553910
  H        0.6334020     2.6343050    -1.0521070
  H       -2.3814240    -1.6980050     0.7940470
units angstrom
no_reorient  #important for SAPT in psi4, default
symmetry c1  #important for SAPT in psi4, default
}

set PROPERTIES_ORIGIN ["COM"]
properties('MP2/aug-cc-pvtz', properties = ['dipole'])
--------------------------------------------------------------------------

    Molecular point group: c1
  Charge       = 0
  Multiplicity = 1
  Basis Set: AUG-CC-PVTZ
    Blend: AUG-CC-PVTZ
  Basis Set: (AUG-CC-PVTZ AUX)
    Blend: AUG-CC-PVTZ-JKFIT

    Orbital Energies [Eh]
    ---------------------

    Doubly Occupied:

       1A    -20.561851     2A    -20.551537     3A    -15.546097
       4A    -11.286535     5A    -11.271094     6A    -11.256549
       7A    -11.225706     8A    -11.220506     9A    -11.217715
      10A     -1.362677    11A     -1.350415    12A     -1.192415
      13A     -1.088275    14A     -0.996490    15A     -0.986126
      16A     -0.841397    17A     -0.822707    18A     -0.769428
      19A     -0.696162    20A     -0.678228    21A     -0.654839
      22A     -0.641431    23A     -0.626674    24A     -0.612094
      25A     -0.592325    26A     -0.563519    27A     -0.548950
      28A     -0.530012    29A     -0.525402    30A     -0.499487
      31A     -0.489922    32A     -0.475226    33A     -0.452540
      34A     -0.443841    35A     -0.423112    36A     -0.395607

  @DF-RHF Final Energy:  -439.10894619244436

   => Energetics <=

    Nuclear Repulsion Energy =            507.1236691733520843
    One-Electron Energy =               -1605.6714495855721907
    Two-Electron Energy =                 659.4388342197757993
    Total Energy =                       -439.1089461924443640
  Basis Set: (AUG-CC-PVTZ AUX)
    Blend: AUG-CC-PVTZ-RI
    Molecular point group: c1

    Geometry (in Angstrom), charge = 0, multiplicity = 1:

       Center              X                  Y                   Z               Mass
    ------------   -----------------  -----------------  -----------------  -----------------
         O           -0.115869013212     2.064697557524    -0.899363545643    15.994914619570
         O           -2.384637013212    -1.373199442476    -0.107752545643    15.994914619570
         N            2.491188986788    -1.271325442476     0.080155454357    14.003074004430
         C            1.303234986788    -0.478627442476    -0.265160545643    12.000000000000
         C            1.245784986788     0.744988557524     0.644174454357    12.000000000000
         C            0.058089986788    -1.336688442476    -0.062759545643    12.000000000000
         C           -0.036338013212     1.549049557524     0.439050454357    12.000000000000
         C           -1.227674013212    -0.548922442476    -0.287985545643    12.000000000000
         C           -1.271554113212     0.662052757524     0.605336654357    12.000000000000
         H            1.310393986788    -0.126875442476    -1.310025545643     1.007825032230
         H            1.311798986788     0.406029557524     1.686066454357     1.007825032230
         H            2.119324986788     1.390670557524     0.467211454357     1.007825032230
         H            0.070886986788    -2.205767442476    -0.732650545643     1.007825032230
         H            0.075735986788    -1.721022442476     0.968080454357     1.007825032230
         H           -0.068309013212     2.381038557524     1.160077454357     1.007825032230
         H           -1.284514013212    -0.223094442476    -1.330473545643     1.007825032230
         H           -1.324949013212     0.347266557524     1.664631454357     1.007825032230
         H           -2.172881013212     1.262553557524     0.405228454357     1.007825032230
         H            3.329732986788    -0.721701442476    -0.112892545643     1.007825032230
         H            2.542567986788    -2.080679442476    -0.539983545643     1.007825032230
         H            0.662284986788     2.633234557524    -1.036699545643     1.007825032230
         H           -2.352541013212    -1.699075442476     0.809454454357     1.007825032230

  Basis Set: AUG-CC-PVTZ
    Blend: AUG-CC-PVTZ
  Basis Set: (AUG-CC-PVTZ AUX)
    Blend: AUG-CC-PVTZ-JKFIT
	 Reference Energy          =    -439.1089461924443640 [Eh]
	 Singles Energy            =      -0.0000000000000000 [Eh]
	 Same-Spin Energy          =      -0.4516315487246767 [Eh]
	 Opposite-Spin Energy      =      -1.4733912186024045 [Eh]
	 Correlation Energy        =      -1.9250227673270812 [Eh]
	 Total Energy              =    -441.0339689597714710 [Eh]

	 ================> DF-SCS-MP2 Energies <==================
	-----------------------------------------------------------
	 SCS Same-Spin Scale       =       0.3333333333333333 [-]
	 SCS Opposite-Spin Scale   =       1.2000000000000000 [-]
	 SCS Same-Spin Energy      =      -0.1505438495748922 [Eh]
	 SCS Opposite-Spin Energy  =      -1.7680694623228854 [Eh]
	 SCS Correlation Energy    =      -1.9186133118977777 [Eh]
	 SCS Total Energy          =    -441.0275595043421504 [Eh]
	-----------------------------------------------------------

  Dipole Moment: [D]
     X:     2.5461      Y:     1.1384      Z:     0.7449     Total:     2.8868

*** Psi4 exiting successfully. Buy a developer a beer!
