                               Psi4 1.4a3.dev225

  ==> Input File <==

--------------------------------------------------------------------------
#psi4
#
memory 32 gb

molecule  {
0 1
  O       -0.1447520     2.0657680    -0.9147710
  O       -2.4135200    -1.3721290    -0.1231600
  N        2.4623060    -1.2702550     0.0647480
  C        1.2743520    -0.4775570    -0.2805680
  C        1.2169020     0.7460590     0.6287670
  C        0.0292070    -1.3356180    -0.0781670
  C       -0.0652210     1.5501200     0.4236430
  C       -1.2565570    -0.5478520    -0.3033930
  C       -1.3010200     0.6792110     0.6017970
  H        1.2815110    -0.1258050    -1.3254330
  H        1.2829160     0.4071000     1.6706590
  H        2.0904420     1.3917410     0.4518040
  H        0.0420040    -2.2046970    -0.7480580
  H        0.0468530    -1.7199520     0.9526730
  H       -0.0977725     2.3972167     1.1577628
  H       -1.3133970    -0.2220240    -1.3458810
  H       -1.3538320     0.3483370     1.6492240
  H       -2.2017640     1.2636240     0.3898210
  H        3.3008500    -0.7206310    -0.1283000
  H        2.5136850    -2.0796090    -0.5553910
  H        0.6334020     2.6343050    -1.0521070
  H       -2.3814240    -1.6980050     0.7940470
units angstrom
no_reorient  #important for SAPT in psi4, default
symmetry c1  #important for SAPT in psi4, default
}

set PROPERTIES_ORIGIN ["COM"]
properties('MP2/aug-cc-pvtz', properties = ['dipole'])
--------------------------------------------------------------------------

    Molecular point group: c1
  Charge       = 0
  Multiplicity = 1
  Basis Set: AUG-CC-PVTZ
    Blend: AUG-CC-PVTZ
  Basis Set: (AUG-CC-PVTZ AUX)
    Blend: AUG-CC-PVTZ-JKFIT

    Orbital Energies [Eh]
    ---------------------

    Doubly Occupied:

       1A    -20.562271     2A    -20.551774     3A    -15.546178
       4A    -11.288429     5A    -11.272079     6A    -11.256637
       7A    -11.226034     8A    -11.220050     9A    -11.217779
      10A     -1.362871    11A     -1.350228    12A     -1.192458
      13A     -1.087310    14A     -0.995724    15A     -0.986033
      16A     -0.839494    17A     -0.822836    18A     -0.769568
      19A     -0.694677    20A     -0.678192    21A     -0.654446
      22A     -0.641418    23A     -0.625975    24A     -0.611238
      25A     -0.592154    26A     -0.563426    27A     -0.548742
      28A     -0.530480    29A     -0.526728    30A     -0.499633
      31A     -0.490502    32A     -0.475934    33A     -0.453791
      34A     -0.443860    35A     -0.419948    36A     -0.395413

  @DF-RHF Final Energy:  -439.10885445663121

   => Energetics <=

    Nuclear Repulsion Energy =            506.7718274387630117
    One-Electron Energy =               -1604.9727466581375666
    Two-Electron Energy =                 659.0920647627433482
    Total Energy =                       -439.1088544566312066
  Basis Set: (AUG-CC-PVTZ AUX)
    Blend: AUG-CC-PVTZ-RI
    Molecular point group: c1

    Geometry (in Angstrom), charge = 0, multiplicity = 1:

       Center              X                  Y                   Z               Mass
    ------------   -----------------  -----------------  -----------------  -----------------
         O           -0.115811193586     2.063108785196    -0.900550542037    15.994914619570
         O           -2.384579193586    -1.374788214804    -0.108939542037    15.994914619570
         N            2.491246806414    -1.272914214804     0.078968457963    14.003074004430
         C            1.303292806414    -0.480216214804    -0.266347542037    12.000000000000
         C            1.245842806414     0.743399785196     0.642987457963    12.000000000000
         C            0.058147806414    -1.338277214804    -0.063946542037    12.000000000000
         C           -0.036280193586     1.547460785196     0.437863457963    12.000000000000
         C           -1.227616193586    -0.550511214804    -0.289172542037    12.000000000000
         C           -1.272079193586     0.676551785196     0.616017457963    12.000000000000
         H            1.310451806414    -0.128464214804    -1.311212542037     1.007825032230
         H            1.311856806414     0.404440785196     1.684879457963     1.007825032230
         H            2.119382806414     1.389081785196     0.466024457963     1.007825032230
         H            0.070944806414    -2.207356214804    -0.733837542037     1.007825032230
         H            0.075793806414    -1.722611214804     0.966893457963     1.007825032230
         H           -0.068831693586     2.394557485196     1.171983257963     1.007825032230
         H           -1.284456193586    -0.224683214804    -1.331660542037     1.007825032230
         H           -1.324891193586     0.345677785196     1.663444457963     1.007825032230
         H           -2.172823193586     1.260964785196     0.404041457963     1.007825032230
         H            3.329790806414    -0.723290214804    -0.114079542037     1.007825032230
         H            2.542625806414    -2.082268214804    -0.541170542037     1.007825032230
         H            0.662342806414     2.631645785196    -1.037886542037     1.007825032230
         H           -2.352483193586    -1.700664214804     0.808267457963     1.007825032230

  Basis Set: AUG-CC-PVTZ
    Blend: AUG-CC-PVTZ
  Basis Set: (AUG-CC-PVTZ AUX)
    Blend: AUG-CC-PVTZ-JKFIT
	 Reference Energy          =    -439.1088544566312066 [Eh]
	 Singles Energy            =      -0.0000000000000000 [Eh]
	 Same-Spin Energy          =      -0.4515465867194071 [Eh]
	 Opposite-Spin Energy      =      -1.4734493166947107 [Eh]
	 Correlation Energy        =      -1.9249959034141177 [Eh]
	 Total Energy              =    -441.0338503600453350 [Eh]

	 ================> DF-SCS-MP2 Energies <==================
	-----------------------------------------------------------
	 SCS Same-Spin Scale       =       0.3333333333333333 [-]
	 SCS Opposite-Spin Scale   =       1.2000000000000000 [-]
	 SCS Same-Spin Energy      =      -0.1505155289064690 [Eh]
	 SCS Opposite-Spin Energy  =      -1.7681391800336528 [Eh]
	 SCS Correlation Energy    =      -1.9186547089401218 [Eh]
	 SCS Total Energy          =    -441.0275091655713027 [Eh]
	-----------------------------------------------------------

  Dipole Moment: [D]
     X:     2.5381      Y:     1.1128      Z:     0.7301     Total:     2.8659

*** Psi4 exiting successfully. Buy a developer a beer!
