                               Psi4 1.4a3.dev225

  ==> Input File <==

--------------------------------------------------------------------------
#psi4
#
memory 32 gb

molecule  {
0 1
  O       -0.1447520     2.0657680    -0.9147710
  O       -2.4135200    -1.3721290    -0.1231600
  N        2.4623060    -1.2702550     0.0647480
  C        1.2743520    -0.4775570    -0.2805680
  C        1.2169020     0.7460590     0.6287670
  C        0.0292070    -1.3356180    -0.0781670
  C       -0.0652210     1.5501200     0.4236430
  C       -1.2565570    -0.5478520    -0.3033930
  C       -1.3010200     0.6792110     0.6017970
  H        1.2815110    -0.1258050    -1.3254330
  H        1.2829160     0.4071000     1.6706590
  H        2.0904420     1.3917410     0.4518040
  H        0.0443363    -2.3630904    -0.8701485
  H        0.0468530    -1.7199520     0.9526730
  H       -0.0971920     2.3821090     1.1446700
  H       -1.3133970    -0.2220240    -1.3458810
  H       -1.3538320     0.3483370     1.6492240
  H       -2.2017640     1.2636240     0.3898210
  H        3.3008500    -0.7206310    -0.1283000
  H        2.5136850    -2.0796090    -0.5553910
  H        0.6334020     2.6343050    -1.0521070
  H       -2.3814240    -1.6980050     0.7940470
units angstrom
no_reorient  #important for SAPT in psi4, default
symmetry c1  #important for SAPT in psi4, default
}

set PROPERTIES_ORIGIN ["COM"]
properties('MP2/aug-cc-pvtz', properties = ['dipole'])
--------------------------------------------------------------------------

    Molecular point group: c1
  Charge       = 0
  Multiplicity = 1
  Basis Set: AUG-CC-PVTZ
    Blend: AUG-CC-PVTZ
  Basis Set: (AUG-CC-PVTZ AUX)
    Blend: AUG-CC-PVTZ-JKFIT

    Orbital Energies [Eh]
    ---------------------

    Doubly Occupied:

       1A    -20.563136     2A    -20.552012     3A    -15.546002
       4A    -11.287563     5A    -11.274380     6A    -11.258758
       7A    -11.240607     8A    -11.228032     9A    -11.222271
      10A     -1.363949    11A     -1.350547    12A     -1.192479
      13A     -1.088506    14A     -0.993306    15A     -0.985320
      16A     -0.836879    17A     -0.822528    18A     -0.770315
      19A     -0.696651    20A     -0.678841    21A     -0.655094
      22A     -0.631958    23A     -0.624555    24A     -0.612786
      25A     -0.593029    26A     -0.562045    27A     -0.544944
      28A     -0.530798    29A     -0.525544    30A     -0.499723
      31A     -0.483813    32A     -0.472921    33A     -0.454545
      34A     -0.444167    35A     -0.418267    36A     -0.395684

  @DF-RHF Final Energy:  -439.08956228307744

   => Energetics <=

    Nuclear Repulsion Energy =            505.9011015367510140
    One-Electron Energy =               -1603.1774172281075153
    Two-Electron Energy =                 658.1867534082790598
    Total Energy =                       -439.0895622830774983
  Basis Set: (AUG-CC-PVTZ AUX)
    Blend: AUG-CC-PVTZ-RI
    Molecular point group: c1

    Geometry (in Angstrom), charge = 0, multiplicity = 1:

       Center              X                  Y                   Z               Mass
    ------------   -----------------  -----------------  -----------------  -----------------
         O           -0.115833586515     2.064442621323    -0.899511284250    15.994914619570
         O           -2.384601586515    -1.373454378677    -0.107900284250    15.994914619570
         N            2.491224413485    -1.271580378677     0.080007715750    14.003074004430
         C            1.303270413485    -0.478882378677    -0.265308284250    12.000000000000
         C            1.245820413485     0.744733621323     0.644026715750    12.000000000000
         C            0.058125413485    -1.336943378677    -0.062907284250    12.000000000000
         C           -0.036302586515     1.548794621323     0.438902715750    12.000000000000
         C           -1.227638586515    -0.549177378677    -0.288133284250    12.000000000000
         C           -1.272101586515     0.677885621323     0.617056715750    12.000000000000
         H            1.310429413485    -0.127130378677    -1.310173284250     1.007825032230
         H            1.311834413485     0.405774621323     1.685918715750     1.007825032230
         H            2.119360413485     1.390415621323     0.467063715750     1.007825032230
         H            0.073254713485    -2.364415778677    -0.854888784250     1.007825032230
         H            0.075771413485    -1.721277378677     0.967932715750     1.007825032230
         H           -0.068273586515     2.380783621323     1.159929715750     1.007825032230
         H           -1.284478586515    -0.223349378677    -1.330621284250     1.007825032230
         H           -1.324913586515     0.347011621323     1.664483715750     1.007825032230
         H           -2.172845586515     1.262298621323     0.405080715750     1.007825032230
         H            3.329768413485    -0.721956378677    -0.113040284250     1.007825032230
         H            2.542603413485    -2.080934378677    -0.540131284250     1.007825032230
         H            0.662320413485     2.632979621323    -1.036847284250     1.007825032230
         H           -2.352505586515    -1.699330378677     0.809306715750     1.007825032230

  Basis Set: AUG-CC-PVTZ
    Blend: AUG-CC-PVTZ
  Basis Set: (AUG-CC-PVTZ AUX)
    Blend: AUG-CC-PVTZ-JKFIT
	 Reference Energy          =    -439.0895622830774414 [Eh]
	 Singles Energy            =      -0.0000000000000000 [Eh]
	 Same-Spin Energy          =      -0.4516934357078978 [Eh]
	 Opposite-Spin Energy      =      -1.4750208170171168 [Eh]
	 Correlation Energy        =      -1.9267142527250147 [Eh]
	 Total Energy              =    -441.0162765358024330 [Eh]

	 ================> DF-SCS-MP2 Energies <==================
	-----------------------------------------------------------
	 SCS Same-Spin Scale       =       0.3333333333333333 [-]
	 SCS Opposite-Spin Scale   =       1.2000000000000000 [-]
	 SCS Same-Spin Energy      =      -0.1505644785692992 [Eh]
	 SCS Opposite-Spin Energy  =      -1.7700249804205401 [Eh]
	 SCS Correlation Energy    =      -1.9205894589898393 [Eh]
	 SCS Total Energy          =    -441.0101517420673076 [Eh]
	-----------------------------------------------------------

  Dipole Moment: [D]
     X:     2.5174      Y:     1.2998      Z:     0.8271     Total:     2.9514

*** Psi4 exiting successfully. Buy a developer a beer!
