                               Psi4 1.4a3.dev225

  ==> Input File <==

--------------------------------------------------------------------------
#psi4
#
memory 32 gb

molecule  {
0 1
  O       -0.1447520     2.0657680    -0.9147710
  O       -2.4135200    -1.3721290    -0.1231600
  N        2.4623060    -1.2702550     0.0647480
  C        1.2743520    -0.4775570    -0.2805680
  C        1.2169020     0.7460590     0.6287670
  C        0.0292070    -1.3356180    -0.0781670
  C       -0.0652210     1.5501200     0.4236430
  C       -1.2565570    -0.5478520    -0.3033930
  C       -1.3010200     0.6792110     0.6017970
  H        1.2815110    -0.1258050    -1.3254330
  H        1.2829160     0.4071000     1.6706590
  H        2.0904420     1.3917410     0.4518040
  H        0.0420040    -2.2046970    -0.7480580
  H        0.0468530    -1.7199520     0.9526730
  H       -0.0971920     2.3821090     1.1446700
  H       -1.3133970    -0.2220240    -1.3458810
  H       -1.3538320     0.3483370     1.6492240
  H       -2.2017640     1.2636240     0.3898210
  H        3.2187230    -0.7744611    -0.1093929
  H        2.5136850    -2.0796090    -0.5553910
  H        0.6334020     2.6343050    -1.0521070
  H       -2.3814240    -1.6980050     0.7940470
units angstrom
no_reorient  #important for SAPT in psi4, default
symmetry c1  #important for SAPT in psi4, default
}

set PROPERTIES_ORIGIN ["COM"]
properties('MP2/aug-cc-pvtz', properties = ['dipole'])
--------------------------------------------------------------------------

    Molecular point group: c1
  Charge       = 0
  Multiplicity = 1
  Basis Set: AUG-CC-PVTZ
    Blend: AUG-CC-PVTZ
  Basis Set: (AUG-CC-PVTZ AUX)
    Blend: AUG-CC-PVTZ-JKFIT

    Orbital Energies [Eh]
    ---------------------

    Doubly Occupied:

       1A    -20.561958     2A    -20.551462     3A    -15.534071
       4A    -11.286042     5A    -11.271658     6A    -11.256386
       7A    -11.226066     8A    -11.219826     9A    -11.217296
      10A     -1.362731    11A     -1.349937    12A     -1.204964
      13A     -1.091089    14A     -0.996351    15A     -0.989692
      16A     -0.840645    17A     -0.825984    18A     -0.770006
      19A     -0.699114    20A     -0.679071    21A     -0.665359
      22A     -0.641601    23A     -0.629479    24A     -0.612405
      25A     -0.593451    26A     -0.565427    27A     -0.549903
      28A     -0.530492    29A     -0.526968    30A     -0.499979
      31A     -0.490565    32A     -0.475993    33A     -0.453730
      34A     -0.444677    35A     -0.420504    36A     -0.396582

  @DF-RHF Final Energy:  -439.10323072693939

   => Energetics <=

    Nuclear Repulsion Energy =            507.4623441203105472
    One-Electron Energy =               -1606.2682214121166453
    Two-Electron Energy =                 659.7026465648667681
    Total Energy =                       -439.1032307269393868
  Basis Set: (AUG-CC-PVTZ AUX)
    Blend: AUG-CC-PVTZ-RI
    Molecular point group: c1

    Geometry (in Angstrom), charge = 0, multiplicity = 1:

       Center              X                  Y                   Z               Mass
    ------------   -----------------  -----------------  -----------------  -----------------
         O           -0.115184283049     2.063638762978    -0.900595241024    15.994914619570
         O           -2.383952283049    -1.374258237022    -0.108984241024    15.994914619570
         N            2.491873716951    -1.272384237022     0.078923758976    14.003074004430
         C            1.303919716951    -0.479686237022    -0.266392241024    12.000000000000
         C            1.246469716951     0.743929762978     0.642942758976    12.000000000000
         C            0.058774716951    -1.337747237022    -0.063991241024    12.000000000000
         C           -0.035653283049     1.547990762978     0.437818758976    12.000000000000
         C           -1.226989283049    -0.549981237022    -0.289217241024    12.000000000000
         C           -1.271452283049     0.677081762978     0.615972758976    12.000000000000
         H            1.311078716951    -0.127934237022    -1.311257241024     1.007825032230
         H            1.312483716951     0.404970762978     1.684834758976     1.007825032230
         H            2.120009716951     1.389611762978     0.465979758976     1.007825032230
         H            0.071571716951    -2.206826237022    -0.733882241024     1.007825032230
         H            0.076420716951    -1.722081237022     0.966848758976     1.007825032230
         H           -0.067624283049     2.379979762978     1.158845758976     1.007825032230
         H           -1.283829283049    -0.224153237022    -1.331705241024     1.007825032230
         H           -1.324264283049     0.346207762978     1.663399758976     1.007825032230
         H           -2.172196283049     1.261494762978     0.403996758976     1.007825032230
         H            3.248290716951    -0.776590337022    -0.095217141024     1.007825032230
         H            2.543252716951    -2.081738237022    -0.541215241024     1.007825032230
         H            0.662969716951     2.632175762978    -1.037931241024     1.007825032230
         H           -2.351856283049    -1.700134237022     0.808222758976     1.007825032230

  Basis Set: AUG-CC-PVTZ
    Blend: AUG-CC-PVTZ
  Basis Set: (AUG-CC-PVTZ AUX)
    Blend: AUG-CC-PVTZ-JKFIT
	 Reference Energy          =    -439.1032307269393868 [Eh]
	 Singles Energy            =      -0.0000000000000000 [Eh]
	 Same-Spin Energy          =      -0.4509931914407673 [Eh]
	 Opposite-Spin Energy      =      -1.4716615563506754 [Eh]
	 Correlation Energy        =      -1.9226547477914426 [Eh]
	 Total Energy              =    -441.0258854747308419 [Eh]

	 ================> DF-SCS-MP2 Energies <==================
	-----------------------------------------------------------
	 SCS Same-Spin Scale       =       0.3333333333333333 [-]
	 SCS Opposite-Spin Scale   =       1.2000000000000000 [-]
	 SCS Same-Spin Energy      =      -0.1503310638135891 [Eh]
	 SCS Opposite-Spin Energy  =      -1.7659938676208105 [Eh]
	 SCS Correlation Energy    =      -1.9163249314343995 [Eh]
	 SCS Total Energy          =    -441.0195556583738039 [Eh]
	-----------------------------------------------------------

  Dipole Moment: [D]
     X:     2.5404      Y:     1.1143      Z:     0.7387     Total:     2.8707

*** Psi4 exiting successfully. Buy a developer a beer!
