                               Psi4 1.4a3.dev225

  ==> Input File <==

--------------------------------------------------------------------------
#psi4
#
memory 32 gb

molecule  {
0 1
  O       -0.1447520     2.0657680    -0.9147710
  O       -2.4135200    -1.3721290    -0.1231600
  N        2.4623060    -1.2702550     0.0647480
  C        1.2743520    -0.4775570    -0.2805680
  C        1.2169020     0.7460590     0.6287670
  C        0.0292070    -1.3356180    -0.0781670
  C       -0.0652210     1.5501200     0.4236430
  C       -1.2554783    -0.5318483    -0.3246428
  C       -1.3010200     0.6792110     0.6017970
  H        1.2815110    -0.1258050    -1.3254330
  H        1.2829160     0.4071000     1.6706590
  H        2.0904420     1.3917410     0.4518040
  H        0.0420040    -2.2046970    -0.7480580
  H        0.0468530    -1.7199520     0.9526730
  H       -0.0971920     2.3821090     1.1446700
  H       -1.3133970    -0.2220240    -1.3458810
  H       -1.3538320     0.3483370     1.6492240
  H       -2.2017640     1.2636240     0.3898210
  H        3.3008500    -0.7206310    -0.1283000
  H        2.5136850    -2.0796090    -0.5553910
  H        0.6334020     2.6343050    -1.0521070
  H       -2.3814240    -1.6980050     0.7940470
units angstrom
no_reorient  #important for SAPT in psi4, default
symmetry c1  #important for SAPT in psi4, default
}

set PROPERTIES_ORIGIN ["COM"]
properties('MP2/aug-cc-pvtz', properties = ['dipole'])
--------------------------------------------------------------------------

    Molecular point group: c1
  Charge       = 0
  Multiplicity = 1
  Basis Set: AUG-CC-PVTZ
    Blend: AUG-CC-PVTZ
  Basis Set: (AUG-CC-PVTZ AUX)
    Blend: AUG-CC-PVTZ-JKFIT

    Orbital Energies [Eh]
    ---------------------

    Doubly Occupied:

       1A    -20.562293     2A    -20.549243     3A    -15.545905
       4A    -11.285918     5A    -11.271575     6A    -11.256139
       7A    -11.225851     8A    -11.220245     9A    -11.218113
      10A     -1.362927    11A     -1.344189    12A     -1.192147
      13A     -1.087268    14A     -0.995287    15A     -0.986203
      16A     -0.841744    17A     -0.822816    18A     -0.770427
      19A     -0.695589    20A     -0.677491    21A     -0.654119
      22A     -0.641219    23A     -0.624755    24A     -0.612617
      25A     -0.591068    26A     -0.563494    27A     -0.546627
      28A     -0.527844    29A     -0.527028    30A     -0.502230
      31A     -0.490240    32A     -0.480065    33A     -0.453265
      34A     -0.443508    35A     -0.419688    36A     -0.395174

  @DF-RHF Final Energy:  -439.10880192054890

   => Energetics <=

    Nuclear Repulsion Energy =            506.7536946492188576
    One-Electron Energy =               -1604.9563716250952439
    Two-Electron Energy =                 659.0938750553274303
    Total Energy =                       -439.1088019205488990
  Basis Set: (AUG-CC-PVTZ AUX)
    Blend: AUG-CC-PVTZ-RI
    Molecular point group: c1

    Geometry (in Angstrom), charge = 0, multiplicity = 1:

       Center              X                  Y                   Z               Mass
    ------------   -----------------  -----------------  -----------------  -----------------
         O           -0.115914397222     2.061760000097    -0.898504746155    15.994914619570
         O           -2.384682397222    -1.376136999903    -0.106893746155    15.994914619570
         N            2.491143602778    -1.274262999903     0.081014253845    14.003074004430
         C            1.303189602778    -0.481564999903    -0.264301746155    12.000000000000
         C            1.245739602778     0.742051000097     0.645033253845    12.000000000000
         C            0.058044602778    -1.339625999903    -0.061900746155    12.000000000000
         C           -0.036383397222     1.546112000097     0.439909253845    12.000000000000
         C           -1.226640697222    -0.535856299903    -0.308376546155    12.000000000000
         C           -1.272182397222     0.675203000097     0.618063253845    12.000000000000
         H            1.310348602778    -0.129812999903    -1.309166746155     1.007825032230
         H            1.311753602778     0.403092000097     1.686925253845     1.007825032230
         H            2.119279602778     1.387733000097     0.468070253845     1.007825032230
         H            0.070841602778    -2.208704999903    -0.731791746155     1.007825032230
         H            0.075690602778    -1.723959999903     0.968939253845     1.007825032230
         H           -0.068354397222     2.378101000097     1.160936253845     1.007825032230
         H           -1.284559397222    -0.226031999903    -1.329614746155     1.007825032230
         H           -1.324994397222     0.344329000097     1.665490253845     1.007825032230
         H           -2.172926397222     1.259616000097     0.406087253845     1.007825032230
         H            3.329687602778    -0.724638999903    -0.112033746155     1.007825032230
         H            2.542522602778    -2.083616999903    -0.539124746155     1.007825032230
         H            0.662239602778     2.630297000097    -1.035840746155     1.007825032230
         H           -2.352586397222    -1.702012999903     0.810313253845     1.007825032230

  Basis Set: AUG-CC-PVTZ
    Blend: AUG-CC-PVTZ
  Basis Set: (AUG-CC-PVTZ AUX)
    Blend: AUG-CC-PVTZ-JKFIT
	 Reference Energy          =    -439.1088019205488990 [Eh]
	 Singles Energy            =      -0.0000000000000000 [Eh]
	 Same-Spin Energy          =      -0.4513936929624737 [Eh]
	 Opposite-Spin Energy      =      -1.4732581885197449 [Eh]
	 Correlation Energy        =      -1.9246518814822187 [Eh]
	 Total Energy              =    -441.0334538020310902 [Eh]

	 ================> DF-SCS-MP2 Energies <==================
	-----------------------------------------------------------
	 SCS Same-Spin Scale       =       0.3333333333333333 [-]
	 SCS Opposite-Spin Scale   =       1.2000000000000000 [-]
	 SCS Same-Spin Energy      =      -0.1504645643208246 [Eh]
	 SCS Opposite-Spin Energy  =      -1.7679098262236939 [Eh]
	 SCS Correlation Energy    =      -1.9183743905445183 [Eh]
	 SCS Total Energy          =    -441.0271763110933989 [Eh]
	-----------------------------------------------------------

  Dipole Moment: [D]
     X:     2.5611      Y:     1.1658      Z:     0.7274     Total:     2.9064

*** Psi4 exiting successfully. Buy a developer a beer!
