                               Psi4 1.4a3.dev225

  ==> Input File <==

--------------------------------------------------------------------------
#psi4
#
memory 32 gb

molecule  {
0 1
  O       -0.1447520     2.0657680    -0.9147710
  O       -2.4135200    -1.3721290    -0.1231600
  N        2.4623060    -1.2702550     0.0647480
  C        1.2743520    -0.4775570    -0.2805680
  C        1.2169020     0.7460590     0.6287670
  C        0.0292070    -1.3356180    -0.0781670
  C       -0.0652210     1.5501200     0.4236430
  C       -1.3039326    -0.5256958    -0.4438570
  C       -1.3010200     0.6792110     0.6017970
  H        1.2815110    -0.1258050    -1.3254330
  H        1.2829160     0.4071000     1.6706590
  H        2.0904420     1.3917410     0.4518040
  H        0.0420040    -2.2046970    -0.7480580
  H        0.0468530    -1.7199520     0.9526730
  H       -0.0971920     2.3821090     1.1446700
  H       -1.3133970    -0.2220240    -1.3458810
  H       -1.3538320     0.3483370     1.6492240
  H       -2.2017640     1.2636240     0.3898210
  H        3.3008500    -0.7206310    -0.1283000
  H        2.5136850    -2.0796090    -0.5553910
  H        0.6334020     2.6343050    -1.0521070
  H       -2.3814240    -1.6980050     0.7940470
units angstrom
no_reorient  #important for SAPT in psi4, default
symmetry c1  #important for SAPT in psi4, default
}

set PROPERTIES_ORIGIN ["COM"]
properties('MP2/aug-cc-pvtz', properties = ['dipole'])
--------------------------------------------------------------------------

    Molecular point group: c1
  Charge       = 0
  Multiplicity = 1
  Basis Set: AUG-CC-PVTZ
    Blend: AUG-CC-PVTZ
  Basis Set: (AUG-CC-PVTZ AUX)
    Blend: AUG-CC-PVTZ-JKFIT

    Orbital Energies [Eh]
    ---------------------

    Doubly Occupied:

       1A    -20.561987     2A    -20.548174     3A    -15.544572
       4A    -11.283772     5A    -11.272306     6A    -11.254149
       7A    -11.224163     8A    -11.221153     9A    -11.219255
      10A     -1.362265    11A     -1.345472    12A     -1.190071
      13A     -1.078511    14A     -0.990025    15A     -0.979963
      16A     -0.855960    17A     -0.819516    18A     -0.772222
      19A     -0.694672    20A     -0.674842    21A     -0.652429
      22A     -0.639453    23A     -0.635531    24A     -0.617235
      25A     -0.591316    26A     -0.564040    27A     -0.542277
      28A     -0.526439    29A     -0.525587    30A     -0.505471
      31A     -0.491503    32A     -0.483224    33A     -0.450952
      34A     -0.440914    35A     -0.402225    36A     -0.389257

  @DF-RHF Final Energy:  -439.08136165068174

   => Energetics <=

    Nuclear Repulsion Energy =            505.3871981234037207
    One-Electron Energy =               -1602.2353145383924584
    Two-Electron Energy =                 657.7667547643069383
    Total Energy =                       -439.0813616506817425
  Basis Set: (AUG-CC-PVTZ AUX)
    Blend: AUG-CC-PVTZ-RI
    Molecular point group: c1

    Geometry (in Angstrom), charge = 0, multiplicity = 1:

       Center              X                  Y                   Z               Mass
    ------------   -----------------  -----------------  -----------------  -----------------
         O           -0.111479039299     2.061196819128    -0.887592244135    15.994914619570
         O           -2.380247039299    -1.376700180872    -0.095981244135    15.994914619570
         N            2.495578960701    -1.274826180872     0.091926755865    14.003074004430
         C            1.307624960701    -0.482128180872    -0.253389244135    12.000000000000
         C            1.250174960701     0.741487819128     0.655945755865    12.000000000000
         C            0.062479960701    -1.340189180872    -0.050988244135    12.000000000000
         C           -0.031948039299     1.545548819128     0.450821755865    12.000000000000
         C           -1.270659639299    -0.530266980872    -0.416678244135    12.000000000000
         C           -1.267747039299     0.674639819128     0.628975755865    12.000000000000
         H            1.314783960701    -0.130376180872    -1.298254244135     1.007825032230
         H            1.316188960701     0.402528819128     1.697837755865     1.007825032230
         H            2.123714960701     1.387169819128     0.478982755865     1.007825032230
         H            0.075276960701    -2.209268180872    -0.720879244135     1.007825032230
         H            0.080125960701    -1.724523180872     0.979851755865     1.007825032230
         H           -0.063919039299     2.377537819128     1.171848755865     1.007825032230
         H           -1.280124039299    -0.226595180872    -1.318702244135     1.007825032230
         H           -1.320559039299     0.343765819128     1.676402755865     1.007825032230
         H           -2.168491039299     1.259052819128     0.416999755865     1.007825032230
         H            3.334122960701    -0.725202180872    -0.101121244135     1.007825032230
         H            2.546957960701    -2.084180180872    -0.528212244135     1.007825032230
         H            0.666674960701     2.629733819128    -1.024928244135     1.007825032230
         H           -2.348151039299    -1.702576180872     0.821225755865     1.007825032230

  Basis Set: AUG-CC-PVTZ
    Blend: AUG-CC-PVTZ
  Basis Set: (AUG-CC-PVTZ AUX)
    Blend: AUG-CC-PVTZ-JKFIT
	 Reference Energy          =    -439.0813616506817425 [Eh]
	 Singles Energy            =      -0.0000000000000000 [Eh]
	 Same-Spin Energy          =      -0.4507744963688050 [Eh]
	 Opposite-Spin Energy      =      -1.4731395168376025 [Eh]
	 Correlation Energy        =      -1.9239140132064074 [Eh]
	 Total Energy              =    -441.0052756638881419 [Eh]

	 ================> DF-SCS-MP2 Energies <==================
	-----------------------------------------------------------
	 SCS Same-Spin Scale       =       0.3333333333333333 [-]
	 SCS Opposite-Spin Scale   =       1.2000000000000000 [-]
	 SCS Same-Spin Energy      =      -0.1502581654562683 [Eh]
	 SCS Opposite-Spin Energy  =      -1.7677674202051230 [Eh]
	 SCS Correlation Energy    =      -1.9180255856613913 [Eh]
	 SCS Total Energy          =    -440.9993872363431251 [Eh]
	-----------------------------------------------------------

  Dipole Moment: [D]
     X:     2.4247      Y:     1.1165      Z:     0.6317     Total:     2.7432

*** Psi4 exiting successfully. Buy a developer a beer!
