                               Psi4 1.4a3.dev225

  ==> Input File <==

--------------------------------------------------------------------------
#psi4
#
memory 32 gb

molecule  {
0 1
  O       -0.1447520     2.0657680    -0.9147710
  O       -2.4135200    -1.3721290    -0.1231600
  N        2.4623060    -1.2702550     0.0647480
  C        1.2743520    -0.4775570    -0.2805680
  C        1.2169020     0.7460590     0.6287670
  C        0.0292070    -1.3356180    -0.0781670
  C       -0.0652210     1.5501200     0.4236430
  C       -1.2565570    -0.5478520    -0.3033930
  C       -1.3010200     0.6792110     0.6017970
  H        1.2815110    -0.1258050    -1.3254330
  H        1.2829160     0.4071000     1.6706590
  H        2.0904420     1.3917410     0.4518040
  H        0.0420040    -2.2046970    -0.7480580
  H        0.0468530    -1.7199520     0.9526730
  H       -0.0971920     2.3821090     1.1446700
  H       -1.3133970    -0.2220240    -1.3458810
  H       -1.3538320     0.3483370     1.6492240
  H       -2.2017640     1.2636240     0.3898210
  H        3.3008500    -0.7206310    -0.1283000
  H        2.5237503    -2.2381637    -0.6768780
  H        0.6334020     2.6343050    -1.0521070
  H       -2.3814240    -1.6980050     0.7940470
units angstrom
no_reorient  #important for SAPT in psi4, default
symmetry c1  #important for SAPT in psi4, default
}

set PROPERTIES_ORIGIN ["COM"]
properties('MP2/aug-cc-pvtz', properties = ['dipole'])
--------------------------------------------------------------------------

    Molecular point group: c1
  Charge       = 0
  Multiplicity = 1
  Basis Set: AUG-CC-PVTZ
    Blend: AUG-CC-PVTZ
  Basis Set: (AUG-CC-PVTZ AUX)
    Blend: AUG-CC-PVTZ-JKFIT

    Orbital Energies [Eh]
    ---------------------

    Doubly Occupied:

       1A    -20.562440     2A    -20.551638     3A    -15.566396
       4A    -11.286952     5A    -11.271854     6A    -11.257377
       7A    -11.227387     8A    -11.220172     9A    -11.217288
      10A     -1.363217    11A     -1.350110    12A     -1.179371
      13A     -1.082487    14A     -0.996431    15A     -0.980594
      16A     -0.840235    17A     -0.819967    18A     -0.769558
      19A     -0.696386    20A     -0.677284    21A     -0.645298
      22A     -0.631127    23A     -0.621616    24A     -0.611805
      25A     -0.587247    26A     -0.560059    27A     -0.539549
      28A     -0.530706    29A     -0.525906    30A     -0.499971
      31A     -0.490526    32A     -0.473846    33A     -0.454010
      34A     -0.443504    35A     -0.420361    36A     -0.393536

  @DF-RHF Final Energy:  -439.08160711753590

   => Energetics <=

    Nuclear Repulsion Energy =            505.9398396387088610
    One-Electron Energy =               -1603.3504723354817543
    Two-Electron Energy =                 658.3290255792369408
    Total Energy =                       -439.0816071175358957
  Basis Set: (AUG-CC-PVTZ AUX)
    Blend: AUG-CC-PVTZ-RI
    Molecular point group: c1

    Geometry (in Angstrom), charge = 0, multiplicity = 1:

       Center              X                  Y                   Z               Mass
    ------------   -----------------  -----------------  -----------------  -----------------
         O           -0.115893036022     2.064443861360    -0.899515923818    15.994914619570
         O           -2.384661036022    -1.373453138640    -0.107904923818    15.994914619570
         N            2.491164963978    -1.271579138640     0.080003076182    14.003074004430
         C            1.303210963978    -0.478881138640    -0.265312923818    12.000000000000
         C            1.245760963978     0.744734861360     0.644022076182    12.000000000000
         C            0.058065963978    -1.336942138640    -0.062911923818    12.000000000000
         C           -0.036362036022     1.548795861360     0.438898076182    12.000000000000
         C           -1.227698036022    -0.549176138640    -0.288137923818    12.000000000000
         C           -1.272161036022     0.677886861360     0.617052076182    12.000000000000
         H            1.310369963978    -0.127129138640    -1.310177923818     1.007825032230
         H            1.311774963978     0.405775861360     1.685914076182     1.007825032230
         H            2.119300963978     1.390416861360     0.467059076182     1.007825032230
         H            0.070862963978    -2.206021138640    -0.732802923818     1.007825032230
         H            0.075711963978    -1.721276138640     0.967928076182     1.007825032230
         H           -0.068333036022     2.380784861360     1.159925076182     1.007825032230
         H           -1.284538036022    -0.223348138640    -1.330625923818     1.007825032230
         H           -1.324973036022     0.347012861360     1.664479076182     1.007825032230
         H           -2.172905036022     1.262299861360     0.405076076182     1.007825032230
         H            3.329708963978    -0.721955138640    -0.113044923818     1.007825032230
         H            2.552609263978    -2.239487838640    -0.661622923818     1.007825032230
         H            0.662260963978     2.632980861360    -1.036851923818     1.007825032230
         H           -2.352565036022    -1.699329138640     0.809302076182     1.007825032230

  Basis Set: AUG-CC-PVTZ
    Blend: AUG-CC-PVTZ
  Basis Set: (AUG-CC-PVTZ AUX)
    Blend: AUG-CC-PVTZ-JKFIT
	 Reference Energy          =    -439.0816071175358957 [Eh]
	 Singles Energy            =      -0.0000000000000000 [Eh]
	 Same-Spin Energy          =      -0.4525172421764135 [Eh]
	 Opposite-Spin Energy      =      -1.4772959569916271 [Eh]
	 Correlation Energy        =      -1.9298131991680405 [Eh]
	 Total Energy              =    -441.0114203167039477 [Eh]

	 ================> DF-SCS-MP2 Energies <==================
	-----------------------------------------------------------
	 SCS Same-Spin Scale       =       0.3333333333333333 [-]
	 SCS Opposite-Spin Scale   =       1.2000000000000000 [-]
	 SCS Same-Spin Energy      =      -0.1508390807254712 [Eh]
	 SCS Opposite-Spin Energy  =      -1.7727551483899524 [Eh]
	 SCS Correlation Energy    =      -1.9235942291154235 [Eh]
	 SCS Total Energy          =    -441.0052013466513472 [Eh]
	-----------------------------------------------------------

  Dipole Moment: [D]
     X:     2.4893      Y:     1.1536      Z:     0.7560     Total:     2.8459

*** Psi4 exiting successfully. Buy a developer a beer!
