                               Psi4 1.4a3.dev225

  ==> Input File <==

--------------------------------------------------------------------------
#psi4
#
memory 32 gb

molecule  {
0 1
  O       -0.1447520     2.0657680    -0.9147710
  O       -2.4135200    -1.3721290    -0.1231600
  N        2.4836237    -1.2003371     0.1366836
  C        1.2743520    -0.4775570    -0.2805680
  C        1.2169020     0.7460590     0.6287670
  C        0.0292070    -1.3356180    -0.0781670
  C       -0.0652210     1.5501200     0.4236430
  C       -1.2565570    -0.5478520    -0.3033930
  C       -1.3010200     0.6792110     0.6017970
  H        1.2815110    -0.1258050    -1.3254330
  H        1.2829160     0.4071000     1.6706590
  H        2.0904420     1.3917410     0.4518040
  H        0.0420040    -2.2046970    -0.7480580
  H        0.0468530    -1.7199520     0.9526730
  H       -0.0971920     2.3821090     1.1446700
  H       -1.3133970    -0.2220240    -1.3458810
  H       -1.3538320     0.3483370     1.6492240
  H       -2.2017640     1.2636240     0.3898210
  H        3.3008500    -0.7206310    -0.1283000
  H        2.5136850    -2.0796090    -0.5553910
  H        0.6334020     2.6343050    -1.0521070
  H       -2.3814240    -1.6980050     0.7940470
units angstrom
no_reorient  #important for SAPT in psi4, default
symmetry c1  #important for SAPT in psi4, default
}

set PROPERTIES_ORIGIN ["COM"]
properties('MP2/aug-cc-pvtz', properties = ['dipole'])
--------------------------------------------------------------------------

    Molecular point group: c1
  Charge       = 0
  Multiplicity = 1
  Basis Set: AUG-CC-PVTZ
    Blend: AUG-CC-PVTZ
  Basis Set: (AUG-CC-PVTZ AUX)
    Blend: AUG-CC-PVTZ-JKFIT

    Orbital Energies [Eh]
    ---------------------

    Doubly Occupied:

       1A    -20.561411     2A    -20.552491     3A    -15.555020
       4A    -11.284271     5A    -11.273084     6A    -11.257287
       7A    -11.223576     8A    -11.219760     9A    -11.219446
      10A     -1.362192    11A     -1.350842    12A     -1.192302
      13A     -1.086278    14A     -0.996514    15A     -0.984477
      16A     -0.840406    17A     -0.823070    18A     -0.769839
      19A     -0.696633    20A     -0.680036    21A     -0.648802
      22A     -0.634957    23A     -0.625955    24A     -0.612468
      25A     -0.590039    26A     -0.565153    27A     -0.541038
      28A     -0.530214    29A     -0.526636    30A     -0.499428
      31A     -0.489593    32A     -0.473221    33A     -0.452830
      34A     -0.445592    35A     -0.421332    36A     -0.401353

  @DF-RHF Final Energy:  -439.09709267576267

   => Energetics <=

    Nuclear Repulsion Energy =            506.9510363092940679
    One-Electron Energy =               -1605.3211682791059047
    Two-Electron Energy =                 659.2730392940491129
    Total Energy =                       -439.0970926757627240
  Basis Set: (AUG-CC-PVTZ AUX)
    Blend: AUG-CC-PVTZ-RI
    Molecular point group: c1

    Geometry (in Angstrom), charge = 0, multiplicity = 1:

       Center              X                  Y                   Z               Mass
    ------------   -----------------  -----------------  -----------------  -----------------
         O           -0.118092739185     2.055756541863    -0.908133799177    15.994914619570
         O           -2.386860739185    -1.382140458137    -0.116522799177    15.994914619570
         N            2.510282960815    -1.210348558137     0.143320800823    14.003074004430
         C            1.301011260815    -0.487568458137    -0.273930799177    12.000000000000
         C            1.243561260815     0.736047541863     0.635404200823    12.000000000000
         C            0.055866260815    -1.345629458137    -0.071529799177    12.000000000000
         C           -0.038561739185     1.540108541863     0.430280200823    12.000000000000
         C           -1.229897739185    -0.557863458137    -0.296755799177    12.000000000000
         C           -1.274360739185     0.669199541863     0.608434200823    12.000000000000
         H            1.308170260815    -0.135816458137    -1.318795799177     1.007825032230
         H            1.309575260815     0.397088541863     1.677296200823     1.007825032230
         H            2.117101260815     1.381729541863     0.458441200823     1.007825032230
         H            0.068663260815    -2.214708458137    -0.741420799177     1.007825032230
         H            0.073512260815    -1.729963458137     0.959310200823     1.007825032230
         H           -0.070532739185     2.372097541863     1.151307200823     1.007825032230
         H           -1.286737739185    -0.232035458137    -1.339243799177     1.007825032230
         H           -1.327172739185     0.338325541863     1.655861200823     1.007825032230
         H           -2.175104739185     1.253612541863     0.396458200823     1.007825032230
         H            3.327509260815    -0.730642458137    -0.121662799177     1.007825032230
         H            2.540344260815    -2.089620458137    -0.548753799177     1.007825032230
         H            0.660061260815     2.624293541863    -1.045469799177     1.007825032230
         H           -2.354764739185    -1.708016458137     0.800684200823     1.007825032230

  Basis Set: AUG-CC-PVTZ
    Blend: AUG-CC-PVTZ
  Basis Set: (AUG-CC-PVTZ AUX)
    Blend: AUG-CC-PVTZ-JKFIT
	 Reference Energy          =    -439.0970926757626671 [Eh]
	 Singles Energy            =      -0.0000000000000000 [Eh]
	 Same-Spin Energy          =      -0.4521404337986559 [Eh]
	 Opposite-Spin Energy      =      -1.4752010053645583 [Eh]
	 Correlation Energy        =      -1.9273414391632142 [Eh]
	 Total Energy              =    -441.0244341149258958 [Eh]

	 ================> DF-SCS-MP2 Energies <==================
	-----------------------------------------------------------
	 SCS Same-Spin Scale       =       0.3333333333333333 [-]
	 SCS Opposite-Spin Scale   =       1.2000000000000000 [-]
	 SCS Same-Spin Energy      =      -0.1507134779328853 [Eh]
	 SCS Opposite-Spin Energy  =      -1.7702412064374700 [Eh]
	 SCS Correlation Energy    =      -1.9209546843703553 [Eh]
	 SCS Total Energy          =    -441.0180473601330391 [Eh]
	-----------------------------------------------------------

  Dipole Moment: [D]
     X:     2.4968      Y:     1.0604      Z:     0.6429     Total:     2.7877

*** Psi4 exiting successfully. Buy a developer a beer!
