                               Psi4 1.4a3.dev225

  ==> Input File <==

--------------------------------------------------------------------------
#psi4
#
memory 32 gb

molecule  {
0 1
  O       -0.1447520     2.0657680    -0.9147710
  O       -2.4135200    -1.3721290    -0.1231600
  N        2.4623060    -1.2702550     0.0647480
  C        1.2743520    -0.4775570    -0.2805680
  C        1.2169020     0.7460590     0.6287670
  C        0.0292070    -1.3356180    -0.0781670
  C       -0.0652210     1.5501200     0.4236430
  C       -1.2565570    -0.5478520    -0.3033930
  C       -1.2198407     0.7364208     0.5900941
  H        1.2815110    -0.1258050    -1.3254330
  H        1.2829160     0.4071000     1.6706590
  H        2.0904420     1.3917410     0.4518040
  H        0.0420040    -2.2046970    -0.7480580
  H        0.0468530    -1.7199520     0.9526730
  H       -0.0971920     2.3821090     1.1446700
  H       -1.3133970    -0.2220240    -1.3458810
  H       -1.3538320     0.3483370     1.6492240
  H       -2.2017640     1.2636240     0.3898210
  H        3.3008500    -0.7206310    -0.1283000
  H        2.5136850    -2.0796090    -0.5553910
  H        0.6334020     2.6343050    -1.0521070
  H       -2.3814240    -1.6980050     0.7940470
units angstrom
no_reorient  #important for SAPT in psi4, default
symmetry c1  #important for SAPT in psi4, default
}

set PROPERTIES_ORIGIN ["COM"]
properties('MP2/aug-cc-pvtz', properties = ['dipole'])
--------------------------------------------------------------------------

    Molecular point group: c1
  Charge       = 0
  Multiplicity = 1
  Basis Set: AUG-CC-PVTZ
    Blend: AUG-CC-PVTZ
  Basis Set: (AUG-CC-PVTZ AUX)
    Blend: AUG-CC-PVTZ-JKFIT

    Orbital Energies [Eh]
    ---------------------

    Doubly Occupied:

       1A    -20.562221     2A    -20.555965     3A    -15.546153
       4A    -11.281415     5A    -11.274554     6A    -11.256668
       7A    -11.226255     8A    -11.223281     9A    -11.216802
      10A     -1.365420    11A     -1.351555    12A     -1.192676
      13A     -1.095130    14A     -1.001319    15A     -0.985687
      16A     -0.843737    17A     -0.819972    18A     -0.768383
      19A     -0.699912    20A     -0.679298    21A     -0.656180
      22A     -0.640736    23A     -0.628955    24A     -0.611404
      25A     -0.591227    26A     -0.566682    27A     -0.547365
      28A     -0.527650    29A     -0.522857    30A     -0.504738
      31A     -0.490968    32A     -0.474016    33A     -0.459651
      34A     -0.444526    35A     -0.412294    36A     -0.394768

  @DF-RHF Final Energy:  -439.09710121755757

   => Energetics <=

    Nuclear Repulsion Energy =            507.8308734747807307
    One-Electron Energy =               -1607.0151125466632038
    Two-Electron Energy =                 660.0871378543249648
    Total Energy =                       -439.0971012175575652
  Basis Set: (AUG-CC-PVTZ AUX)
    Blend: AUG-CC-PVTZ-RI
    Molecular point group: c1

    Geometry (in Angstrom), charge = 0, multiplicity = 1:

       Center              X                  Y                   Z               Mass
    ------------   -----------------  -----------------  -----------------  -----------------
         O           -0.123246560331     2.057988120158    -0.899378640083    15.994914619570
         O           -2.392014560331    -1.379908879842    -0.107767640083    15.994914619570
         N            2.483811439669    -1.278034879842     0.080140359917    14.003074004430
         C            1.295857439669    -0.485336879842    -0.265175640083    12.000000000000
         C            1.238407439669     0.738279120158     0.644159359917    12.000000000000
         C            0.050712439669    -1.343397879842    -0.062774640083    12.000000000000
         C           -0.043715560331     1.542340120158     0.439035359917    12.000000000000
         C           -1.235051560331    -0.555631879842    -0.288000640083    12.000000000000
         C           -1.198335260331     0.728640920158     0.605486459917    12.000000000000
         H            1.303016439669    -0.133584879842    -1.310040640083     1.007825032230
         H            1.304421439669     0.399320120158     1.686051359917     1.007825032230
         H            2.111947439669     1.383961120158     0.467196359917     1.007825032230
         H            0.063509439669    -2.212476879842    -0.732665640083     1.007825032230
         H            0.068358439669    -1.727731879842     0.968065359917     1.007825032230
         H           -0.075686560331     2.374329120158     1.160062359917     1.007825032230
         H           -1.291891560331    -0.229803879842    -1.330488640083     1.007825032230
         H           -1.332326560331     0.340557120158     1.664616359917     1.007825032230
         H           -2.180258560331     1.255844120158     0.405213359917     1.007825032230
         H            3.322355439669    -0.728410879842    -0.112907640083     1.007825032230
         H            2.535190439669    -2.087388879842    -0.539998640083     1.007825032230
         H            0.654907439669     2.626525120158    -1.036714640083     1.007825032230
         H           -2.359918560331    -1.705784879842     0.809439359917     1.007825032230

  Basis Set: AUG-CC-PVTZ
    Blend: AUG-CC-PVTZ
  Basis Set: (AUG-CC-PVTZ AUX)
    Blend: AUG-CC-PVTZ-JKFIT
	 Reference Energy          =    -439.0971012175575652 [Eh]
	 Singles Energy            =      -0.0000000000000000 [Eh]
	 Same-Spin Energy          =      -0.4525739438126484 [Eh]
	 Opposite-Spin Energy      =      -1.4747521784167397 [Eh]
	 Correlation Energy        =      -1.9273261222293880 [Eh]
	 Total Energy              =    -441.0244273397869392 [Eh]

	 ================> DF-SCS-MP2 Energies <==================
	-----------------------------------------------------------
	 SCS Same-Spin Scale       =       0.3333333333333333 [-]
	 SCS Opposite-Spin Scale   =       1.2000000000000000 [-]
	 SCS Same-Spin Energy      =      -0.1508579812708828 [Eh]
	 SCS Opposite-Spin Energy  =      -1.7697026141000876 [Eh]
	 SCS Correlation Energy    =      -1.9205605953709703 [Eh]
	 SCS Total Energy          =    -441.0176618129285089 [Eh]
	-----------------------------------------------------------

  Dipole Moment: [D]
     X:     2.5084      Y:     1.0756      Z:     0.7399     Total:     2.8278

*** Psi4 exiting successfully. Buy a developer a beer!
