                               Psi4 1.4a3.dev225

  ==> Input File <==

--------------------------------------------------------------------------
#psi4
#
memory 32 gb

molecule  {
0 1
  O       -0.1447520     2.0657680    -0.9147710
  O       -2.4135200    -1.3721290    -0.1231600
  N        2.4623060    -1.2702550     0.0647480
  C        1.2743520    -0.4775570    -0.2805680
  C        1.2169020     0.7460590     0.6287670
  C        0.0292070    -1.3356180    -0.0781670
  C       -0.0652210     1.5501200     0.4236430
  C       -1.2544136    -0.5154758    -0.3456104
  C       -1.3010200     0.6792110     0.6017970
  H        1.2815110    -0.1258050    -1.3254330
  H        1.2829160     0.4071000     1.6706590
  H        2.0904420     1.3917410     0.4518040
  H        0.0420040    -2.2046970    -0.7480580
  H        0.0468530    -1.7199520     0.9526730
  H       -0.0971920     2.3821090     1.1446700
  H       -1.3133970    -0.2220240    -1.3458810
  H       -1.3538320     0.3483370     1.6492240
  H       -2.2017640     1.2636240     0.3898210
  H        3.3008500    -0.7206310    -0.1283000
  H        2.5136850    -2.0796090    -0.5553910
  H        0.6334020     2.6343050    -1.0521070
  H       -2.3814240    -1.6980050     0.7940470
units angstrom
no_reorient  #important for SAPT in psi4, default
symmetry c1  #important for SAPT in psi4, default
}

set PROPERTIES_ORIGIN ["COM"]
properties('MP2/aug-cc-pvtz', properties = ['dipole'])
--------------------------------------------------------------------------

    Molecular point group: c1
  Charge       = 0
  Multiplicity = 1
  Basis Set: AUG-CC-PVTZ
    Blend: AUG-CC-PVTZ
  Basis Set: (AUG-CC-PVTZ AUX)
    Blend: AUG-CC-PVTZ-JKFIT

    Orbital Energies [Eh]
    ---------------------

    Doubly Occupied:

       1A    -20.562727     2A    -20.546848     3A    -15.545764
       4A    -11.285946     5A    -11.271440     6A    -11.255816
       7A    -11.225908     8A    -11.220762     9A    -11.218675
      10A     -1.363302    11A     -1.338242    12A     -1.191979
      13A     -1.087246    14A     -0.994641    15A     -0.986439
      16A     -0.843456    17A     -0.822499    18A     -0.771352
      19A     -0.695285    20A     -0.676950    21A     -0.653545
      22A     -0.640875    23A     -0.623999    24A     -0.613262
      25A     -0.590225    26A     -0.563531    27A     -0.544649
      28A     -0.527638    29A     -0.525095    30A     -0.505535
      31A     -0.490580    32A     -0.482854    33A     -0.452855
      34A     -0.442494    35A     -0.418704    36A     -0.394909

  @DF-RHF Final Energy:  -439.10630777814174

   => Energetics <=

    Nuclear Repulsion Energy =            506.6190629042213800
    One-Electron Energy =               -1604.6986913246671520
    Two-Electron Energy =                 658.9733206423039746
    Total Energy =                       -439.1063077781417405
  Basis Set: (AUG-CC-PVTZ AUX)
    Blend: AUG-CC-PVTZ-RI
    Molecular point group: c1

    Geometry (in Angstrom), charge = 0, multiplicity = 1:

       Center              X                  Y                   Z               Mass
    ------------   -----------------  -----------------  -----------------  -----------------
         O           -0.116011856593     2.060261311692    -0.896585436397    15.994914619570
         O           -2.384779856593    -1.377635688308    -0.104974436397    15.994914619570
         N            2.491046143407    -1.275761688308     0.082933563603    14.003074004430
         C            1.303092143407    -0.483063688308    -0.262382436397    12.000000000000
         C            1.245642143407     0.740552311692     0.646952563603    12.000000000000
         C            0.057947143407    -1.341124688308    -0.059981436397    12.000000000000
         C           -0.036480856593     1.544613311692     0.441828563603    12.000000000000
         C           -1.225673456593    -0.520982488308    -0.327424836397    12.000000000000
         C           -1.272279856593     0.673704311692     0.619982563603    12.000000000000
         H            1.310251143407    -0.131311688308    -1.307247436397     1.007825032230
         H            1.311656143407     0.401593311692     1.688844563603     1.007825032230
         H            2.119182143407     1.386234311692     0.469989563603     1.007825032230
         H            0.070744143407    -2.210203688308    -0.729872436397     1.007825032230
         H            0.075593143407    -1.725458688308     0.970858563603     1.007825032230
         H           -0.068451856593     2.376602311692     1.162855563603     1.007825032230
         H           -1.284656856593    -0.227530688308    -1.327695436397     1.007825032230
         H           -1.325091856593     0.342830311692     1.667409563603     1.007825032230
         H           -2.173023856593     1.258117311692     0.408006563603     1.007825032230
         H            3.329590143407    -0.726137688308    -0.110114436397     1.007825032230
         H            2.542425143407    -2.085115688308    -0.537205436397     1.007825032230
         H            0.662142143407     2.628798311692    -1.033921436397     1.007825032230
         H           -2.352683856593    -1.703511688308     0.812232563603     1.007825032230

  Basis Set: AUG-CC-PVTZ
    Blend: AUG-CC-PVTZ
  Basis Set: (AUG-CC-PVTZ AUX)
    Blend: AUG-CC-PVTZ-JKFIT
	 Reference Energy          =    -439.1063077781417405 [Eh]
	 Singles Energy            =      -0.0000000000000000 [Eh]
	 Same-Spin Energy          =      -0.4513092350212430 [Eh]
	 Opposite-Spin Energy      =      -1.4733496695850103 [Eh]
	 Correlation Energy        =      -1.9246589046062534 [Eh]
	 Total Energy              =    -441.0309666827479873 [Eh]

	 ================> DF-SCS-MP2 Energies <==================
	-----------------------------------------------------------
	 SCS Same-Spin Scale       =       0.3333333333333333 [-]
	 SCS Opposite-Spin Scale   =       1.2000000000000000 [-]
	 SCS Same-Spin Energy      =      -0.1504364116737477 [Eh]
	 SCS Opposite-Spin Energy  =      -1.7680196035020124 [Eh]
	 SCS Correlation Energy    =      -1.9184560151757599 [Eh]
	 SCS Total Energy          =    -441.0247637933175042 [Eh]
	-----------------------------------------------------------

  Dipole Moment: [D]
     X:     2.5856      Y:     1.2049      Z:     0.7114     Total:     2.9400

*** Psi4 exiting successfully. Buy a developer a beer!
