                               Psi4 1.4a3.dev225

  ==> Input File <==

--------------------------------------------------------------------------
#psi4
#
memory 32 gb

molecule  {
0 1
  O       -0.1447520     2.0657680    -0.9147710
  O       -2.4135200    -1.3721290    -0.1231600
  N        2.4623060    -1.2702550     0.0647480
  C        1.2743520    -0.4775570    -0.2805680
  C        1.2169020     0.7460590     0.6287670
  C        0.0292070    -1.3356180    -0.0781670
  C       -0.0652210     1.5501200     0.4236430
  C       -1.2565570    -0.5478520    -0.3033930
  C       -1.3010200     0.6792110     0.6017970
  H        1.2815110    -0.1258050    -1.3254330
  H        1.2769018     0.4379810     1.5757370
  H        2.0904420     1.3917410     0.4518040
  H        0.0420040    -2.2046970    -0.7480580
  H        0.0468530    -1.7199520     0.9526730
  H       -0.0971920     2.3821090     1.1446700
  H       -1.3133970    -0.2220240    -1.3458810
  H       -1.3538320     0.3483370     1.6492240
  H       -2.2017640     1.2636240     0.3898210
  H        3.3008500    -0.7206310    -0.1283000
  H        2.5136850    -2.0796090    -0.5553910
  H        0.6334020     2.6343050    -1.0521070
  H       -2.3814240    -1.6980050     0.7940470
units angstrom
no_reorient  #important for SAPT in psi4, default
symmetry c1  #important for SAPT in psi4, default
}

set PROPERTIES_ORIGIN ["COM"]
properties('MP2/aug-cc-pvtz', properties = ['dipole'])
--------------------------------------------------------------------------

    Molecular point group: c1
  Charge       = 0
  Multiplicity = 1
  Basis Set: AUG-CC-PVTZ
    Blend: AUG-CC-PVTZ
  Basis Set: (AUG-CC-PVTZ AUX)
    Blend: AUG-CC-PVTZ-JKFIT

    Orbital Energies [Eh]
    ---------------------

    Doubly Occupied:

       1A    -20.560986     2A    -20.551604     3A    -15.545980
       4A    -11.285255     5A    -11.271877     6A    -11.255575
       7A    -11.219955     8A    -11.217621     9A    -11.213541
      10A     -1.361882    11A     -1.350034    12A     -1.192630
      13A     -1.088663    14A     -0.999884    15A     -0.987335
      16A     -0.842308    17A     -0.823696    18A     -0.773640
      19A     -0.695678    20A     -0.681841    21A     -0.655691
      22A     -0.641182    23A     -0.626832    24A     -0.613724
      25A     -0.593052    26A     -0.563809    27A     -0.549612
      28A     -0.532305    29A     -0.528624    30A     -0.502607
      31A     -0.493051    32A     -0.475445    33A     -0.453177
      34A     -0.443967    35A     -0.420179    36A     -0.395112

  @DF-RHF Final Energy:  -439.10382043468007

   => Energetics <=

    Nuclear Repulsion Energy =            507.4252284469582719
    One-Electron Energy =               -1606.2413839809159981
    Two-Electron Energy =                 659.7123350992776523
    Total Energy =                       -439.1038204346800740
  Basis Set: (AUG-CC-PVTZ AUX)
    Blend: AUG-CC-PVTZ-RI
    Molecular point group: c1

    Geometry (in Angstrom), charge = 0, multiplicity = 1:

       Center              X                  Y                   Z               Mass
    ------------   -----------------  -----------------  -----------------  -----------------
         O           -0.115769420563     2.062987523733    -0.899720149363    15.994914619570
         O           -2.384537420563    -1.374909476267    -0.108109149363    15.994914619570
         N            2.491288579437    -1.273035476267     0.079798850637    14.003074004430
         C            1.303334579437    -0.480337476267    -0.265517149363    12.000000000000
         C            1.245884579437     0.743278523733     0.643817850637    12.000000000000
         C            0.058189579437    -1.338398476267    -0.063116149363    12.000000000000
         C           -0.036238420563     1.547339523733     0.438693850637    12.000000000000
         C           -1.227574420563    -0.550632476267    -0.288342149363    12.000000000000
         C           -1.272037420563     0.676430523733     0.616847850637    12.000000000000
         H            1.310493579437    -0.128585476267    -1.310382149363     1.007825032230
         H            1.305884379437     0.435200523733     1.590787850637     1.007825032230
         H            2.119424579437     1.388960523733     0.466854850637     1.007825032230
         H            0.070986579437    -2.207477476267    -0.733007149363     1.007825032230
         H            0.075835579437    -1.722732476267     0.967723850637     1.007825032230
         H           -0.068209420563     2.379328523733     1.159720850637     1.007825032230
         H           -1.284414420563    -0.224804476267    -1.330830149363     1.007825032230
         H           -1.324849420563     0.345556523733     1.664274850637     1.007825032230
         H           -2.172781420563     1.260843523733     0.404871850637     1.007825032230
         H            3.329832579437    -0.723411476267    -0.113249149363     1.007825032230
         H            2.542667579437    -2.082389476267    -0.540340149363     1.007825032230
         H            0.662384579437     2.631524523733    -1.037056149363     1.007825032230
         H           -2.352441420563    -1.700785476267     0.809097850637     1.007825032230

  Basis Set: AUG-CC-PVTZ
    Blend: AUG-CC-PVTZ
  Basis Set: (AUG-CC-PVTZ AUX)
    Blend: AUG-CC-PVTZ-JKFIT
	 Reference Energy          =    -439.1038204346800740 [Eh]
	 Singles Energy            =      -0.0000000000000000 [Eh]
	 Same-Spin Energy          =      -0.4514059252957437 [Eh]
	 Opposite-Spin Energy      =      -1.4726560164967277 [Eh]
	 Correlation Energy        =      -1.9240619417924714 [Eh]
	 Total Energy              =    -441.0278823764725189 [Eh]

	 ================> DF-SCS-MP2 Energies <==================
	-----------------------------------------------------------
	 SCS Same-Spin Scale       =       0.3333333333333333 [-]
	 SCS Opposite-Spin Scale   =       1.2000000000000000 [-]
	 SCS Same-Spin Energy      =      -0.1504686417652479 [Eh]
	 SCS Opposite-Spin Energy  =      -1.7671872197960732 [Eh]
	 SCS Correlation Energy    =      -1.9176558615613211 [Eh]
	 SCS Total Energy          =    -441.0214762962414170 [Eh]
	-----------------------------------------------------------

  Dipole Moment: [D]
     X:     2.5415      Y:     1.1229      Z:     0.7879     Total:     2.8880

*** Psi4 exiting successfully. Buy a developer a beer!
