                               Psi4 1.4a3.dev225

  ==> Input File <==

--------------------------------------------------------------------------
#psi4
#
memory 32 gb

molecule  {
0 1
  O       -0.1447520     2.0657680    -0.9147710
  O       -2.4135200    -1.3721290    -0.1231600
  N        2.4623060    -1.2702550     0.0647480
  C        1.2743520    -0.4775570    -0.2805680
  C        1.2169020     0.7460590     0.6287670
  C        0.0292070    -1.3356180    -0.0781670
  C       -0.0652210     1.5501200     0.4236430
  C       -1.2565570    -0.5478520    -0.3033930
  C       -1.3039347     0.7596499     0.6611358
  H        1.2815110    -0.1258050    -1.3254330
  H        1.2829160     0.4071000     1.6706590
  H        2.0904420     1.3917410     0.4518040
  H        0.0420040    -2.2046970    -0.7480580
  H        0.0468530    -1.7199520     0.9526730
  H       -0.0971920     2.3821090     1.1446700
  H       -1.3133970    -0.2220240    -1.3458810
  H       -1.3538320     0.3483370     1.6492240
  H       -2.2017640     1.2636240     0.3898210
  H        3.3008500    -0.7206310    -0.1283000
  H        2.5136850    -2.0796090    -0.5553910
  H        0.6334020     2.6343050    -1.0521070
  H       -2.3814240    -1.6980050     0.7940470
units angstrom
no_reorient  #important for SAPT in psi4, default
symmetry c1  #important for SAPT in psi4, default
}

set PROPERTIES_ORIGIN ["COM"]
properties('MP2/aug-cc-pvtz', properties = ['dipole'])
--------------------------------------------------------------------------

    Molecular point group: c1
  Charge       = 0
  Multiplicity = 1
  Basis Set: AUG-CC-PVTZ
    Blend: AUG-CC-PVTZ
  Basis Set: (AUG-CC-PVTZ AUX)
    Blend: AUG-CC-PVTZ-JKFIT

    Orbital Energies [Eh]
    ---------------------

    Doubly Occupied:

       1A    -20.562176     2A    -20.552220     3A    -15.545925
       4A    -11.283648     5A    -11.275343     6A    -11.256262
       7A    -11.226516     8A    -11.218025     9A    -11.217616
      10A     -1.362718    11A     -1.348845    12A     -1.192028
      13A     -1.084257    14A     -0.997371    15A     -0.983131
      16A     -0.836220    17A     -0.825151    18A     -0.770412
      19A     -0.695480    20A     -0.677334    21A     -0.654460
      22A     -0.643613    23A     -0.622430    24A     -0.610221
      25A     -0.591317    26A     -0.564057    27A     -0.547059
      28A     -0.538644    29A     -0.528606    30A     -0.501447
      31A     -0.492030    32A     -0.477426    33A     -0.457907
      34A     -0.444967    35A     -0.404491    36A     -0.392500

  @DF-RHF Final Energy:  -439.10141497006794

   => Energetics <=

    Nuclear Repulsion Energy =            505.7136413888115385
    One-Electron Energy =               -1602.8664089690794299
    Two-Electron Energy =                 658.0513526101999560
    Total Energy =                       -439.1014149700679354
  Basis Set: (AUG-CC-PVTZ AUX)
    Blend: AUG-CC-PVTZ-RI
    Molecular point group: c1

    Geometry (in Angstrom), charge = 0, multiplicity = 1:

       Center              X                  Y                   Z               Mass
    ------------   -----------------  -----------------  -----------------  -----------------
         O           -0.115548853642     2.055861799630    -0.905881579285    15.994914619570
         O           -2.384316853642    -1.382035200370    -0.114270579285    15.994914619570
         N            2.491509146358    -1.280161200370     0.073637420715    14.003074004430
         C            1.303555146358    -0.487463200370    -0.271678579285    12.000000000000
         C            1.246105146358     0.736152799630     0.637656420715    12.000000000000
         C            0.058410146358    -1.345524200370    -0.069277579285    12.000000000000
         C           -0.036017853642     1.540213799630     0.432532420715    12.000000000000
         C           -1.227353853642    -0.557758200370    -0.294503579285    12.000000000000
         C           -1.274731553642     0.749743699630     0.670025220715    12.000000000000
         H            1.310714146358    -0.135711200370    -1.316543579285     1.007825032230
         H            1.312119146358     0.397193799630     1.679548420715     1.007825032230
         H            2.119645146358     1.381834799630     0.460693420715     1.007825032230
         H            0.071207146358    -2.214603200370    -0.739168579285     1.007825032230
         H            0.076056146358    -1.729858200370     0.961562420715     1.007825032230
         H           -0.067988853642     2.372202799630     1.153559420715     1.007825032230
         H           -1.284193853642    -0.231930200370    -1.336991579285     1.007825032230
         H           -1.324628853642     0.338430799630     1.658113420715     1.007825032230
         H           -2.172560853642     1.253717799630     0.398710420715     1.007825032230
         H            3.330053146358    -0.730537200370    -0.119410579285     1.007825032230
         H            2.542888146358    -2.089515200370    -0.546501579285     1.007825032230
         H            0.662605146358     2.624398799630    -1.043217579285     1.007825032230
         H           -2.352220853642    -1.707911200370     0.802936420715     1.007825032230

  Basis Set: AUG-CC-PVTZ
    Blend: AUG-CC-PVTZ
  Basis Set: (AUG-CC-PVTZ AUX)
    Blend: AUG-CC-PVTZ-JKFIT
	 Reference Energy          =    -439.1014149700679354 [Eh]
	 Singles Energy            =      -0.0000000000000000 [Eh]
	 Same-Spin Energy          =      -0.4514657881730306 [Eh]
	 Opposite-Spin Energy      =      -1.4736372625712169 [Eh]
	 Correlation Energy        =      -1.9251030507442475 [Eh]
	 Total Energy              =    -441.0265180208122047 [Eh]

	 ================> DF-SCS-MP2 Energies <==================
	-----------------------------------------------------------
	 SCS Same-Spin Scale       =       0.3333333333333333 [-]
	 SCS Opposite-Spin Scale   =       1.2000000000000000 [-]
	 SCS Same-Spin Energy      =      -0.1504885960576768 [Eh]
	 SCS Opposite-Spin Energy  =      -1.7683647150854602 [Eh]
	 SCS Correlation Energy    =      -1.9188533111431372 [Eh]
	 SCS Total Energy          =    -441.0202682812110879 [Eh]
	-----------------------------------------------------------

  Dipole Moment: [D]
     X:     2.5031      Y:     1.0653      Z:     0.7360     Total:     2.8182

*** Psi4 exiting successfully. Buy a developer a beer!
