                               Psi4 1.4a3.dev225

  ==> Input File <==

--------------------------------------------------------------------------
#psi4
#
memory 32 gb

molecule  {
0 1
  O       -0.1447520     2.0657680    -0.9147710
  O       -2.4135200    -1.3721290    -0.1231600
  N        2.4681826    -1.2531246     0.0829035
  C        1.2743520    -0.4775570    -0.2805680
  C        1.2169020     0.7460590     0.6287670
  C        0.0292070    -1.3356180    -0.0781670
  C       -0.0652210     1.5501200     0.4236430
  C       -1.2565570    -0.5478520    -0.3033930
  C       -1.3010200     0.6792110     0.6017970
  H        1.2815110    -0.1258050    -1.3254330
  H        1.2829160     0.4071000     1.6706590
  H        2.0904420     1.3917410     0.4518040
  H        0.0420040    -2.2046970    -0.7480580
  H        0.0468530    -1.7199520     0.9526730
  H       -0.0971920     2.3821090     1.1446700
  H       -1.3133970    -0.2220240    -1.3458810
  H       -1.3538320     0.3483370     1.6492240
  H       -2.2017640     1.2636240     0.3898210
  H        3.3008500    -0.7206310    -0.1283000
  H        2.5136850    -2.0796090    -0.5553910
  H        0.6334020     2.6343050    -1.0521070
  H       -2.3814240    -1.6980050     0.7940470
units angstrom
no_reorient  #important for SAPT in psi4, default
symmetry c1  #important for SAPT in psi4, default
}

set PROPERTIES_ORIGIN ["COM"]
properties('MP2/aug-cc-pvtz', properties = ['dipole'])
--------------------------------------------------------------------------

    Molecular point group: c1
  Charge       = 0
  Multiplicity = 1
  Basis Set: AUG-CC-PVTZ
    Blend: AUG-CC-PVTZ
  Basis Set: (AUG-CC-PVTZ AUX)
    Blend: AUG-CC-PVTZ-JKFIT

    Orbital Energies [Eh]
    ---------------------

    Doubly Occupied:

       1A    -20.561739     2A    -20.551844     3A    -15.548201
       4A    -11.285485     5A    -11.272213     6A    -11.256573
       7A    -11.225191     8A    -11.219818     9A    -11.218092
      10A     -1.362517    11A     -1.350275    12A     -1.192066
      13A     -1.086984    14A     -0.996137    15A     -0.985475
      16A     -0.840360    17A     -0.822966    18A     -0.769569
      19A     -0.696169    20A     -0.678197    21A     -0.651875
      22A     -0.640833    23A     -0.626303    24A     -0.611878
      25A     -0.591551    26A     -0.563472    27A     -0.547447
      28A     -0.530326    29A     -0.526772    30A     -0.499752
      31A     -0.490134    32A     -0.475297    33A     -0.453376
      34A     -0.444598    35A     -0.420466    36A     -0.397019

  @DF-RHF Final Energy:  -439.10815183639477

   => Energetics <=

    Nuclear Repulsion Energy =            506.8921337896564978
    One-Electron Energy =               -1605.2186316796994561
    Two-Electron Energy =                 659.2183460536481334
    Total Energy =                       -439.1081518363947680
  Basis Set: (AUG-CC-PVTZ AUX)
    Blend: AUG-CC-PVTZ-RI
    Molecular point group: c1

    Geometry (in Angstrom), charge = 0, multiplicity = 1:

       Center              X                  Y                   Z               Mass
    ------------   -----------------  -----------------  -----------------  -----------------
         O           -0.116443374385     2.061395119709    -0.902389195237    15.994914619570
         O           -2.385211374385    -1.376501880291    -0.110778195237    15.994914619570
         N            2.496491225615    -1.257497480291     0.095285304763    14.003074004430
         C            1.302660625615    -0.481929880291    -0.268186195237    12.000000000000
         C            1.245210625615     0.741686119709     0.641148804763    12.000000000000
         C            0.057515625615    -1.339990880291    -0.065785195237    12.000000000000
         C           -0.036912374385     1.545747119709     0.436024804763    12.000000000000
         C           -1.228248374385    -0.552224880291    -0.291011195237    12.000000000000
         C           -1.272711374385     0.674838119709     0.614178804763    12.000000000000
         H            1.309819625615    -0.130177880291    -1.313051195237     1.007825032230
         H            1.311224625615     0.402727119709     1.683040804763     1.007825032230
         H            2.118750625615     1.387368119709     0.464185804763     1.007825032230
         H            0.070312625615    -2.209069880291    -0.735676195237     1.007825032230
         H            0.075161625615    -1.724324880291     0.965054804763     1.007825032230
         H           -0.068883374385     2.377736119709     1.157051804763     1.007825032230
         H           -1.285088374385    -0.226396880291    -1.333499195237     1.007825032230
         H           -1.325523374385     0.343964119709     1.661605804763     1.007825032230
         H           -2.173455374385     1.259251119709     0.402202804763     1.007825032230
         H            3.329158625615    -0.725003880291    -0.115918195237     1.007825032230
         H            2.541993625615    -2.083981880291    -0.543009195237     1.007825032230
         H            0.661710625615     2.629932119709    -1.039725195237     1.007825032230
         H           -2.353115374385    -1.702377880291     0.806428804763     1.007825032230

  Basis Set: AUG-CC-PVTZ
    Blend: AUG-CC-PVTZ
  Basis Set: (AUG-CC-PVTZ AUX)
    Blend: AUG-CC-PVTZ-JKFIT
	 Reference Energy          =    -439.1081518363947680 [Eh]
	 Singles Energy            =      -0.0000000000000000 [Eh]
	 Same-Spin Energy          =      -0.4516438000162484 [Eh]
	 Opposite-Spin Energy      =      -1.4736568178071752 [Eh]
	 Correlation Energy        =      -1.9253006178234235 [Eh]
	 Total Energy              =    -441.0334524542182066 [Eh]

	 ================> DF-SCS-MP2 Energies <==================
	-----------------------------------------------------------
	 SCS Same-Spin Scale       =       0.3333333333333333 [-]
	 SCS Opposite-Spin Scale   =       1.2000000000000000 [-]
	 SCS Same-Spin Energy      =      -0.1505479333387495 [Eh]
	 SCS Opposite-Spin Energy  =      -1.7683881813686102 [Eh]
	 SCS Correlation Energy    =      -1.9189361147073596 [Eh]
	 SCS Total Energy          =    -441.0270879511021462 [Eh]
	-----------------------------------------------------------

  Dipole Moment: [D]
     X:     2.5288      Y:     1.1074      Z:     0.7174     Total:     2.8523

*** Psi4 exiting successfully. Buy a developer a beer!
