                               Psi4 1.4a3.dev225

  ==> Input File <==

--------------------------------------------------------------------------
#psi4
#
memory 32 gb

molecule  {
0 1
  O       -0.1447520     2.0657680    -0.9147710
  O       -2.4135200    -1.3721290    -0.1231600
  N        2.4623060    -1.2702550     0.0647480
  C        1.2743520    -0.4775570    -0.2805680
  C        1.2169020     0.7460590     0.6287670
  C        0.0292070    -1.3356180    -0.0781670
  C       -0.0652210     1.5501200     0.4236430
  C       -1.2523269    -0.4816440    -0.3866736
  C       -1.3010200     0.6792110     0.6017970
  H        1.2815110    -0.1258050    -1.3254330
  H        1.2829160     0.4071000     1.6706590
  H        2.0904420     1.3917410     0.4518040
  H        0.0420040    -2.2046970    -0.7480580
  H        0.0468530    -1.7199520     0.9526730
  H       -0.0971920     2.3821090     1.1446700
  H       -1.3133970    -0.2220240    -1.3458810
  H       -1.3538320     0.3483370     1.6492240
  H       -2.2017640     1.2636240     0.3898210
  H        3.3008500    -0.7206310    -0.1283000
  H        2.5136850    -2.0796090    -0.5553910
  H        0.6334020     2.6343050    -1.0521070
  H       -2.3814240    -1.6980050     0.7940470
units angstrom
no_reorient  #important for SAPT in psi4, default
symmetry c1  #important for SAPT in psi4, default
}

set PROPERTIES_ORIGIN ["COM"]
properties('MP2/aug-cc-pvtz', properties = ['dipole'])
--------------------------------------------------------------------------

    Molecular point group: c1
  Charge       = 0
  Multiplicity = 1
  Basis Set: AUG-CC-PVTZ
    Blend: AUG-CC-PVTZ
  Basis Set: (AUG-CC-PVTZ AUX)
    Blend: AUG-CC-PVTZ-JKFIT

    Orbital Energies [Eh]
    ---------------------

    Doubly Occupied:

       1A    -20.563660     2A    -20.542028     3A    -15.545516
       4A    -11.286110     5A    -11.271794     6A    -11.255249
       7A    -11.226091     8A    -11.222183     9A    -11.220124
      10A     -1.364212    11A     -1.326436    12A     -1.191693
      13A     -1.087403    14A     -0.993928    15A     -0.986767
      16A     -0.848053    17A     -0.822100    18A     -0.773265
      19A     -0.695109    20A     -0.675978    21A     -0.652558
      22A     -0.640358    23A     -0.623724    24A     -0.613208
      25A     -0.588805    26A     -0.563737    27A     -0.541317
      28A     -0.528333    29A     -0.521651    30A     -0.512846
      31A     -0.492291    32A     -0.484048    33A     -0.451970
      34A     -0.439835    35A     -0.416005    36A     -0.394305

  @DF-RHF Final Energy:  -439.09552222767979

   => Energetics <=

    Nuclear Repulsion Energy =            506.3434973114555646
    One-Electron Energy =               -1604.1526573490082228
    Two-Electron Energy =                 658.7136378098728073
    Total Energy =                       -439.0955222276797940
  Basis Set: (AUG-CC-PVTZ AUX)
    Blend: AUG-CC-PVTZ-RI
    Molecular point group: c1

    Geometry (in Angstrom), charge = 0, multiplicity = 1:

       Center              X                  Y                   Z               Mass
    ------------   -----------------  -----------------  -----------------  -----------------
         O           -0.116202866707     2.057164452544    -0.892826637085    15.994914619570
         O           -2.384970866707    -1.380732547456    -0.101215637085    15.994914619570
         N            2.490855133293    -1.278858547456     0.086692362915    14.003074004430
         C            1.302901133293    -0.486160547456    -0.258623637085    12.000000000000
         C            1.245451133293     0.737455452544     0.650711362915    12.000000000000
         C            0.057756133293    -1.344221547456    -0.056222637085    12.000000000000
         C           -0.036671866707     1.541516452544     0.445587362915    12.000000000000
         C           -1.223777766707    -0.490247547456    -0.364729237085    12.000000000000
         C           -1.272470866707     0.670607452544     0.623741362915    12.000000000000
         H            1.310060133293    -0.134408547456    -1.303488637085     1.007825032230
         H            1.311465133293     0.398496452544     1.692603362915     1.007825032230
         H            2.118991133293     1.383137452544     0.473748362915     1.007825032230
         H            0.070553133293    -2.213300547456    -0.726113637085     1.007825032230
         H            0.075402133293    -1.728555547456     0.974617362915     1.007825032230
         H           -0.068642866707     2.373505452544     1.166614362915     1.007825032230
         H           -1.284847866707    -0.230627547456    -1.323936637085     1.007825032230
         H           -1.325282866707     0.339733452544     1.671168362915     1.007825032230
         H           -2.173214866707     1.255020452544     0.411765362915     1.007825032230
         H            3.329399133293    -0.729234547456    -0.106355637085     1.007825032230
         H            2.542234133293    -2.088212547456    -0.533446637085     1.007825032230
         H            0.661951133293     2.625701452544    -1.030162637085     1.007825032230
         H           -2.352874866707    -1.706608547456     0.815991362915     1.007825032230

  Basis Set: AUG-CC-PVTZ
    Blend: AUG-CC-PVTZ
  Basis Set: (AUG-CC-PVTZ AUX)
    Blend: AUG-CC-PVTZ-JKFIT
	 Reference Energy          =    -439.0955222276797940 [Eh]
	 Singles Energy            =      -0.0000000000000000 [Eh]
	 Same-Spin Energy          =      -0.4512560362108897 [Eh]
	 Opposite-Spin Energy      =      -1.4738690779410946 [Eh]
	 Correlation Energy        =      -1.9251251141519843 [Eh]
	 Total Energy              =    -441.0206473418317614 [Eh]

	 ================> DF-SCS-MP2 Energies <==================
	-----------------------------------------------------------
	 SCS Same-Spin Scale       =       0.3333333333333333 [-]
	 SCS Opposite-Spin Scale   =       1.2000000000000000 [-]
	 SCS Same-Spin Energy      =      -0.1504186787369632 [Eh]
	 SCS Opposite-Spin Energy  =      -1.7686428935293135 [Eh]
	 SCS Correlation Energy    =      -1.9190615722662767 [Eh]
	 SCS Total Energy          =    -441.0145837999460809 [Eh]
	-----------------------------------------------------------

  Dipole Moment: [D]
     X:     2.6379      Y:     1.2857      Z:     0.6842     Total:     3.0132

*** Psi4 exiting successfully. Buy a developer a beer!
