                               Psi4 1.4a3.dev225

  ==> Input File <==

--------------------------------------------------------------------------
#psi4
#
memory 32 gb

molecule  {
0 1
  O       -0.1447520     2.0657680    -0.9147710
  O       -2.4135200    -1.3721290    -0.1231600
  N        2.4623060    -1.2702550     0.0647480
  C        1.2743520    -0.4775570    -0.2805680
  C        1.2169020     0.7460590     0.6287670
  C        0.0292070    -1.3356180    -0.0781670
  C       -0.0652210     1.5501200     0.4236430
  C       -1.2565570    -0.5478520    -0.3033930
  C       -1.2981053     0.5987721     0.5424582
  H        1.2815110    -0.1258050    -1.3254330
  H        1.2829160     0.4071000     1.6706590
  H        2.0904420     1.3917410     0.4518040
  H        0.0420040    -2.2046970    -0.7480580
  H        0.0468530    -1.7199520     0.9526730
  H       -0.0971920     2.3821090     1.1446700
  H       -1.3133970    -0.2220240    -1.3458810
  H       -1.3538320     0.3483370     1.6492240
  H       -2.2017640     1.2636240     0.3898210
  H        3.3008500    -0.7206310    -0.1283000
  H        2.5136850    -2.0796090    -0.5553910
  H        0.6334020     2.6343050    -1.0521070
  H       -2.3814240    -1.6980050     0.7940470
units angstrom
no_reorient  #important for SAPT in psi4, default
symmetry c1  #important for SAPT in psi4, default
}

set PROPERTIES_ORIGIN ["COM"]
properties('MP2/aug-cc-pvtz', properties = ['dipole'])
--------------------------------------------------------------------------

    Molecular point group: c1
  Charge       = 0
  Multiplicity = 1
  Basis Set: AUG-CC-PVTZ
    Blend: AUG-CC-PVTZ
  Basis Set: (AUG-CC-PVTZ AUX)
    Blend: AUG-CC-PVTZ-JKFIT

    Orbital Energies [Eh]
    ---------------------

    Doubly Occupied:

       1A    -20.561869     2A    -20.551186     3A    -15.546321
       4A    -11.289466     5A    -11.267223     6A    -11.256872
       7A    -11.225376     8A    -11.223844     9A    -11.218088
      10A     -1.362896    11A     -1.351963    12A     -1.192854
      13A     -1.093320    14A     -1.000894    15A     -0.985113
      16A     -0.845908    17A     -0.820433    18A     -0.769067
      19A     -0.696778    20A     -0.679339    21A     -0.655402
      22A     -0.641814    23A     -0.630103    24A     -0.614235
      25A     -0.594065    26A     -0.564125    27A     -0.549621
      28A     -0.530542    29A     -0.520613    30A     -0.497252
      31A     -0.488263    32A     -0.471482    33A     -0.447733
      34A     -0.442660    35A     -0.430052    36A     -0.396092

  @DF-RHF Final Energy:  -439.09782982382239

   => Energetics <=

    Nuclear Repulsion Energy =            508.1038045755710755
    One-Electron Energy =               -1607.5775318434978089
    Two-Electron Energy =                 660.3758974441043392
    Total Energy =                       -439.0978298238223942
  Basis Set: (AUG-CC-PVTZ AUX)
    Blend: AUG-CC-PVTZ-RI
    Molecular point group: c1

    Geometry (in Angstrom), charge = 0, multiplicity = 1:

       Center              X                  Y                   Z               Mass
    ------------   -----------------  -----------------  -----------------  -----------------
         O           -0.116082459028     2.070588059735    -0.895018195983    15.994914619570
         O           -2.384850459028    -1.367308940265    -0.103407195983    15.994914619570
         N            2.490975540972    -1.265434940265     0.084500804017    14.003074004430
         C            1.303021540972    -0.472736940265    -0.260815195983    12.000000000000
         C            1.245571540972     0.750879059735     0.648519804017    12.000000000000
         C            0.057876540972    -1.330797940265    -0.058414195983    12.000000000000
         C           -0.036551459028     1.554940059735     0.443395804017    12.000000000000
         C           -1.227887459028    -0.543031940265    -0.283640195983    12.000000000000
         C           -1.269435759028     0.603592159735     0.562211004017    12.000000000000
         H            1.310180540972    -0.120984940265    -1.305680195983     1.007825032230
         H            1.311585540972     0.411920059735     1.690411804017     1.007825032230
         H            2.119111540972     1.396561059735     0.471556804017     1.007825032230
         H            0.070673540972    -2.199876940265    -0.728305195983     1.007825032230
         H            0.075522540972    -1.715131940265     0.972425804017     1.007825032230
         H           -0.068522459028     2.386929059735     1.164422804017     1.007825032230
         H           -1.284727459028    -0.217203940265    -1.326128195983     1.007825032230
         H           -1.325162459028     0.353157059735     1.668976804017     1.007825032230
         H           -2.173094459028     1.268444059735     0.409573804017     1.007825032230
         H            3.329519540972    -0.715810940265    -0.108547195983     1.007825032230
         H            2.542354540972    -2.074788940265    -0.535638195983     1.007825032230
         H            0.662071540972     2.639125059735    -1.032354195983     1.007825032230
         H           -2.352754459028    -1.693184940265     0.813799804017     1.007825032230

  Basis Set: AUG-CC-PVTZ
    Blend: AUG-CC-PVTZ
  Basis Set: (AUG-CC-PVTZ AUX)
    Blend: AUG-CC-PVTZ-JKFIT
	 Reference Energy          =    -439.0978298238223942 [Eh]
	 Singles Energy            =      -0.0000000000000000 [Eh]
	 Same-Spin Energy          =      -0.4524826227857404 [Eh]
	 Opposite-Spin Energy      =      -1.4745256643198079 [Eh]
	 Correlation Energy        =      -1.9270082871055483 [Eh]
	 Total Energy              =    -441.0248381109279308 [Eh]

	 ================> DF-SCS-MP2 Energies <==================
	-----------------------------------------------------------
	 SCS Same-Spin Scale       =       0.3333333333333333 [-]
	 SCS Opposite-Spin Scale   =       1.2000000000000000 [-]
	 SCS Same-Spin Energy      =      -0.1508275409285801 [Eh]
	 SCS Opposite-Spin Energy  =      -1.7694307971837695 [Eh]
	 SCS Correlation Energy    =      -1.9202583381123497 [Eh]
	 SCS Total Energy          =    -441.0180881619347701 [Eh]
	-----------------------------------------------------------

  Dipole Moment: [D]
     X:     2.5882      Y:     1.1784      Z:     0.7364     Total:     2.9376

*** Psi4 exiting successfully. Buy a developer a beer!
