                               Psi4 1.4a3.dev225

  ==> Input File <==

--------------------------------------------------------------------------
#psi4
#
memory 32 gb

molecule  {
0 1
  O       -0.1447520     2.0657680    -0.9147710
  O       -2.4135200    -1.3721290    -0.1231600
  N        2.4623060    -1.2702550     0.0647480
  C        1.2743520    -0.4775570    -0.2805680
  C        1.2169020     0.7460590     0.6287670
  C        0.0292070    -1.3356180    -0.0781670
  C       -0.0652210     1.5501200     0.4236430
  C       -1.2565570    -0.5478520    -0.3033930
  C       -1.3010200     0.6792110     0.6017970
  H        1.2815110    -0.1258050    -1.3254330
  H        1.2829160     0.4071000     1.6706590
  H        2.0904420     1.3917410     0.4518040
  H        0.0420040    -2.2046970    -0.7480580
  H        0.0468530    -1.7199520     0.9526730
  H       -0.0971920     2.3821090     1.1446700
  H       -1.3133970    -0.2220240    -1.3458810
  H       -1.3538320     0.3483370     1.6492240
  H       -2.2017640     1.2636240     0.3898210
  H        3.3008500    -0.7206310    -0.1283000
  H        2.5136850    -2.0796090    -0.5553910
  H        0.6174146     2.6226242    -1.0492854
  H       -2.3814240    -1.6980050     0.7940470
units angstrom
no_reorient  #important for SAPT in psi4, default
symmetry c1  #important for SAPT in psi4, default
}

set PROPERTIES_ORIGIN ["COM"]
properties('MP2/aug-cc-pvtz', properties = ['dipole'])
--------------------------------------------------------------------------

    Molecular point group: c1
  Charge       = 0
  Multiplicity = 1
  Basis Set: AUG-CC-PVTZ
    Blend: AUG-CC-PVTZ
  Basis Set: (AUG-CC-PVTZ AUX)
    Blend: AUG-CC-PVTZ-JKFIT

    Orbital Energies [Eh]
    ---------------------

    Doubly Occupied:

       1A    -20.559979     2A    -20.551681     3A    -15.546115
       4A    -11.286112     5A    -11.271974     6A    -11.256576
       7A    -11.225942     8A    -11.219891     9A    -11.217720
      10A     -1.366903    11A     -1.350292    12A     -1.192441
      13A     -1.087962    14A     -0.996468    15A     -0.986162
      16A     -0.840964    17A     -0.823339    18A     -0.770940
      19A     -0.697876    20A     -0.678948    21A     -0.654838
      22A     -0.641901    23A     -0.626166    24A     -0.611819
      25A     -0.592569    26A     -0.563732    27A     -0.548944
      28A     -0.530627    29A     -0.526996    30A     -0.500462
      31A     -0.490531    32A     -0.475908    33A     -0.453984
      34A     -0.444261    35A     -0.420472    36A     -0.395520

  @DF-RHF Final Energy:  -439.11041063762116

   => Energetics <=

    Nuclear Repulsion Energy =            507.0148264329644121
    One-Electron Energy =               -1605.4364405897326833
    Two-Electron Energy =                 659.3112035191471705
    Total Energy =                       -439.1104106376211575
  Basis Set: (AUG-CC-PVTZ AUX)
    Blend: AUG-CC-PVTZ-RI
    Molecular point group: c1

    Geometry (in Angstrom), charge = 0, multiplicity = 1:

       Center              X                  Y                   Z               Mass
    ------------   -----------------  -----------------  -----------------  -----------------
         O           -0.115692748920     2.063314728958    -0.900471579439    15.994914619570
         O           -2.384460748920    -1.374582271042    -0.108860579439    15.994914619570
         N            2.491365251080    -1.272708271042     0.079047420561    14.003074004430
         C            1.303411251080    -0.480010271042    -0.266268579439    12.000000000000
         C            1.245961251080     0.743605728958     0.643066420561    12.000000000000
         C            0.058266251080    -1.338071271042    -0.063867579439    12.000000000000
         C           -0.036161748920     1.547666728958     0.437942420561    12.000000000000
         C           -1.227497748920    -0.550305271042    -0.289093579439    12.000000000000
         C           -1.271960748920     0.676757728958     0.616096420561    12.000000000000
         H            1.310570251080    -0.128258271042    -1.311133579439     1.007825032230
         H            1.311975251080     0.404646728958     1.684958420561     1.007825032230
         H            2.119501251080     1.389287728958     0.466103420561     1.007825032230
         H            0.071063251080    -2.207150271042    -0.733758579439     1.007825032230
         H            0.075912251080    -1.722405271042     0.966972420561     1.007825032230
         H           -0.068132748920     2.379655728958     1.158969420561     1.007825032230
         H           -1.284337748920    -0.224477271042    -1.331581579439     1.007825032230
         H           -1.324772748920     0.345883728958     1.663523420561     1.007825032230
         H           -2.172704748920     1.261170728958     0.404120420561     1.007825032230
         H            3.329909251080    -0.723084271042    -0.114000579439     1.007825032230
         H            2.542744251080    -2.082062271042    -0.541091579439     1.007825032230
         H            0.646473851080     2.620170928958    -1.034985979439     1.007825032230
         H           -2.352364748920    -1.700458271042     0.808346420561     1.007825032230

  Basis Set: AUG-CC-PVTZ
    Blend: AUG-CC-PVTZ
  Basis Set: (AUG-CC-PVTZ AUX)
    Blend: AUG-CC-PVTZ-JKFIT
	 Reference Energy          =    -439.1104106376211575 [Eh]
	 Singles Energy            =      -0.0000000000000000 [Eh]
	 Same-Spin Energy          =      -0.4512720036966039 [Eh]
	 Opposite-Spin Energy      =      -1.4726341390422522 [Eh]
	 Correlation Energy        =      -1.9239061427388560 [Eh]
	 Total Energy              =    -441.0343167803600295 [Eh]

	 ================> DF-SCS-MP2 Energies <==================
	-----------------------------------------------------------
	 SCS Same-Spin Scale       =       0.3333333333333333 [-]
	 SCS Opposite-Spin Scale   =       1.2000000000000000 [-]
	 SCS Same-Spin Energy      =      -0.1504240012322013 [Eh]
	 SCS Opposite-Spin Energy  =      -1.7671609668507025 [Eh]
	 SCS Correlation Energy    =      -1.9175849680829038 [Eh]
	 SCS Total Energy          =    -441.0279956057040636 [Eh]
	-----------------------------------------------------------

  Dipole Moment: [D]
     X:     2.5295      Y:     1.1174      Z:     0.7504     Total:     2.8653

*** Psi4 exiting successfully. Buy a developer a beer!
