                               Psi4 1.4a3.dev225

  ==> Input File <==

--------------------------------------------------------------------------
#psi4
#
memory 32 gb

molecule  {
0 1
  O       -0.1447520     2.0657680    -0.9147710
  O       -2.4135200    -1.3721290    -0.1231600
  N        2.4623060    -1.2702550     0.0647480
  C        1.2743520    -0.4775570    -0.2805680
  C        1.2169020     0.7460590     0.6287670
  C        0.0292070    -1.3356180    -0.0781670
  C       -0.0652210     1.5501200     0.4236430
  C       -1.2408049    -0.5132841    -0.2661241
  C       -1.3010200     0.6792110     0.6017970
  H        1.2815110    -0.1258050    -1.3254330
  H        1.2829160     0.4071000     1.6706590
  H        2.0904420     1.3917410     0.4518040
  H        0.0420040    -2.2046970    -0.7480580
  H        0.0468530    -1.7199520     0.9526730
  H       -0.0971920     2.3821090     1.1446700
  H       -1.3133970    -0.2220240    -1.3458810
  H       -1.3538320     0.3483370     1.6492240
  H       -2.2017640     1.2636240     0.3898210
  H        3.3008500    -0.7206310    -0.1283000
  H        2.5136850    -2.0796090    -0.5553910
  H        0.6334020     2.6343050    -1.0521070
  H       -2.3814240    -1.6980050     0.7940470
units angstrom
no_reorient  #important for SAPT in psi4, default
symmetry c1  #important for SAPT in psi4, default
}

set PROPERTIES_ORIGIN ["COM"]
properties('MP2/aug-cc-pvtz', properties = ['dipole'])
--------------------------------------------------------------------------

    Molecular point group: c1
  Charge       = 0
  Multiplicity = 1
  Basis Set: AUG-CC-PVTZ
    Blend: AUG-CC-PVTZ
  Basis Set: (AUG-CC-PVTZ AUX)
    Blend: AUG-CC-PVTZ-JKFIT

    Orbital Energies [Eh]
    ---------------------

    Doubly Occupied:

       1A    -20.562817     2A    -20.549141     3A    -15.546222
       4A    -11.287711     5A    -11.272674     6A    -11.256578
       7A    -11.226800     8A    -11.220227     9A    -11.218544
      10A     -1.363656    11A     -1.340402    12A     -1.192830
      13A     -1.093331    14A     -0.996771    15A     -0.991340
      16A     -0.841650    17A     -0.821375    18A     -0.768535
      19A     -0.695878    20A     -0.678740    21A     -0.654718
      22A     -0.643284    23A     -0.626772    24A     -0.606597
      25A     -0.590207    26A     -0.563073    27A     -0.548550
      28A     -0.531331    29A     -0.527775    30A     -0.502656
      31A     -0.490471    32A     -0.470782    33A     -0.455220
      34A     -0.440251    35A     -0.428859    36A     -0.395965

  @DF-RHF Final Energy:  -439.10514084808153

   => Energetics <=

    Nuclear Repulsion Energy =            507.3576473300160501
    One-Electron Energy =               -1606.1221121391617999
    Two-Electron Energy =                 659.6593239610641604
    Total Energy =                       -439.1051408480815326
  Basis Set: (AUG-CC-PVTZ AUX)
    Blend: AUG-CC-PVTZ-RI
    Molecular point group: c1

    Geometry (in Angstrom), charge = 0, multiplicity = 1:

       Center              X                  Y                   Z               Mass
    ------------   -----------------  -----------------  -----------------  -----------------
         O           -0.117257555228     2.060060690199    -0.903861368368    15.994914619570
         O           -2.386025555228    -1.377836309801    -0.112250368368    15.994914619570
         N            2.489800444772    -1.275962309801     0.075657631632    14.003074004430
         C            1.301846444772    -0.483264309801    -0.269658368368    12.000000000000
         C            1.244396444772     0.740351690199     0.639676631632    12.000000000000
         C            0.056701444772    -1.341325309801    -0.067257368368    12.000000000000
         C           -0.037726555228     1.544412690199     0.434552631632    12.000000000000
         C           -1.213310455228    -0.518991409801    -0.255214468368    12.000000000000
         C           -1.273525555228     0.673503690199     0.612706631632    12.000000000000
         H            1.309005444772    -0.131512309801    -1.314523368368     1.007825032230
         H            1.310410444772     0.401392690199     1.681568631632     1.007825032230
         H            2.117936444772     1.386033690199     0.462713631632     1.007825032230
         H            0.069498444772    -2.210404309801    -0.737148368368     1.007825032230
         H            0.074347444772    -1.725659309801     0.963582631632     1.007825032230
         H           -0.069697555228     2.376401690199     1.155579631632     1.007825032230
         H           -1.285902555228    -0.227731309801    -1.334971368368     1.007825032230
         H           -1.326337555228     0.342629690199     1.660133631632     1.007825032230
         H           -2.174269555228     1.257916690199     0.400730631632     1.007825032230
         H            3.328344444772    -0.726338309801    -0.117390368368     1.007825032230
         H            2.541179444772    -2.085316309801    -0.544481368368     1.007825032230
         H            0.660896444772     2.628597690199    -1.041197368368     1.007825032230
         H           -2.353929555228    -1.703712309801     0.804956631632     1.007825032230

  Basis Set: AUG-CC-PVTZ
    Blend: AUG-CC-PVTZ
  Basis Set: (AUG-CC-PVTZ AUX)
    Blend: AUG-CC-PVTZ-JKFIT
	 Reference Energy          =    -439.1051408480815326 [Eh]
	 Singles Energy            =      -0.0000000000000000 [Eh]
	 Same-Spin Energy          =      -0.4521049491153054 [Eh]
	 Opposite-Spin Energy      =      -1.4744148665317613 [Eh]
	 Correlation Energy        =      -1.9265198156470666 [Eh]
	 Total Energy              =    -441.0316606637285872 [Eh]

	 ================> DF-SCS-MP2 Energies <==================
	-----------------------------------------------------------
	 SCS Same-Spin Scale       =       0.3333333333333333 [-]
	 SCS Opposite-Spin Scale   =       1.2000000000000000 [-]
	 SCS Same-Spin Energy      =      -0.1507016497051018 [Eh]
	 SCS Opposite-Spin Energy  =      -1.7692978398381136 [Eh]
	 SCS Correlation Energy    =      -1.9199994895432153 [Eh]
	 SCS Total Energy          =    -441.0251403376247481 [Eh]
	-----------------------------------------------------------

  Dipole Moment: [D]
     X:     2.6214      Y:     1.2307      Z:     0.7840     Total:     3.0002

*** Psi4 exiting successfully. Buy a developer a beer!
