                               Psi4 1.4a3.dev225

  ==> Input File <==

--------------------------------------------------------------------------
#psi4
#
memory 32 gb

molecule  {
0 1
  O       -0.1447520     2.0657680    -0.9147710
  O       -2.4135200    -1.3721290    -0.1231600
  N        2.4623060    -1.2702550     0.0647480
  C        1.2743520    -0.4775570    -0.2805680
  C        1.2450679     0.7902825     0.6191405
  C        0.0292070    -1.3356180    -0.0781670
  C       -0.0652210     1.5501200     0.4236430
  C       -1.2565570    -0.5478520    -0.3033930
  C       -1.3010200     0.6792110     0.6017970
  H        1.2815110    -0.1258050    -1.3254330
  H        1.2829160     0.4071000     1.6706590
  H        2.0904420     1.3917410     0.4518040
  H        0.0420040    -2.2046970    -0.7480580
  H        0.0468530    -1.7199520     0.9526730
  H       -0.0971920     2.3821090     1.1446700
  H       -1.3133970    -0.2220240    -1.3458810
  H       -1.3538320     0.3483370     1.6492240
  H       -2.2017640     1.2636240     0.3898210
  H        3.3008500    -0.7206310    -0.1283000
  H        2.5136850    -2.0796090    -0.5553910
  H        0.6334020     2.6343050    -1.0521070
  H       -2.3814240    -1.6980050     0.7940470
units angstrom
no_reorient  #important for SAPT in psi4, default
symmetry c1  #important for SAPT in psi4, default
}

set PROPERTIES_ORIGIN ["COM"]
properties('MP2/aug-cc-pvtz', properties = ['dipole'])
--------------------------------------------------------------------------

    Molecular point group: c1
  Charge       = 0
  Multiplicity = 1
  Basis Set: AUG-CC-PVTZ
    Blend: AUG-CC-PVTZ
  Basis Set: (AUG-CC-PVTZ AUX)
    Blend: AUG-CC-PVTZ-JKFIT

    Orbital Energies [Eh]
    ---------------------

    Doubly Occupied:

       1A    -20.560861     2A    -20.551686     3A    -15.545733
       4A    -11.285784     5A    -11.271955     6A    -11.257687
       7A    -11.224707     8A    -11.220767     9A    -11.218141
      10A     -1.362288    11A     -1.350148    12A     -1.190514
      13A     -1.085467    14A     -0.997105    15A     -0.984507
      16A     -0.841365    17A     -0.822841    18A     -0.769022
      19A     -0.695403    20A     -0.676055    21A     -0.653786
      22A     -0.647114    23A     -0.626483    24A     -0.610990
      25A     -0.591846    26A     -0.562254    27A     -0.547196
      28A     -0.534661    29A     -0.525624    30A     -0.499588
      31A     -0.486869    32A     -0.475760    33A     -0.456459
      34A     -0.444231    35A     -0.419352    36A     -0.392896

  @DF-RHF Final Energy:  -439.10670518651881

   => Energetics <=

    Nuclear Repulsion Energy =            506.2745646741312839
    One-Electron Energy =               -1603.9882504620484269
    Two-Electron Energy =                 658.6069806013983907
    Total Energy =                       -439.1067051865188660
  Basis Set: (AUG-CC-PVTZ AUX)
    Blend: AUG-CC-PVTZ-RI
    Molecular point group: c1

    Geometry (in Angstrom), charge = 0, multiplicity = 1:

       Center              X                  Y                   Z               Mass
    ------------   -----------------  -----------------  -----------------  -----------------
         O           -0.118393876384     2.059176846207    -0.899568707367    15.994914619570
         O           -2.387161876384    -1.378720153793    -0.107957707367    15.994914619570
         N            2.488664123616    -1.276846153793     0.079950292633    14.003074004430
         C            1.300710123616    -0.484148153793    -0.265365707367    12.000000000000
         C            1.271426023616     0.783691346207     0.634342792633    12.000000000000
         C            0.055565123616    -1.342209153793    -0.062964707367    12.000000000000
         C           -0.038862876384     1.543528846207     0.438845292633    12.000000000000
         C           -1.230198876384    -0.554443153793    -0.288190707367    12.000000000000
         C           -1.274661876384     0.672619846207     0.616999292633    12.000000000000
         H            1.307869123616    -0.132396153793    -1.310230707367     1.007825032230
         H            1.309274123616     0.400508846207     1.685861292633     1.007825032230
         H            2.116800123616     1.385149846207     0.467006292633     1.007825032230
         H            0.068362123616    -2.211288153793    -0.732855707367     1.007825032230
         H            0.073211123616    -1.726543153793     0.967875292633     1.007825032230
         H           -0.070833876384     2.375517846207     1.159872292633     1.007825032230
         H           -1.287038876384    -0.228615153793    -1.330678707367     1.007825032230
         H           -1.327473876384     0.341745846207     1.664426292633     1.007825032230
         H           -2.175405876384     1.257032846207     0.405023292633     1.007825032230
         H            3.327208123616    -0.727222153793    -0.113097707367     1.007825032230
         H            2.540043123616    -2.086200153793    -0.540188707367     1.007825032230
         H            0.659760123616     2.627713846207    -1.036904707367     1.007825032230
         H           -2.355065876384    -1.704596153793     0.809249292633     1.007825032230

  Basis Set: AUG-CC-PVTZ
    Blend: AUG-CC-PVTZ
  Basis Set: (AUG-CC-PVTZ AUX)
    Blend: AUG-CC-PVTZ-JKFIT
	 Reference Energy          =    -439.1067051865188091 [Eh]
	 Singles Energy            =      -0.0000000000000000 [Eh]
	 Same-Spin Energy          =      -0.4513028909126338 [Eh]
	 Opposite-Spin Energy      =      -1.4731931831502383 [Eh]
	 Correlation Energy        =      -1.9244960740628720 [Eh]
	 Total Energy              =    -441.0312012605816676 [Eh]

	 ================> DF-SCS-MP2 Energies <==================
	-----------------------------------------------------------
	 SCS Same-Spin Scale       =       0.3333333333333333 [-]
	 SCS Opposite-Spin Scale   =       1.2000000000000000 [-]
	 SCS Same-Spin Energy      =      -0.1504342969708779 [Eh]
	 SCS Opposite-Spin Energy  =      -1.7678318197802858 [Eh]
	 SCS Correlation Energy    =      -1.9182661167511637 [Eh]
	 SCS Total Energy          =    -441.0249713032699788 [Eh]
	-----------------------------------------------------------

  Dipole Moment: [D]
     X:     2.5496      Y:     1.1326      Z:     0.7304     Total:     2.8838

*** Psi4 exiting successfully. Buy a developer a beer!
