                               Psi4 1.4a3.dev225

  ==> Input File <==

--------------------------------------------------------------------------
#psi4
#
memory 32 gb

molecule  {
0 1
  O       -0.1447520     2.0657680    -0.9147710
  O       -2.4135200    -1.3721290    -0.1231600
  N        2.4623060    -1.2702550     0.0647480
  C        1.2743520    -0.4775570    -0.2805680
  C        1.2169020     0.7460590     0.6287670
  C        0.0292070    -1.3356180    -0.0781670
  C       -0.0652210     1.5501200     0.4236430
  C       -1.2403977    -0.5363393    -0.3059103
  C       -1.3010200     0.6792110     0.6017970
  H        1.2815110    -0.1258050    -1.3254330
  H        1.2829160     0.4071000     1.6706590
  H        2.0904420     1.3917410     0.4518040
  H        0.0420040    -2.2046970    -0.7480580
  H        0.0468530    -1.7199520     0.9526730
  H       -0.0971920     2.3821090     1.1446700
  H       -1.3133970    -0.2220240    -1.3458810
  H       -1.3538320     0.3483370     1.6492240
  H       -2.2017640     1.2636240     0.3898210
  H        3.3008500    -0.7206310    -0.1283000
  H        2.5136850    -2.0796090    -0.5553910
  H        0.6334020     2.6343050    -1.0521070
  H       -2.3814240    -1.6980050     0.7940470
units angstrom
no_reorient  #important for SAPT in psi4, default
symmetry c1  #important for SAPT in psi4, default
}

set PROPERTIES_ORIGIN ["COM"]
properties('MP2/aug-cc-pvtz', properties = ['dipole'])
--------------------------------------------------------------------------

    Molecular point group: c1
  Charge       = 0
  Multiplicity = 1
  Basis Set: AUG-CC-PVTZ
    Blend: AUG-CC-PVTZ
  Basis Set: (AUG-CC-PVTZ AUX)
    Blend: AUG-CC-PVTZ-JKFIT

    Orbital Energies [Eh]
    ---------------------

    Doubly Occupied:

       1A    -20.562316     2A    -20.549042     3A    -15.546303
       4A    -11.286179     5A    -11.271896     6A    -11.256750
       7A    -11.226244     8A    -11.220394     9A    -11.218145
      10A     -1.362979    11A     -1.342321    12A     -1.192777
      13A     -1.089226    14A     -0.997428    15A     -0.987107
      16A     -0.840386    17A     -0.823262    18A     -0.769742
      19A     -0.695505    20A     -0.677994    21A     -0.654892
      22A     -0.642244    23A     -0.624728    24A     -0.610013
      25A     -0.590323    26A     -0.563481    27A     -0.547356
      28A     -0.528822    29A     -0.527495    30A     -0.501572
      31A     -0.490239    32A     -0.477540    33A     -0.453325
      34A     -0.444522    35A     -0.422527    36A     -0.395835

  @DF-RHF Final Energy:  -439.10867446460304

   => Energetics <=

    Nuclear Repulsion Energy =            506.9996962000402050
    One-Electron Energy =               -1605.4349274228065951
    Two-Electron Energy =                 659.3265567581632922
    Total Energy =                       -439.1086744646030411
  Basis Set: (AUG-CC-PVTZ AUX)
    Blend: AUG-CC-PVTZ-RI
    Molecular point group: c1

    Geometry (in Angstrom), charge = 0, multiplicity = 1:

       Center              X                  Y                   Z               Mass
    ------------   -----------------  -----------------  -----------------  -----------------
         O           -0.117294829067     2.062171092455    -0.900219461718    15.994914619570
         O           -2.386062829067    -1.375725907545    -0.108608461718    15.994914619570
         N            2.489763170933    -1.273851907545     0.079299538282    14.003074004430
         C            1.301809170933    -0.481153907545    -0.266016461718    12.000000000000
         C            1.244359170933     0.742462092455     0.643318538282    12.000000000000
         C            0.056664170933    -1.339214907545    -0.063615461718    12.000000000000
         C           -0.037763829067     1.546523092455     0.438194538282    12.000000000000
         C           -1.212940529067    -0.539936207545    -0.291358761718    12.000000000000
         C           -1.273562829067     0.675614092455     0.616348538282    12.000000000000
         H            1.308968170933    -0.129401907545    -1.310881461718     1.007825032230
         H            1.310373170933     0.403503092455     1.685210538282     1.007825032230
         H            2.117899170933     1.388144092455     0.466355538282     1.007825032230
         H            0.069461170933    -2.208293907545    -0.733506461718     1.007825032230
         H            0.074310170933    -1.723548907545     0.967224538282     1.007825032230
         H           -0.069734829067     2.378512092455     1.159221538282     1.007825032230
         H           -1.285939829067    -0.225620907545    -1.331329461718     1.007825032230
         H           -1.326374829067     0.344740092455     1.663775538282     1.007825032230
         H           -2.174306829067     1.260027092455     0.404372538282     1.007825032230
         H            3.328307170933    -0.724227907545    -0.113748461718     1.007825032230
         H            2.541142170933    -2.083205907545    -0.540839461718     1.007825032230
         H            0.660859170933     2.630708092455    -1.037555461718     1.007825032230
         H           -2.353966829067    -1.701601907545     0.808598538282     1.007825032230

  Basis Set: AUG-CC-PVTZ
    Blend: AUG-CC-PVTZ
  Basis Set: (AUG-CC-PVTZ AUX)
    Blend: AUG-CC-PVTZ-JKFIT
	 Reference Energy          =    -439.1086744646030411 [Eh]
	 Singles Energy            =      -0.0000000000000000 [Eh]
	 Same-Spin Energy          =      -0.4516381146678787 [Eh]
	 Opposite-Spin Energy      =      -1.4736421738520842 [Eh]
	 Correlation Energy        =      -1.9252802885199629 [Eh]
	 Total Energy              =    -441.0339547531229982 [Eh]

	 ================> DF-SCS-MP2 Energies <==================
	-----------------------------------------------------------
	 SCS Same-Spin Scale       =       0.3333333333333333 [-]
	 SCS Opposite-Spin Scale   =       1.2000000000000000 [-]
	 SCS Same-Spin Energy      =      -0.1505460382226262 [Eh]
	 SCS Opposite-Spin Energy  =      -1.7683706086225011 [Eh]
	 SCS Correlation Energy    =      -1.9189166468451273 [Eh]
	 SCS Total Energy          =    -441.0275911114481460 [Eh]
	-----------------------------------------------------------

  Dipole Moment: [D]
     X:     2.6040      Y:     1.1719      Z:     0.7434     Total:     2.9508

*** Psi4 exiting successfully. Buy a developer a beer!
