                               Psi4 1.4a3.dev225

  ==> Input File <==

--------------------------------------------------------------------------
#psi4
#
memory 32 gb

molecule  {
0 1
  O       -0.1447520     2.0657680    -0.9147710
  O       -2.4135200    -1.3721290    -0.1231600
  N        2.4623060    -1.2702550     0.0647480
  C        1.2743520    -0.4775570    -0.2805680
  C        1.2169020     0.7460590     0.6287670
  C        0.0292070    -1.3356180    -0.0781670
  C       -0.0652210     1.5501200     0.4236430
  C       -1.2565570    -0.5478520    -0.3033930
  C       -1.3010200     0.6792110     0.6017970
  H        1.2815110    -0.1258050    -1.3254330
  H        1.2829160     0.4071000     1.6706590
  H        2.0904420     1.3917410     0.4518040
  H        0.0420040    -2.2046970    -0.7480580
  H        0.0468530    -1.7199520     0.9526730
  H       -0.0971920     2.3821090     1.1446700
  H       -1.3133970    -0.2220240    -1.3458810
  H       -1.3538320     0.3483370     1.6492240
  H       -2.2017640     1.2636240     0.3898210
  H        3.3008500    -0.7206310    -0.1283000
  H        2.5146915    -2.0954645    -0.5675397
  H        0.6334020     2.6343050    -1.0521070
  H       -2.3814240    -1.6980050     0.7940470
units angstrom
no_reorient  #important for SAPT in psi4, default
symmetry c1  #important for SAPT in psi4, default
}

set PROPERTIES_ORIGIN ["COM"]
properties('MP2/aug-cc-pvtz', properties = ['dipole'])
--------------------------------------------------------------------------

    Molecular point group: c1
  Charge       = 0
  Multiplicity = 1
  Basis Set: AUG-CC-PVTZ
    Blend: AUG-CC-PVTZ
  Basis Set: (AUG-CC-PVTZ AUX)
    Blend: AUG-CC-PVTZ-JKFIT

    Orbital Energies [Eh]
    ---------------------

    Doubly Occupied:

       1A    -20.561910     2A    -20.551628     3A    -15.548292
       4A    -11.285996     5A    -11.271909     6A    -11.256528
       7A    -11.225920     8A    -11.219874     9A    -11.217616
      10A     -1.362689    11A     -1.350088    12A     -1.190397
      13A     -1.086707    14A     -0.996081    15A     -0.985262
      16A     -0.840328    17A     -0.822738    18A     -0.769529
      19A     -0.696032    20A     -0.677777    21A     -0.652267
      22A     -0.641161    23A     -0.625688    24A     -0.611679
      25A     -0.591585    26A     -0.563091    27A     -0.548123
      28A     -0.530396    29A     -0.526706    30A     -0.499867
      31A     -0.490341    32A     -0.475673    33A     -0.453631
      34A     -0.444057    35A     -0.420329    36A     -0.395211

  @DF-RHF Final Energy:  -439.10849836904418

   => Energetics <=

    Nuclear Repulsion Energy =            506.7796225515777451
    One-Electron Energy =               -1605.0020294550479321
    Two-Electron Energy =                 659.1139085344259456
    Total Energy =                       -439.1084983690441277
  Basis Set: (AUG-CC-PVTZ AUX)
    Blend: AUG-CC-PVTZ-RI
    Molecular point group: c1

    Geometry (in Angstrom), charge = 0, multiplicity = 1:

       Center              X                  Y                   Z               Mass
    ------------   -----------------  -----------------  -----------------  -----------------
         O           -0.115823394073     2.063346823081    -0.900356491253    15.994914619570
         O           -2.384591394073    -1.374550176919    -0.108745491253    15.994914619570
         N            2.491234605927    -1.272676176919     0.079162508747    14.003074004430
         C            1.303280605927    -0.479978176919    -0.266153491253    12.000000000000
         C            1.245830605927     0.743637823081     0.643181508747    12.000000000000
         C            0.058135605927    -1.338039176919    -0.063752491253    12.000000000000
         C           -0.036292394073     1.547698823081     0.438057508747    12.000000000000
         C           -1.227628394073    -0.550273176919    -0.288978491253    12.000000000000
         C           -1.272091394073     0.676789823081     0.616211508747    12.000000000000
         H            1.310439605927    -0.128226176919    -1.311018491253     1.007825032230
         H            1.311844605927     0.404678823081     1.685073508747     1.007825032230
         H            2.119370605927     1.389319823081     0.466218508747     1.007825032230
         H            0.070932605927    -2.207118176919    -0.733643491253     1.007825032230
         H            0.075781605927    -1.722373176919     0.967087508747     1.007825032230
         H           -0.068263394073     2.379687823081     1.159084508747     1.007825032230
         H           -1.284468394073    -0.224445176919    -1.331466491253     1.007825032230
         H           -1.324903394073     0.345915823081     1.663638508747     1.007825032230
         H           -2.172835394073     1.261202823081     0.404235508747     1.007825032230
         H            3.329778605927    -0.723052176919    -0.113885491253     1.007825032230
         H            2.543620105927    -2.097885676919    -0.553125191253     1.007825032230
         H            0.662330605927     2.631883823081    -1.037692491253     1.007825032230
         H           -2.352495394073    -1.700426176919     0.808461508747     1.007825032230

  Basis Set: AUG-CC-PVTZ
    Blend: AUG-CC-PVTZ
  Basis Set: (AUG-CC-PVTZ AUX)
    Blend: AUG-CC-PVTZ-JKFIT
	 Reference Energy          =    -439.1084983690441845 [Eh]
	 Singles Energy            =      -0.0000000000000000 [Eh]
	 Same-Spin Energy          =      -0.4516228499217624 [Eh]
	 Opposite-Spin Energy      =      -1.4736372256824393 [Eh]
	 Correlation Energy        =      -1.9252600756042018 [Eh]
	 Total Energy              =    -441.0337584446484129 [Eh]

	 ================> DF-SCS-MP2 Energies <==================
	-----------------------------------------------------------
	 SCS Same-Spin Scale       =       0.3333333333333333 [-]
	 SCS Opposite-Spin Scale   =       1.2000000000000000 [-]
	 SCS Same-Spin Energy      =      -0.1505409499739208 [Eh]
	 SCS Opposite-Spin Energy  =      -1.7683646708189271 [Eh]
	 SCS Correlation Energy    =      -1.9189056207928479 [Eh]
	 SCS Total Energy          =    -441.0274039898370120 [Eh]
	-----------------------------------------------------------

  Dipole Moment: [D]
     X:     2.5339      Y:     1.1271      Z:     0.7451     Total:     2.8717

*** Psi4 exiting successfully. Buy a developer a beer!
