                               Psi4 1.4a3.dev225

  ==> Input File <==

--------------------------------------------------------------------------
#psi4
#
memory 32 gb

molecule  {
0 1
  O       -0.1447520     2.0657680    -0.9147710
  O       -2.4135200    -1.3721290    -0.1231600
  N        2.4623060    -1.2702550     0.0647480
  C        1.2743520    -0.4775570    -0.2805680
  C        1.2169020     0.7460590     0.6287670
  C        0.0292070    -1.3356180    -0.0781670
  C       -0.0652210     1.5501200     0.4236430
  C       -1.2565570    -0.5478520    -0.3033930
  C       -1.3010200     0.6792110     0.6017970
  H        1.2815110    -0.1258050    -1.3254330
  H        1.2829160     0.4071000     1.6706590
  H        2.0904420     1.3917410     0.4518040
  H        0.0420040    -2.2046970    -0.7480580
  H        0.0468530    -1.7199520     0.9526730
  H       -0.0971920     2.3821090     1.1446700
  H       -1.3133970    -0.2220240    -1.3458810
  H       -1.3538320     0.3483370     1.6492240
  H       -2.2017640     1.2636240     0.3898210
  H        3.3008500    -0.7206310    -0.1283000
  H        2.5136850    -2.0796090    -0.5553910
  H        0.7932763     2.7511128    -1.0803231
  H       -2.3814240    -1.6980050     0.7940470
units angstrom
no_reorient  #important for SAPT in psi4, default
symmetry c1  #important for SAPT in psi4, default
}

set PROPERTIES_ORIGIN ["COM"]
properties('MP2/aug-cc-pvtz', properties = ['dipole'])
--------------------------------------------------------------------------

    Molecular point group: c1
  Charge       = 0
  Multiplicity = 1
  Basis Set: AUG-CC-PVTZ
    Blend: AUG-CC-PVTZ
  Basis Set: (AUG-CC-PVTZ AUX)
    Blend: AUG-CC-PVTZ-JKFIT

    Orbital Energies [Eh]
    ---------------------

    Doubly Occupied:

       1A    -20.577497     2A    -20.551461     3A    -15.545542
       4A    -11.284593     5A    -11.271778     6A    -11.255683
       7A    -11.224735     8A    -11.220148     9A    -11.217285
      10A     -1.350903    11A     -1.331416    12A     -1.191397
      13A     -1.082947    14A     -0.993291    15A     -0.984307
      16A     -0.836717    17A     -0.822117    18A     -0.760455
      19A     -0.686869    20A     -0.662647    21A     -0.653948
      22A     -0.638113    23A     -0.622132    24A     -0.610703
      25A     -0.585266    26A     -0.561443    27A     -0.546006
      28A     -0.527706    29A     -0.524769    30A     -0.492749
      31A     -0.489069    32A     -0.475264    33A     -0.450213
      34A     -0.443091    35A     -0.419558    36A     -0.394656

  @DF-RHF Final Energy:  -439.07371545693110

   => Energetics <=

    Nuclear Repulsion Energy =            505.7657968605129213
    One-Electron Energy =               -1603.1060718267242464
    Two-Electron Energy =                 658.2665595092803414
    Total Energy =                       -439.0737154569310405
  Basis Set: (AUG-CC-PVTZ AUX)
    Blend: AUG-CC-PVTZ-RI
    Molecular point group: c1

    Geometry (in Angstrom), charge = 0, multiplicity = 1:

       Center              X                  Y                   Z               Mass
    ------------   -----------------  -----------------  -----------------  -----------------
         O           -0.117044732790     2.062326938468    -0.900232968816    15.994914619570
         O           -2.385812732790    -1.375570061532    -0.108621968816    15.994914619570
         N            2.490013267210    -1.273696061532     0.079286031184    14.003074004430
         C            1.302059267210    -0.480998061532    -0.266029968816    12.000000000000
         C            1.244609267210     0.742617938468     0.643305031184    12.000000000000
         C            0.056914267210    -1.339059061532    -0.063628968816    12.000000000000
         C           -0.037513732790     1.546678938468     0.438181031184    12.000000000000
         C           -1.228849732790    -0.551293061532    -0.288854968816    12.000000000000
         C           -1.273312732790     0.675769938468     0.616335031184    12.000000000000
         H            1.309218267210    -0.129246061532    -1.310894968816     1.007825032230
         H            1.310623267210     0.403658938468     1.685197031184     1.007825032230
         H            2.118149267210     1.388299938468     0.466342031184     1.007825032230
         H            0.069711267210    -2.208138061532    -0.733519968816     1.007825032230
         H            0.074560267210    -1.723393061532     0.967211031184     1.007825032230
         H           -0.069484732790     2.378667938468     1.159208031184     1.007825032230
         H           -1.285689732790    -0.225465061532    -1.331342968816     1.007825032230
         H           -1.326124732790     0.344895938468     1.663762031184     1.007825032230
         H           -2.174056732790     1.260182938468     0.404359031184     1.007825032230
         H            3.328557267210    -0.724072061532    -0.113761968816     1.007825032230
         H            2.541392267210    -2.083050061532    -0.540852968816     1.007825032230
         H            0.820983567210     2.747671738468    -1.065785068816     1.007825032230
         H           -2.353716732790    -1.701446061532     0.808585031184     1.007825032230

  Basis Set: AUG-CC-PVTZ
    Blend: AUG-CC-PVTZ
  Basis Set: (AUG-CC-PVTZ AUX)
    Blend: AUG-CC-PVTZ-JKFIT
	 Reference Energy          =    -439.0737154569310974 [Eh]
	 Singles Energy            =      -0.0000000000000000 [Eh]
	 Same-Spin Energy          =      -0.4537658425125923 [Eh]
	 Opposite-Spin Energy      =      -1.4802068157105184 [Eh]
	 Correlation Energy        =      -1.9339726582231107 [Eh]
	 Total Energy              =    -441.0076881151542239 [Eh]

	 ================> DF-SCS-MP2 Energies <==================
	-----------------------------------------------------------
	 SCS Same-Spin Scale       =       0.3333333333333333 [-]
	 SCS Opposite-Spin Scale   =       1.2000000000000000 [-]
	 SCS Same-Spin Energy      =      -0.1512552808375308 [Eh]
	 SCS Opposite-Spin Energy  =      -1.7762481788526221 [Eh]
	 SCS Correlation Energy    =      -1.9275034596901528 [Eh]
	 SCS Total Energy          =    -441.0012189166212693 [Eh]
	-----------------------------------------------------------

  Dipole Moment: [D]
     X:     2.6009      Y:     1.2008      Z:     0.7128     Total:     2.9520

*** Psi4 exiting successfully. Buy a developer a beer!
