                               Psi4 1.4a3.dev225

  ==> Input File <==

--------------------------------------------------------------------------
#psi4
#
memory 32 gb

molecule  {
0 1
  O       -0.1447520     2.0657680    -0.9147710
  O       -2.4135200    -1.3721290    -0.1231600
  N        2.4623060    -1.2702550     0.0647480
  C        1.2743520    -0.4775570    -0.2805680
  C        1.2169020     0.7460590     0.6287670
  C        0.0292070    -1.3356180    -0.0781670
  C       -0.0652210     1.5501200     0.4236430
  C       -1.2502995    -0.4463979    -0.4265325
  C       -1.3010200     0.6792110     0.6017970
  H        1.2815110    -0.1258050    -1.3254330
  H        1.2829160     0.4071000     1.6706590
  H        2.0904420     1.3917410     0.4518040
  H        0.0420040    -2.2046970    -0.7480580
  H        0.0468530    -1.7199520     0.9526730
  H       -0.0971920     2.3821090     1.1446700
  H       -1.3133970    -0.2220240    -1.3458810
  H       -1.3538320     0.3483370     1.6492240
  H       -2.2017640     1.2636240     0.3898210
  H        3.3008500    -0.7206310    -0.1283000
  H        2.5136850    -2.0796090    -0.5553910
  H        0.6334020     2.6343050    -1.0521070
  H       -2.3814240    -1.6980050     0.7940470
units angstrom
no_reorient  #important for SAPT in psi4, default
symmetry c1  #important for SAPT in psi4, default
}

set PROPERTIES_ORIGIN ["COM"]
properties('MP2/aug-cc-pvtz', properties = ['dipole'])
--------------------------------------------------------------------------

    Molecular point group: c1
  Charge       = 0
  Multiplicity = 1
  Basis Set: AUG-CC-PVTZ
    Blend: AUG-CC-PVTZ
  Basis Set: (AUG-CC-PVTZ AUX)
    Blend: AUG-CC-PVTZ-JKFIT

    Orbital Energies [Eh]
    ---------------------

    Doubly Occupied:

       1A    -20.564691     2A    -20.537122     3A    -15.545323
       4A    -11.286419     5A    -11.272951     6A    -11.254798
       7A    -11.226370     8A    -11.224111     9A    -11.221970
      10A     -1.365281    11A     -1.314868    12A     -1.191480
      13A     -1.087826    14A     -0.994247    15A     -0.986708
      16A     -0.854398    17A     -0.822055    18A     -0.775049
      19A     -0.695550    20A     -0.675425    21A     -0.651821
      22A     -0.640055    23A     -0.624688    24A     -0.611414
      25A     -0.587723    26A     -0.564132    27A     -0.540411
      28A     -0.528612    29A     -0.525315    30A     -0.512248
      31A     -0.493715    32A     -0.482963    33A     -0.451071
      34A     -0.436693    35A     -0.412571    36A     -0.393508

  @DF-RHF Final Energy:  -439.07639845813031

   => Energetics <=

    Nuclear Repulsion Energy =            506.0649169252286015
    One-Electron Energy =               -1603.5754687231603839
    Two-Electron Energy =                 658.4341533398015827
    Total Energy =                       -439.0763984581302566
  Basis Set: (AUG-CC-PVTZ AUX)
    Blend: AUG-CC-PVTZ-RI
    Molecular point group: c1

    Geometry (in Angstrom), charge = 0, multiplicity = 1:

       Center              X                  Y                   Z               Mass
    ------------   -----------------  -----------------  -----------------  -----------------
         O           -0.116388448682     2.053938132714    -0.889178075699    15.994914619570
         O           -2.385156448682    -1.383958867286    -0.097567075699    15.994914619570
         N            2.490669551318    -1.282084867286     0.090340924301    14.003074004430
         C            1.302715551318    -0.489386867286    -0.254975075699    12.000000000000
         C            1.245265551318     0.734229132714     0.654359924301    12.000000000000
         C            0.057570551318    -1.347447867286    -0.052574075699    12.000000000000
         C           -0.036857448682     1.538290132714     0.449235924301    12.000000000000
         C           -1.221935948682    -0.458227767286    -0.400939575699    12.000000000000
         C           -1.272656448682     0.667381132714     0.627389924301    12.000000000000
         H            1.309874551318    -0.137634867286    -1.299840075699     1.007825032230
         H            1.311279551318     0.395270132714     1.696251924301     1.007825032230
         H            2.118805551318     1.379911132714     0.477396924301     1.007825032230
         H            0.070367551318    -2.216526867286    -0.722465075699     1.007825032230
         H            0.075216551318    -1.731781867286     0.978265924301     1.007825032230
         H           -0.068828448682     2.370279132714     1.170262924301     1.007825032230
         H           -1.285033448682    -0.233853867286    -1.320288075699     1.007825032230
         H           -1.325468448682     0.336507132714     1.674816924301     1.007825032230
         H           -2.173400448682     1.251794132714     0.415413924301     1.007825032230
         H            3.329213551318    -0.732460867286    -0.102707075699     1.007825032230
         H            2.542048551318    -2.091438867286    -0.529798075699     1.007825032230
         H            0.661765551318     2.622475132714    -1.026514075699     1.007825032230
         H           -2.353060448682    -1.709834867286     0.819639924301     1.007825032230

  Basis Set: AUG-CC-PVTZ
    Blend: AUG-CC-PVTZ
  Basis Set: (AUG-CC-PVTZ AUX)
    Blend: AUG-CC-PVTZ-JKFIT
	 Reference Energy          =    -439.0763984581303134 [Eh]
	 Singles Energy            =      -0.0000000000000000 [Eh]
	 Same-Spin Energy          =      -0.4513614239915559 [Eh]
	 Opposite-Spin Energy      =      -1.4748489418808579 [Eh]
	 Correlation Energy        =      -1.9262103658724139 [Eh]
	 Total Energy              =    -441.0026088240027207 [Eh]

	 ================> DF-SCS-MP2 Energies <==================
	-----------------------------------------------------------
	 SCS Same-Spin Scale       =       0.3333333333333333 [-]
	 SCS Opposite-Spin Scale   =       1.2000000000000000 [-]
	 SCS Same-Spin Energy      =      -0.1504538079971853 [Eh]
	 SCS Opposite-Spin Energy  =      -1.7698187302570294 [Eh]
	 SCS Correlation Energy    =      -1.9202725382542147 [Eh]
	 SCS Total Energy          =    -440.9966709963845233 [Eh]
	-----------------------------------------------------------

  Dipole Moment: [D]
     X:     2.6941      Y:     1.3695      Z:     0.6630     Total:     3.0941

*** Psi4 exiting successfully. Buy a developer a beer!
