                               Psi4 1.4a3.dev225

  ==> Input File <==

--------------------------------------------------------------------------
#psi4
#
memory 32 gb

molecule  {
0 1
  O       -0.1447520     2.0657680    -0.9147710
  O       -2.4135200    -1.3721290    -0.1231600
  N        2.4623060    -1.2702550     0.0647480
  C        1.2743520    -0.4775570    -0.2805680
  C        1.2169020     0.7460590     0.6287670
  C        0.0292070    -1.3356180    -0.0781670
  C       -0.0652210     1.5501200     0.4236430
  C       -1.2565570    -0.5478520    -0.3033930
  C       -1.3010200     0.6792110     0.6017970
  H        1.2815110    -0.1258050    -1.3254330
  H        1.2829160     0.4071000     1.6706590
  H        2.0904420     1.3917410     0.4518040
  H        0.0420040    -2.2046970    -0.7480580
  H        0.0468530    -1.7199520     0.9526730
  H       -0.0971920     2.3821090     1.1446700
  H       -1.3133970    -0.2220240    -1.3458810
  H       -1.3538320     0.3483370     1.6492240
  H       -2.1853037     1.2529444     0.3936947
  H        3.3008500    -0.7206310    -0.1283000
  H        2.5136850    -2.0796090    -0.5553910
  H        0.6334020     2.6343050    -1.0521070
  H       -2.3814240    -1.6980050     0.7940470
units angstrom
no_reorient  #important for SAPT in psi4, default
symmetry c1  #important for SAPT in psi4, default
}

set PROPERTIES_ORIGIN ["COM"]
properties('MP2/aug-cc-pvtz', properties = ['dipole'])
--------------------------------------------------------------------------

    Molecular point group: c1
  Charge       = 0
  Multiplicity = 1
  Basis Set: AUG-CC-PVTZ
    Blend: AUG-CC-PVTZ
  Basis Set: (AUG-CC-PVTZ AUX)
    Blend: AUG-CC-PVTZ-JKFIT

    Orbital Energies [Eh]
    ---------------------

    Doubly Occupied:

       1A    -20.561886     2A    -20.551637     3A    -15.545972
       4A    -11.285775     5A    -11.271769     6A    -11.256382
       7A    -11.225670     8A    -11.217509     9A    -11.217494
      10A     -1.362670    11A     -1.350093    12A     -1.192234
      13A     -1.087541    14A     -0.995936    15A     -0.986836
      16A     -0.840310    17A     -0.823986    18A     -0.769615
      19A     -0.696175    20A     -0.678364    21A     -0.654694
      22A     -0.642690    23A     -0.625734    24A     -0.611618
      25A     -0.592328    26A     -0.563504    27A     -0.549028
      28A     -0.531552    29A     -0.526677    30A     -0.499889
      31A     -0.490536    32A     -0.475950    33A     -0.453750
      34A     -0.444169    35A     -0.420361    36A     -0.395353

  @DF-RHF Final Energy:  -439.10955834518518

   => Energetics <=

    Nuclear Repulsion Energy =            506.9942575322501170
    One-Electron Energy =               -1605.4162608494814322
    Two-Electron Energy =                 659.3124449720462508
    Total Energy =                       -439.1095583451851780
  Basis Set: (AUG-CC-PVTZ AUX)
    Blend: AUG-CC-PVTZ-RI
    Molecular point group: c1

    Geometry (in Angstrom), charge = 0, multiplicity = 1:

       Center              X                  Y                   Z               Mass
    ------------   -----------------  -----------------  -----------------  -----------------
         O           -0.115942199295     2.063307031965    -0.900479667740    15.994914619570
         O           -2.384710199295    -1.374589968035    -0.108868667740    15.994914619570
         N            2.491115800705    -1.272715968035     0.079039332260    14.003074004430
         C            1.303161800705    -0.480017968035    -0.266276667740    12.000000000000
         C            1.245711800705     0.743598031965     0.643058332260    12.000000000000
         C            0.058016800705    -1.338078968035    -0.063875667740    12.000000000000
         C           -0.036411199295     1.547659031965     0.437934332260    12.000000000000
         C           -1.227747199295    -0.550312968035    -0.289101667740    12.000000000000
         C           -1.272210199295     0.676750031965     0.616088332260    12.000000000000
         H            1.310320800705    -0.128265968035    -1.311141667740     1.007825032230
         H            1.311725800705     0.404639031965     1.684950332260     1.007825032230
         H            2.119251800705     1.389280031965     0.466095332260     1.007825032230
         H            0.070813800705    -2.207157968035    -0.733766667740     1.007825032230
         H            0.075662800705    -1.722412968035     0.966964332260     1.007825032230
         H           -0.068382199295     2.379648031965     1.158961332260     1.007825032230
         H           -1.284587199295    -0.224484968035    -1.331589667740     1.007825032230
         H           -1.325022199295     0.345876031965     1.663515332260     1.007825032230
         H           -2.156493899295     1.250483431965     0.407986032260     1.007825032230
         H            3.329659800705    -0.723091968035    -0.114008667740     1.007825032230
         H            2.542494800705    -2.082069968035    -0.541099667740     1.007825032230
         H            0.662211800705     2.631844031965    -1.037815667740     1.007825032230
         H           -2.352614199295    -1.700465968035     0.808338332260     1.007825032230

  Basis Set: AUG-CC-PVTZ
    Blend: AUG-CC-PVTZ
  Basis Set: (AUG-CC-PVTZ AUX)
    Blend: AUG-CC-PVTZ-JKFIT
	 Reference Energy          =    -439.1095583451851780 [Eh]
	 Singles Energy            =      -0.0000000000000000 [Eh]
	 Same-Spin Energy          =      -0.4514974831478776 [Eh]
	 Opposite-Spin Energy      =      -1.4731329258328894 [Eh]
	 Correlation Energy        =      -1.9246304089807671 [Eh]
	 Total Energy              =    -441.0341887541659389 [Eh]

	 ================> DF-SCS-MP2 Energies <==================
	-----------------------------------------------------------
	 SCS Same-Spin Scale       =       0.3333333333333333 [-]
	 SCS Opposite-Spin Scale   =       1.2000000000000000 [-]
	 SCS Same-Spin Energy      =      -0.1504991610492925 [Eh]
	 SCS Opposite-Spin Energy  =      -1.7677595109994673 [Eh]
	 SCS Correlation Energy    =      -1.9182586720487598 [Eh]
	 SCS Total Energy          =    -441.0278170172339287 [Eh]
	-----------------------------------------------------------

  Dipole Moment: [D]
     X:     2.5276      Y:     1.1332      Z:     0.7466     Total:     2.8688

*** Psi4 exiting successfully. Buy a developer a beer!
