                               Psi4 1.4a3.dev225

  ==> Input File <==

--------------------------------------------------------------------------
#psi4
#
memory 32 gb

molecule  {
0 1
  O       -0.1447520     2.0657680    -0.9147710
  O       -2.4135200    -1.3721290    -0.1231600
  N        2.4623060    -1.2702550     0.0647480
  C        1.2743520    -0.4775570    -0.2805680
  C        1.2169020     0.7460590     0.6287670
  C        0.0292070    -1.3356180    -0.0781670
  C       -0.0652210     1.5501200     0.4236430
  C       -1.2565570    -0.5478520    -0.3033930
  C       -1.3010200     0.6792110     0.6017970
  H        1.2815110    -0.1258050    -1.3254330
  H        1.2829160     0.4071000     1.6706590
  H        2.0904420     1.3917410     0.4518040
  H        0.0420040    -2.2046970    -0.7480580
  H        0.0468530    -1.7199520     0.9526730
  H       -0.0971920     2.3821090     1.1446700
  H       -1.3133970    -0.2220240    -1.3458810
  H       -1.3538320     0.3483370     1.6492240
  H       -2.2017640     1.2636240     0.3898210
  H        3.3008500    -0.7206310    -0.1283000
  H        2.5036197    -1.9210543    -0.4339040
  H        0.6334020     2.6343050    -1.0521070
  H       -2.3814240    -1.6980050     0.7940470
units angstrom
no_reorient  #important for SAPT in psi4, default
symmetry c1  #important for SAPT in psi4, default
}

set PROPERTIES_ORIGIN ["COM"]
properties('MP2/aug-cc-pvtz', properties = ['dipole'])
--------------------------------------------------------------------------

    Molecular point group: c1
  Charge       = 0
  Multiplicity = 1
  Basis Set: AUG-CC-PVTZ
    Blend: AUG-CC-PVTZ
  Basis Set: (AUG-CC-PVTZ AUX)
    Blend: AUG-CC-PVTZ-JKFIT

    Orbital Energies [Eh]
    ---------------------

    Doubly Occupied:

       1A    -20.561821     2A    -20.551819     3A    -15.521539
       4A    -11.285560     5A    -11.272219     6A    -11.256559
       7A    -11.225385     8A    -11.219894     9A    -11.218188
      10A     -1.362601    11A     -1.350270    12A     -1.224033
      13A     -1.095433    14A     -0.996269    15A     -0.994529
      16A     -0.841555    17A     -0.829469    18A     -0.770345
      19A     -0.696384    20A     -0.694220    21A     -0.673818
      22A     -0.642947    23A     -0.626730    24A     -0.611874
      25A     -0.595150    26A     -0.567414    27A     -0.551958
      28A     -0.530477    29A     -0.527134    30A     -0.500114
      31A     -0.490792    32A     -0.477135    33A     -0.453754
      34A     -0.444817    35A     -0.421101    36A     -0.398127

  @DF-RHF Final Energy:  -439.06697658916227

   => Energetics <=

    Nuclear Repulsion Energy =            508.1333684905137602
    One-Electron Energy =               -1607.4378153367092636
    Two-Electron Energy =                 660.2374702570332374
    Total Energy =                       -439.0669765891623229
  Basis Set: (AUG-CC-PVTZ AUX)
    Blend: AUG-CC-PVTZ-RI
    Molecular point group: c1

    Geometry (in Angstrom), charge = 0, multiplicity = 1:

       Center              X                  Y                   Z               Mass
    ------------   -----------------  -----------------  -----------------  -----------------
         O           -0.115738276648     2.062005998005    -0.901383851451    15.994914619570
         O           -2.384506276648    -1.375891001995    -0.109772851451    15.994914619570
         N            2.491319723352    -1.274017001995     0.078135148549    14.003074004430
         C            1.303365723352    -0.481319001995    -0.267180851451    12.000000000000
         C            1.245915723352     0.742296998005     0.642154148549    12.000000000000
         C            0.058220723352    -1.339380001995    -0.064779851451    12.000000000000
         C           -0.036207276648     1.546357998005     0.437030148549    12.000000000000
         C           -1.227543276648    -0.551614001995    -0.290005851451    12.000000000000
         C           -1.272006276648     0.675448998005     0.615184148549    12.000000000000
         H            1.310524723352    -0.129567001995    -1.312045851451     1.007825032230
         H            1.311929723352     0.403337998005     1.684046148549     1.007825032230
         H            2.119455723352     1.387978998005     0.465191148549     1.007825032230
         H            0.071017723352    -2.208459001995    -0.734670851451     1.007825032230
         H            0.075866723352    -1.723714001995     0.966060148549     1.007825032230
         H           -0.068178276648     2.378346998005     1.158057148549     1.007825032230
         H           -1.284383276648    -0.225786001995    -1.332493851451     1.007825032230
         H           -1.324818276648     0.344574998005     1.662611148549     1.007825032230
         H           -2.172750276648     1.259861998005     0.403208148549     1.007825032230
         H            3.329863723352    -0.724393001995    -0.114912851451     1.007825032230
         H            2.532633423352    -1.924816301995    -0.420516851451     1.007825032230
         H            0.662415723352     2.630542998005    -1.038719851451     1.007825032230
         H           -2.352410276648    -1.701767001995     0.807434148549     1.007825032230

  Basis Set: AUG-CC-PVTZ
    Blend: AUG-CC-PVTZ
  Basis Set: (AUG-CC-PVTZ AUX)
    Blend: AUG-CC-PVTZ-JKFIT
	 Reference Energy          =    -439.0669765891622660 [Eh]
	 Singles Energy            =      -0.0000000000000000 [Eh]
	 Same-Spin Energy          =      -0.4505304333680846 [Eh]
	 Opposite-Spin Energy      =      -1.4704586569028679 [Eh]
	 Correlation Energy        =      -1.9209890902709525 [Eh]
	 Total Energy              =    -440.9879656794332163 [Eh]

	 ================> DF-SCS-MP2 Energies <==================
	-----------------------------------------------------------
	 SCS Same-Spin Scale       =       0.3333333333333333 [-]
	 SCS Opposite-Spin Scale   =       1.2000000000000000 [-]
	 SCS Same-Spin Energy      =      -0.1501768111226949 [Eh]
	 SCS Opposite-Spin Energy  =      -1.7645503882834415 [Eh]
	 SCS Correlation Energy    =      -1.9147271994061363 [Eh]
	 SCS Total Energy          =    -440.9817037885683817 [Eh]
	-----------------------------------------------------------

  Dipole Moment: [D]
     X:     2.5582      Y:     1.1622      Z:     0.7546     Total:     2.9094

*** Psi4 exiting successfully. Buy a developer a beer!
