                               Psi4 1.4a3.dev225

  ==> Input File <==

--------------------------------------------------------------------------
#psi4
#
memory 32 gb

molecule  {
0 1
  O       -0.1447520     2.0657680    -0.9147710
  O       -2.4135200    -1.3721290    -0.1231600
  N        2.4623060    -1.2702550     0.0647480
  C        1.2743520    -0.4775570    -0.2805680
  C        1.2169020     0.7460590     0.6287670
  C        0.0292070    -1.3356180    -0.0781670
  C       -0.0652210     1.5501200     0.4236430
  C       -1.2565570    -0.5478520    -0.3033930
  C       -1.3010200     0.6792110     0.6017970
  H        1.2818357    -0.1098526    -1.3728188
  H        1.2829160     0.4071000     1.6706590
  H        2.0904420     1.3917410     0.4518040
  H        0.0420040    -2.2046970    -0.7480580
  H        0.0468530    -1.7199520     0.9526730
  H       -0.0971920     2.3821090     1.1446700
  H       -1.3133970    -0.2220240    -1.3458810
  H       -1.3538320     0.3483370     1.6492240
  H       -2.2017640     1.2636240     0.3898210
  H        3.3008500    -0.7206310    -0.1283000
  H        2.5136850    -2.0796090    -0.5553910
  H        0.6334020     2.6343050    -1.0521070
  H       -2.3814240    -1.6980050     0.7940470
units angstrom
no_reorient  #important for SAPT in psi4, default
symmetry c1  #important for SAPT in psi4, default
}

set PROPERTIES_ORIGIN ["COM"]
properties('MP2/aug-cc-pvtz', properties = ['dipole'])
--------------------------------------------------------------------------

    Molecular point group: c1
  Charge       = 0
  Multiplicity = 1
  Basis Set: AUG-CC-PVTZ
    Blend: AUG-CC-PVTZ
  Basis Set: (AUG-CC-PVTZ AUX)
    Blend: AUG-CC-PVTZ-JKFIT

    Orbital Energies [Eh]
    ---------------------

    Doubly Occupied:

       1A    -20.561543     2A    -20.551711     3A    -15.546866
       4A    -11.285976     5A    -11.271944     6A    -11.262565
       7A    -11.226386     8A    -11.219906     9A    -11.218218
      10A     -1.362396    11A     -1.350150    12A     -1.192129
      13A     -1.087460    14A     -0.996278    15A     -0.985408
      16A     -0.840541    17A     -0.820973    18A     -0.766860
      19A     -0.695697    20A     -0.675873    21A     -0.654673
      22A     -0.640773    23A     -0.625956    24A     -0.611720
      25A     -0.590984    26A     -0.563278    27A     -0.548500
      28A     -0.530517    29A     -0.526690    30A     -0.499409
      31A     -0.489254    32A     -0.475926    33A     -0.453697
      34A     -0.444365    35A     -0.420337    36A     -0.393515

  @DF-RHF Final Energy:  -439.10723394620334

   => Energetics <=

    Nuclear Repulsion Energy =            506.6368117081643732
    One-Electron Energy =               -1604.7111464325321322
    Two-Electron Energy =                 658.9671007781645358
    Total Energy =                       -439.1072339462033369
  Basis Set: (AUG-CC-PVTZ AUX)
    Blend: AUG-CC-PVTZ-RI
    Molecular point group: c1

    Geometry (in Angstrom), charge = 0, multiplicity = 1:

       Center              X                  Y                   Z               Mass
    ------------   -----------------  -----------------  -----------------  -----------------
         O           -0.115818152553     2.063102291339    -0.900085596619    15.994914619570
         O           -2.384586152553    -1.374794708661    -0.108474596619    15.994914619570
         N            2.491239847447    -1.272920708661     0.079433403381    14.003074004430
         C            1.303285847447    -0.480222708661    -0.265882596619    12.000000000000
         C            1.245835847447     0.743393291339     0.643452403381    12.000000000000
         C            0.058140847447    -1.338283708661    -0.063481596619    12.000000000000
         C           -0.036287152553     1.547454291339     0.438328403381    12.000000000000
         C           -1.227623152553    -0.550517708661    -0.288707596619    12.000000000000
         C           -1.272086152553     0.676545291339     0.616482403381    12.000000000000
         H            1.310769547447    -0.112518308661    -1.358133396619     1.007825032230
         H            1.311849847447     0.404434291339     1.685344403381     1.007825032230
         H            2.119375847447     1.389075291339     0.466489403381     1.007825032230
         H            0.070937847447    -2.207362708661    -0.733372596619     1.007825032230
         H            0.075786847447    -1.722617708661     0.967358403381     1.007825032230
         H           -0.068258152553     2.379443291339     1.159355403381     1.007825032230
         H           -1.284463152553    -0.224689708661    -1.331195596619     1.007825032230
         H           -1.324898152553     0.345671291339     1.663909403381     1.007825032230
         H           -2.172830152553     1.260958291339     0.404506403381     1.007825032230
         H            3.329783847447    -0.723296708661    -0.113614596619     1.007825032230
         H            2.542618847447    -2.082274708661    -0.540705596619     1.007825032230
         H            0.662335847447     2.631639291339    -1.037421596619     1.007825032230
         H           -2.352490152553    -1.700670708661     0.808732403381     1.007825032230

  Basis Set: AUG-CC-PVTZ
    Blend: AUG-CC-PVTZ
  Basis Set: (AUG-CC-PVTZ AUX)
    Blend: AUG-CC-PVTZ-JKFIT
	 Reference Energy          =    -439.1072339462033369 [Eh]
	 Singles Energy            =      -0.0000000000000000 [Eh]
	 Same-Spin Energy          =      -0.4515962021016965 [Eh]
	 Opposite-Spin Energy      =      -1.4736898489256944 [Eh]
	 Correlation Energy        =      -1.9252860510273910 [Eh]
	 Total Energy              =    -441.0325199972307360 [Eh]

	 ================> DF-SCS-MP2 Energies <==================
	-----------------------------------------------------------
	 SCS Same-Spin Scale       =       0.3333333333333333 [-]
	 SCS Opposite-Spin Scale   =       1.2000000000000000 [-]
	 SCS Same-Spin Energy      =      -0.1505320673672322 [Eh]
	 SCS Opposite-Spin Energy  =      -1.7684278187108333 [Eh]
	 SCS Correlation Energy    =      -1.9189598860780654 [Eh]
	 SCS Total Energy          =    -441.0261938322814217 [Eh]
	-----------------------------------------------------------

  Dipole Moment: [D]
     X:     2.5470      Y:     1.1090      Z:     0.7823     Total:     2.8860

*** Psi4 exiting successfully. Buy a developer a beer!
