                               Psi4 1.4a3.dev225

  ==> Input File <==

--------------------------------------------------------------------------
#psi4
#
memory 32 gb

molecule  {
0 1
  O       -0.1447520     2.0657680    -0.9147710
  O       -2.4135200    -1.3721290    -0.1231600
  N        2.4623060    -1.2702550     0.0647480
  C        1.2743520    -0.4775570    -0.2805680
  C        1.2169020     0.7460590     0.6287670
  C        0.0292070    -1.3356180    -0.0781670
  C       -0.0652210     1.5501200     0.4236430
  C       -1.2565570    -0.5478520    -0.3033930
  C       -1.3010200     0.6792110     0.6017970
  H        1.2815110    -0.1258050    -1.3254330
  H        1.2829160     0.4071000     1.6706590
  H        2.0904420     1.3917410     0.4518040
  H        0.0420040    -2.2046970    -0.7480580
  H        0.0468530    -1.7199520     0.9526730
  H       -0.0971920     2.3821090     1.1446700
  H       -1.3133970    -0.2220240    -1.3458810
  H       -1.3538320     0.3483370     1.6492240
  H       -2.2017640     1.2636240     0.3898210
  H        3.3008500    -0.7206310    -0.1283000
  H        2.5136850    -2.0796090    -0.5553910
  H        0.5934334     2.6051031    -1.0450530
  H       -2.3814240    -1.6980050     0.7940470
units angstrom
no_reorient  #important for SAPT in psi4, default
symmetry c1  #important for SAPT in psi4, default
}

set PROPERTIES_ORIGIN ["COM"]
properties('MP2/aug-cc-pvtz', properties = ['dipole'])
--------------------------------------------------------------------------

    Molecular point group: c1
  Charge       = 0
  Multiplicity = 1
  Basis Set: AUG-CC-PVTZ
    Blend: AUG-CC-PVTZ
  Basis Set: (AUG-CC-PVTZ AUX)
    Blend: AUG-CC-PVTZ-JKFIT

    Orbital Energies [Eh]
    ---------------------

    Doubly Occupied:

       1A    -20.556995     2A    -20.551752     3A    -15.546205
       4A    -11.286409     5A    -11.272051     6A    -11.256714
       7A    -11.226134     8A    -11.219957     9A    -11.217807
      10A     -1.373963    11A     -1.350494    12A     -1.192613
      13A     -1.088928    14A     -0.997115    15A     -0.986462
      16A     -0.841945    17A     -0.823559    18A     -0.773181
      19A     -0.700858    20A     -0.680079    21A     -0.654992
      22A     -0.642291    23A     -0.626665    24A     -0.612041
      25A     -0.593383    26A     -0.564077    27A     -0.549338
      28A     -0.530982    29A     -0.527390    30A     -0.501324
      31A     -0.490810    32A     -0.476035    33A     -0.454549
      34A     -0.444482    35A     -0.420645    36A     -0.395668

  @DF-RHF Final Energy:  -439.11023749836255

   => Energetics <=

    Nuclear Repulsion Energy =            507.2171041300537695
    One-Electron Energy =               -1605.7988985214651620
    Two-Electron Energy =                 659.4715568930488416
    Total Energy =                       -439.1102374983626078
  Basis Set: (AUG-CC-PVTZ AUX)
    Blend: AUG-CC-PVTZ-RI
    Molecular point group: c1

    Geometry (in Angstrom), charge = 0, multiplicity = 1:

       Center              X                  Y                   Z               Mass
    ------------   -----------------  -----------------  -----------------  -----------------
         O           -0.115508387029     2.063449427102    -0.900504117147    15.994914619570
         O           -2.384276387029    -1.374447572898    -0.108893117147    15.994914619570
         N            2.491549612971    -1.272573572898     0.079014882853    14.003074004430
         C            1.303595612971    -0.479875572898    -0.266301117147    12.000000000000
         C            1.246145612971     0.743740427102     0.643033882853    12.000000000000
         C            0.058450612971    -1.337936572898    -0.063900117147    12.000000000000
         C           -0.035977387029     1.547801427102     0.437909882853    12.000000000000
         C           -1.227313387029    -0.550170572898    -0.289126117147    12.000000000000
         C           -1.271776387029     0.676892427102     0.616063882853    12.000000000000
         H            1.310754612971    -0.128123572898    -1.311166117147     1.007825032230
         H            1.312159612971     0.404781427102     1.684925882853     1.007825032230
         H            2.119685612971     1.389422427102     0.466070882853     1.007825032230
         H            0.071247612971    -2.207015572898    -0.733791117147     1.007825032230
         H            0.076096612971    -1.722270572898     0.966939882853     1.007825032230
         H           -0.067948387029     2.379790427102     1.158936882853     1.007825032230
         H           -1.284153387029    -0.224342572898    -1.331614117147     1.007825032230
         H           -1.324588387029     0.346018427102     1.663490882853     1.007825032230
         H           -2.172520387029     1.261305427102     0.404087882853     1.007825032230
         H            3.330093612971    -0.722949572898    -0.114033117147     1.007825032230
         H            2.542928612971    -2.081927572898    -0.541124117147     1.007825032230
         H            0.622677012971     2.602784527102    -1.030786117147     1.007825032230
         H           -2.352180387029    -1.700323572898     0.808313882853     1.007825032230

  Basis Set: AUG-CC-PVTZ
    Blend: AUG-CC-PVTZ
  Basis Set: (AUG-CC-PVTZ AUX)
    Blend: AUG-CC-PVTZ-JKFIT
	 Reference Energy          =    -439.1102374983625509 [Eh]
	 Singles Energy            =      -0.0000000000000000 [Eh]
	 Same-Spin Energy          =      -0.4509030768485689 [Eh]
	 Opposite-Spin Energy      =      -1.4716938823710046 [Eh]
	 Correlation Energy        =      -1.9225969592195735 [Eh]
	 Total Energy              =    -441.0328344575821120 [Eh]

	 ================> DF-SCS-MP2 Energies <==================
	-----------------------------------------------------------
	 SCS Same-Spin Scale       =       0.3333333333333333 [-]
	 SCS Opposite-Spin Scale   =       1.2000000000000000 [-]
	 SCS Same-Spin Energy      =      -0.1503010256161896 [Eh]
	 SCS Opposite-Spin Energy  =      -1.7660326588452055 [Eh]
	 SCS Correlation Energy    =      -1.9163336844613952 [Eh]
	 SCS Total Energy          =    -441.0265711828239432 [Eh]
	-----------------------------------------------------------

  Dipole Moment: [D]
     X:     2.5171      Y:     1.1017      Z:     0.7591     Total:     2.8506

*** Psi4 exiting successfully. Buy a developer a beer!
