                               Psi4 1.4a3.dev225

  ==> Input File <==

--------------------------------------------------------------------------
#psi4
#
memory 32 gb

molecule  {
0 1
  O       -0.1447520     2.0657680    -0.9147710
  O       -2.4135200    -1.3721290    -0.1231600
  N        2.4623060    -1.2702550     0.0647480
  C        1.2743520    -0.4775570    -0.2805680
  C        1.2169020     0.7460590     0.6287670
  C        0.0524729    -1.3197990    -0.1807981
  C       -0.0652210     1.5501200     0.4236430
  C       -1.2565570    -0.5478520    -0.3033930
  C       -1.3010200     0.6792110     0.6017970
  H        1.2815110    -0.1258050    -1.3254330
  H        1.2829160     0.4071000     1.6706590
  H        2.0904420     1.3917410     0.4518040
  H        0.0420040    -2.2046970    -0.7480580
  H        0.0468530    -1.7199520     0.9526730
  H       -0.0971920     2.3821090     1.1446700
  H       -1.3133970    -0.2220240    -1.3458810
  H       -1.3538320     0.3483370     1.6492240
  H       -2.2017640     1.2636240     0.3898210
  H        3.3008500    -0.7206310    -0.1283000
  H        2.5136850    -2.0796090    -0.5553910
  H        0.6334020     2.6343050    -1.0521070
  H       -2.3814240    -1.6980050     0.7940470
units angstrom
no_reorient  #important for SAPT in psi4, default
symmetry c1  #important for SAPT in psi4, default
}

set PROPERTIES_ORIGIN ["COM"]
properties('MP2/aug-cc-pvtz', properties = ['dipole'])
--------------------------------------------------------------------------

    Molecular point group: c1
  Charge       = 0
  Multiplicity = 1
  Basis Set: AUG-CC-PVTZ
    Blend: AUG-CC-PVTZ
  Basis Set: (AUG-CC-PVTZ AUX)
    Blend: AUG-CC-PVTZ-JKFIT

    Orbital Energies [Eh]
    ---------------------

    Doubly Occupied:

       1A    -20.562156     2A    -20.553537     3A    -15.546924
       4A    -11.286513     5A    -11.273072     6A    -11.256143
       7A    -11.227289     8A    -11.222198     9A    -11.221170
      10A     -1.363017    11A     -1.350786    12A     -1.194853
      13A     -1.088285    14A     -0.999398    15A     -0.988249
      16A     -0.842142    17A     -0.826778    18A     -0.765650
      19A     -0.697183    20A     -0.677936    21A     -0.656342
      22A     -0.648407    23A     -0.626508    24A     -0.610720
      25A     -0.590114    26A     -0.568593    27A     -0.554382
      28A     -0.530925    29A     -0.518103    30A     -0.504318
      31A     -0.489533    32A     -0.468641    33A     -0.454611
      34A     -0.438965    35A     -0.424100    36A     -0.394204

  @DF-RHF Final Energy:  -439.09762692201434

   => Energetics <=

    Nuclear Repulsion Energy =            507.0502844331537631
    One-Electron Energy =               -1605.4523337764746884
    Two-Electron Energy =                 659.3044224213065263
    Total Energy =                       -439.0976269220143422
  Basis Set: (AUG-CC-PVTZ AUX)
    Blend: AUG-CC-PVTZ-RI
    Molecular point group: c1

    Geometry (in Angstrom), charge = 0, multiplicity = 1:

       Center              X                  Y                   Z               Mass
    ------------   -----------------  -----------------  -----------------  -----------------
         O           -0.117945345422     2.061776906968    -0.891055351698    15.994914619570
         O           -2.386713345422    -1.376120093032    -0.099444351698    15.994914619570
         N            2.489112654578    -1.274246093032     0.088463648302    14.003074004430
         C            1.301158654578    -0.481548093032    -0.256852351698    12.000000000000
         C            1.243708654578     0.742067906968     0.652482648302    12.000000000000
         C            0.079279554578    -1.323790093032    -0.157082451698    12.000000000000
         C           -0.038414345422     1.546128906968     0.447358648302    12.000000000000
         C           -1.229750345422    -0.551843093032    -0.279677351698    12.000000000000
         C           -1.274213345422     0.675219906968     0.625512648302    12.000000000000
         H            1.308317654578    -0.129796093032    -1.301717351698     1.007825032230
         H            1.309722654578     0.403108906968     1.694374648302     1.007825032230
         H            2.117248654578     1.387749906968     0.475519648302     1.007825032230
         H            0.068810654578    -2.208688093032    -0.724342351698     1.007825032230
         H            0.073659654578    -1.723943093032     0.976388648302     1.007825032230
         H           -0.070385345422     2.378117906968     1.168385648302     1.007825032230
         H           -1.286590345422    -0.226015093032    -1.322165351698     1.007825032230
         H           -1.327025345422     0.344345906968     1.672939648302     1.007825032230
         H           -2.174957345422     1.259632906968     0.413536648302     1.007825032230
         H            3.327656654578    -0.724622093032    -0.104584351698     1.007825032230
         H            2.540491654578    -2.083600093032    -0.531675351698     1.007825032230
         H            0.660208654578     2.630313906968    -1.028391351698     1.007825032230
         H           -2.354617345422    -1.701996093032     0.817762648302     1.007825032230

  Basis Set: AUG-CC-PVTZ
    Blend: AUG-CC-PVTZ
  Basis Set: (AUG-CC-PVTZ AUX)
    Blend: AUG-CC-PVTZ-JKFIT
	 Reference Energy          =    -439.0976269220143422 [Eh]
	 Singles Energy            =      -0.0000000000000000 [Eh]
	 Same-Spin Energy          =      -0.4520433432307635 [Eh]
	 Opposite-Spin Energy      =      -1.4742380306361855 [Eh]
	 Correlation Energy        =      -1.9262813738669489 [Eh]
	 Total Energy              =    -441.0239082958813128 [Eh]

	 ================> DF-SCS-MP2 Energies <==================
	-----------------------------------------------------------
	 SCS Same-Spin Scale       =       0.3333333333333333 [-]
	 SCS Opposite-Spin Scale   =       1.2000000000000000 [-]
	 SCS Same-Spin Energy      =      -0.1506811144102545 [Eh]
	 SCS Opposite-Spin Energy  =      -1.7690856367634227 [Eh]
	 SCS Correlation Energy    =      -1.9197667511736771 [Eh]
	 SCS Total Energy          =    -441.0173936731879962 [Eh]
	-----------------------------------------------------------

  Dipole Moment: [D]
     X:     2.5392      Y:     1.1581      Z:     0.6680     Total:     2.8697

*** Psi4 exiting successfully. Buy a developer a beer!
