                               Psi4 1.4a3.dev225

  ==> Input File <==

--------------------------------------------------------------------------
#psi4
#
memory 32 gb

molecule  {
0 1
  O       -0.1447520     2.0657680    -0.9147710
  O       -2.4135200    -1.3721290    -0.1231600
  N        2.4623060    -1.2702550     0.0647480
  C        1.2743520    -0.4775570    -0.2805680
  C        1.2169020     0.7460590     0.6287670
  C        0.0292070    -1.3356180    -0.0781670
  C       -0.0652210     1.5501200     0.4236430
  C       -1.2498814    -0.5524307    -0.2797484
  C       -1.3010200     0.6792110     0.6017970
  H        1.2815110    -0.1258050    -1.3254330
  H        1.2829160     0.4071000     1.6706590
  H        2.0904420     1.3917410     0.4518040
  H        0.0420040    -2.2046970    -0.7480580
  H        0.0468530    -1.7199520     0.9526730
  H       -0.0971920     2.3821090     1.1446700
  H       -1.3133970    -0.2220240    -1.3458810
  H       -1.3538320     0.3483370     1.6492240
  H       -2.2017640     1.2636240     0.3898210
  H        3.3008500    -0.7206310    -0.1283000
  H        2.5136850    -2.0796090    -0.5553910
  H        0.6334020     2.6343050    -1.0521070
  H       -2.3814240    -1.6980050     0.7940470
units angstrom
no_reorient  #important for SAPT in psi4, default
symmetry c1  #important for SAPT in psi4, default
}

set PROPERTIES_ORIGIN ["COM"]
properties('MP2/aug-cc-pvtz', properties = ['dipole'])
--------------------------------------------------------------------------

    Molecular point group: c1
  Charge       = 0
  Multiplicity = 1
  Basis Set: AUG-CC-PVTZ
    Blend: AUG-CC-PVTZ
  Basis Set: (AUG-CC-PVTZ AUX)
    Blend: AUG-CC-PVTZ-JKFIT

    Orbital Energies [Eh]
    ---------------------

    Doubly Occupied:

       1A    -20.561813     2A    -20.552523     3A    -15.546296
       4A    -11.286309     5A    -11.272447     6A    -11.256896
       7A    -11.226091     8A    -11.219900     9A    -11.217626
      10A     -1.362694    11A     -1.351098    12A     -1.192717
      13A     -1.088955    14A     -0.997331    15A     -0.987019
      16A     -0.839611    17A     -0.823320    18A     -0.768696
      19A     -0.696219    20A     -0.678524    21A     -0.655346
      22A     -0.642460    23A     -0.626630    24A     -0.609513
      25A     -0.591949    26A     -0.563392    27A     -0.550059
      28A     -0.532394    29A     -0.526849    30A     -0.499373
      31A     -0.490671    32A     -0.471438    33A     -0.454066
      34A     -0.443834    35A     -0.422818    36A     -0.395861

  @DF-RHF Final Energy:  -439.10822106637545

   => Energetics <=

    Nuclear Repulsion Energy =            507.1031040192267483
    One-Electron Energy =               -1605.6171763964016463
    Two-Electron Energy =                 659.4058513107994486
    Total Energy =                       -439.1082210663754495
  Basis Set: (AUG-CC-PVTZ AUX)
    Blend: AUG-CC-PVTZ-RI
    Molecular point group: c1

    Geometry (in Angstrom), charge = 0, multiplicity = 1:

       Center              X                  Y                   Z               Mass
    ------------   -----------------  -----------------  -----------------  -----------------
         O           -0.116426720272     2.063644049829    -0.902614241757    15.994914619570
         O           -2.385194720272    -1.374252950171    -0.111003241757    15.994914619570
         N            2.490631279728    -1.272378950171     0.076904758243    14.003074004430
         C            1.302677279728    -0.479680950171    -0.268411241757    12.000000000000
         C            1.245227279728     0.743935049829     0.640923758243    12.000000000000
         C            0.057532279728    -1.337741950171    -0.066010241757    12.000000000000
         C           -0.036895720272     1.547996049829     0.435799758243    12.000000000000
         C           -1.221556120272    -0.554554650171    -0.267591641757    12.000000000000
         C           -1.272694720272     0.677087049829     0.613953758243    12.000000000000
         H            1.309836279728    -0.127928950171    -1.313276241757     1.007825032230
         H            1.311241279728     0.404976049829     1.682815758243     1.007825032230
         H            2.118767279728     1.389617049829     0.463960758243     1.007825032230
         H            0.070329279728    -2.206820950171    -0.735901241757     1.007825032230
         H            0.075178279728    -1.722075950171     0.964829758243     1.007825032230
         H           -0.068866720272     2.379985049829     1.156826758243     1.007825032230
         H           -1.285071720272    -0.224147950171    -1.333724241757     1.007825032230
         H           -1.325506720272     0.346213049829     1.661380758243     1.007825032230
         H           -2.173438720272     1.261500049829     0.401977758243     1.007825032230
         H            3.329175279728    -0.722754950171    -0.116143241757     1.007825032230
         H            2.542010279728    -2.081732950171    -0.543234241757     1.007825032230
         H            0.661727279728     2.632181049829    -1.039950241757     1.007825032230
         H           -2.353098720272    -1.700128950171     0.806203758243     1.007825032230

  Basis Set: AUG-CC-PVTZ
    Blend: AUG-CC-PVTZ
  Basis Set: (AUG-CC-PVTZ AUX)
    Blend: AUG-CC-PVTZ-JKFIT
	 Reference Energy          =    -439.1082210663754495 [Eh]
	 Singles Energy            =      -0.0000000000000000 [Eh]
	 Same-Spin Energy          =      -0.4517611009357086 [Eh]
	 Opposite-Spin Energy      =      -1.4736360738265433 [Eh]
	 Correlation Energy        =      -1.9253971747622518 [Eh]
	 Total Energy              =    -441.0336182411376740 [Eh]

	 ================> DF-SCS-MP2 Energies <==================
	-----------------------------------------------------------
	 SCS Same-Spin Scale       =       0.3333333333333333 [-]
	 SCS Opposite-Spin Scale   =       1.2000000000000000 [-]
	 SCS Same-Spin Energy      =      -0.1505870336452362 [Eh]
	 SCS Opposite-Spin Energy  =      -1.7683632885918519 [Eh]
	 SCS Correlation Energy    =      -1.9189503222370881 [Eh]
	 SCS Total Energy          =    -441.0271713886125440 [Eh]
	-----------------------------------------------------------

  Dipole Moment: [D]
     X:     2.5523      Y:     1.1253      Z:     0.7674     Total:     2.8930

*** Psi4 exiting successfully. Buy a developer a beer!
