                               Psi4 1.4a3.dev225

  ==> Input File <==

--------------------------------------------------------------------------
#psi4
#
memory 32 gb

molecule  {
0 1
  O       -0.1447520     2.0657680    -0.9147710
  O       -2.4135200    -1.3721290    -0.1231600
  N        2.4623060    -1.2702550     0.0647480
  C        1.2743520    -0.4775570    -0.2805680
  C        1.2169020     0.7460590     0.6287670
  C        0.0292070    -1.3356180    -0.0781670
  C       -0.0652210     1.5501200     0.4236430
  C       -1.2565570    -0.5478520    -0.3033930
  C       -1.3010200     0.6792110     0.6017970
  H        1.2815110    -0.1258050    -1.3254330
  H        1.2829160     0.4071000     1.6706590
  H        2.0904420     1.3917410     0.4518040
  H        0.0420040    -2.2046970    -0.7480580
  H        0.0468530    -1.7199520     0.9526730
  H       -0.0971920     2.3821090     1.1446700
  H       -1.3133970    -0.2220240    -1.3458810
  H       -1.3538320     0.3483370     1.6492240
  H       -2.2017640     1.2636240     0.3898210
  H        3.1365961    -0.8282913    -0.0904858
  H        2.5136850    -2.0796090    -0.5553910
  H        0.6334020     2.6343050    -1.0521070
  H       -2.3814240    -1.6980050     0.7940470
units angstrom
no_reorient  #important for SAPT in psi4, default
symmetry c1  #important for SAPT in psi4, default
}

set PROPERTIES_ORIGIN ["COM"]
properties('MP2/aug-cc-pvtz', properties = ['dipole'])
--------------------------------------------------------------------------

    Molecular point group: c1
  Charge       = 0
  Multiplicity = 1
  Basis Set: AUG-CC-PVTZ
    Blend: AUG-CC-PVTZ
  Basis Set: (AUG-CC-PVTZ AUX)
    Blend: AUG-CC-PVTZ-JKFIT

    Orbital Energies [Eh]
    ---------------------

    Doubly Occupied:

       1A    -20.562076     2A    -20.551411     3A    -15.521289
       4A    -11.286192     5A    -11.271541     6A    -11.256509
       7A    -11.226326     8A    -11.219866     9A    -11.217192
      10A     -1.362848    11A     -1.349897    12A     -1.223954
      13A     -1.095419    14A     -0.997542    15A     -0.993243
      16A     -0.841242    17A     -0.829561    18A     -0.770687
      19A     -0.705943    20A     -0.681907    21A     -0.673108
      22A     -0.641730    23A     -0.631686    24A     -0.612845
      25A     -0.594464    26A     -0.567001    27A     -0.550743
      28A     -0.530645    29A     -0.527190    30A     -0.500187
      31A     -0.490873    32A     -0.476250    33A     -0.453922
      34A     -0.445204    35A     -0.420878    36A     -0.398026

  @DF-RHF Final Energy:  -439.06704424020933

   => Energetics <=

    Nuclear Repulsion Energy =            508.1389188522936706
    One-Electron Energy =               -1607.4531292408953504
    Two-Electron Energy =                 660.2471661483923526
    Total Energy =                       -439.0670442402092704
  Basis Set: (AUG-CC-PVTZ AUX)
    Blend: AUG-CC-PVTZ-RI
    Molecular point group: c1

    Geometry (in Angstrom), charge = 0, multiplicity = 1:

       Center              X                  Y                   Z               Mass
    ------------   -----------------  -----------------  -----------------  -----------------
         O           -0.114552910532     2.064052597043    -0.900740594414    15.994914619570
         O           -2.383320910532    -1.373844402957    -0.109129594414    15.994914619570
         N            2.492505089468    -1.271970402957     0.078778405586    14.003074004430
         C            1.304551089468    -0.479272402957    -0.266537594414    12.000000000000
         C            1.247101089468     0.744343597043     0.642797405586    12.000000000000
         C            0.059406089468    -1.337333402957    -0.064136594414    12.000000000000
         C           -0.035021910532     1.548404597043     0.437673405586    12.000000000000
         C           -1.226357910532    -0.549567402957    -0.289362594414    12.000000000000
         C           -1.270820910532     0.677495597043     0.615827405586    12.000000000000
         H            1.311710089468    -0.127520402957    -1.311402594414     1.007825032230
         H            1.313115089468     0.405384597043     1.684689405586     1.007825032230
         H            2.120641089468     1.390025597043     0.465834405586     1.007825032230
         H            0.072203089468    -2.206412402957    -0.734027594414     1.007825032230
         H            0.077052089468    -1.721667402957     0.966703405586     1.007825032230
         H           -0.066992910532     2.380393597043     1.158700405586     1.007825032230
         H           -1.283197910532    -0.223739402957    -1.331850594414     1.007825032230
         H           -1.323632910532     0.346621597043     1.663254405586     1.007825032230
         H           -2.171564910532     1.261908597043     0.403851405586     1.007825032230
         H            3.166795189468    -0.830006702957    -0.076455394414     1.007825032230
         H            2.543884089468    -2.081324402957    -0.541360594414     1.007825032230
         H            0.663601089468     2.632589597043    -1.038076594414     1.007825032230
         H           -2.351224910532    -1.699720402957     0.808077405586     1.007825032230

  Basis Set: AUG-CC-PVTZ
    Blend: AUG-CC-PVTZ
  Basis Set: (AUG-CC-PVTZ AUX)
    Blend: AUG-CC-PVTZ-JKFIT
	 Reference Energy          =    -439.0670442402093272 [Eh]
	 Singles Energy            =      -0.0000000000000000 [Eh]
	 Same-Spin Energy          =      -0.4505386458969671 [Eh]
	 Opposite-Spin Energy      =      -1.4704656870249773 [Eh]
	 Correlation Energy        =      -1.9210043329219444 [Eh]
	 Total Energy              =    -440.9880485731312660 [Eh]

	 ================> DF-SCS-MP2 Energies <==================
	-----------------------------------------------------------
	 SCS Same-Spin Scale       =       0.3333333333333333 [-]
	 SCS Opposite-Spin Scale   =       1.2000000000000000 [-]
	 SCS Same-Spin Energy      =      -0.1501795486323224 [Eh]
	 SCS Opposite-Spin Energy  =      -1.7645588244299726 [Eh]
	 SCS Correlation Energy    =      -1.9147383730622949 [Eh]
	 SCS Total Energy          =    -440.9817826132716050 [Eh]
	-----------------------------------------------------------

  Dipole Moment: [D]
     X:     2.5267      Y:     1.0984      Z:     0.7309     Total:     2.8504

*** Psi4 exiting successfully. Buy a developer a beer!
