                               Psi4 1.4a3.dev225

  ==> Input File <==

--------------------------------------------------------------------------
#psi4
#
memory 32 gb

molecule  {
0 1
  O       -0.1447520     2.0657680    -0.9147710
  O       -2.4135200    -1.3721290    -0.1231600
  N        2.4623060    -1.2702550     0.0647480
  C        1.2743520    -0.4775570    -0.2805680
  C        1.2169020     0.7460590     0.6287670
  C        0.0292070    -1.3356180    -0.0781670
  C       -0.0652210     1.5501200     0.4236430
  C       -1.2565570    -0.5478520    -0.3033930
  C       -1.2847841     0.6906530     0.5994564
  H        1.2815110    -0.1258050    -1.3254330
  H        1.2829160     0.4071000     1.6706590
  H        2.0904420     1.3917410     0.4518040
  H        0.0420040    -2.2046970    -0.7480580
  H        0.0468530    -1.7199520     0.9526730
  H       -0.0971920     2.3821090     1.1446700
  H       -1.3133970    -0.2220240    -1.3458810
  H       -1.3538320     0.3483370     1.6492240
  H       -2.2017640     1.2636240     0.3898210
  H        3.3008500    -0.7206310    -0.1283000
  H        2.5136850    -2.0796090    -0.5553910
  H        0.6334020     2.6343050    -1.0521070
  H       -2.3814240    -1.6980050     0.7940470
units angstrom
no_reorient  #important for SAPT in psi4, default
symmetry c1  #important for SAPT in psi4, default
}

set PROPERTIES_ORIGIN ["COM"]
properties('MP2/aug-cc-pvtz', properties = ['dipole'])
--------------------------------------------------------------------------

    Molecular point group: c1
  Charge       = 0
  Multiplicity = 1
  Basis Set: AUG-CC-PVTZ
    Blend: AUG-CC-PVTZ
  Basis Set: (AUG-CC-PVTZ AUX)
    Blend: AUG-CC-PVTZ-JKFIT

    Orbital Energies [Eh]
    ---------------------

    Doubly Occupied:

       1A    -20.561942     2A    -20.552477     3A    -15.546068
       4A    -11.285158     5A    -11.272377     6A    -11.256514
       7A    -11.225886     8A    -11.220387     9A    -11.217471
      10A     -1.363150    11A     -1.350325    12A     -1.192385
      13A     -1.088636    14A     -0.996709    15A     -0.986148
      16A     -0.840986    17A     -0.822599    18A     -0.769372
      19A     -0.696727    20A     -0.678221    21A     -0.654972
      22A     -0.641203    23A     -0.626412    24A     -0.611619
      25A     -0.591697    26A     -0.563977    27A     -0.548269
      28A     -0.529211    29A     -0.526405    30A     -0.500870
      31A     -0.490699    32A     -0.475423    33A     -0.455471
      34A     -0.444340    35A     -0.419074    36A     -0.395359

  @DF-RHF Final Energy:  -439.10883514619383

   => Energetics <=

    Nuclear Repulsion Energy =            507.0663434098450466
    One-Electron Energy =               -1605.5532789807216432
    Two-Electron Energy =                 659.3781004246827706
    Total Energy =                       -439.1088351461937691
  Basis Set: (AUG-CC-PVTZ AUX)
    Blend: AUG-CC-PVTZ-RI
    Molecular point group: c1

    Geometry (in Angstrom), charge = 0, multiplicity = 1:

       Center              X                  Y                   Z               Mass
    ------------   -----------------  -----------------  -----------------  -----------------
         O           -0.117301840796     2.062177564116    -0.900235636293    15.994914619570
         O           -2.386069840796    -1.375719435884    -0.108624636293    15.994914619570
         N            2.489756159204    -1.273845435884     0.079283363707    14.003074004430
         C            1.301802159204    -0.481147435884    -0.266032636293    12.000000000000
         C            1.244352159204     0.742468564116     0.643302363707    12.000000000000
         C            0.056657159204    -1.339208435884    -0.063631636293    12.000000000000
         C           -0.037770840796     1.546529564116     0.438178363707    12.000000000000
         C           -1.229106840796    -0.551442435884    -0.288857636293    12.000000000000
         C           -1.257333940796     0.687062564116     0.613991763707    12.000000000000
         H            1.308961159204    -0.129395435884    -1.310897636293     1.007825032230
         H            1.310366159204     0.403509564116     1.685194363707     1.007825032230
         H            2.117892159204     1.388150564116     0.466339363707     1.007825032230
         H            0.069454159204    -2.208287435884    -0.733522636293     1.007825032230
         H            0.074303159204    -1.723542435884     0.967208363707     1.007825032230
         H           -0.069741840796     2.378518564116     1.159205363707     1.007825032230
         H           -1.285946840796    -0.225614435884    -1.331345636293     1.007825032230
         H           -1.326381840796     0.344746564116     1.663759363707     1.007825032230
         H           -2.174313840796     1.260033564116     0.404356363707     1.007825032230
         H            3.328300159204    -0.724221435884    -0.113764636293     1.007825032230
         H            2.541135159204    -2.083199435884    -0.540855636293     1.007825032230
         H            0.660852159204     2.630714564116    -1.037571636293     1.007825032230
         H           -2.353973840796    -1.701595435884     0.808582363707     1.007825032230

  Basis Set: AUG-CC-PVTZ
    Blend: AUG-CC-PVTZ
  Basis Set: (AUG-CC-PVTZ AUX)
    Blend: AUG-CC-PVTZ-JKFIT
	 Reference Energy          =    -439.1088351461938259 [Eh]
	 Singles Energy            =      -0.0000000000000000 [Eh]
	 Same-Spin Energy          =      -0.4516481666810532 [Eh]
	 Opposite-Spin Energy      =      -1.4734367206816597 [Eh]
	 Correlation Energy        =      -1.9250848873627129 [Eh]
	 Total Energy              =    -441.0339200335565124 [Eh]

	 ================> DF-SCS-MP2 Energies <==================
	-----------------------------------------------------------
	 SCS Same-Spin Scale       =       0.3333333333333333 [-]
	 SCS Opposite-Spin Scale   =       1.2000000000000000 [-]
	 SCS Same-Spin Energy      =      -0.1505493888936844 [Eh]
	 SCS Opposite-Spin Energy  =      -1.7681240648179914 [Eh]
	 SCS Correlation Energy    =      -1.9186734537116759 [Eh]
	 SCS Total Energy          =    -441.0275085999055023 [Eh]
	-----------------------------------------------------------

  Dipole Moment: [D]
     X:     2.5313      Y:     1.1184      Z:     0.7446     Total:     2.8658

*** Psi4 exiting successfully. Buy a developer a beer!
