                               Psi4 1.4a3.dev225

  ==> Input File <==

--------------------------------------------------------------------------
#psi4
#
memory 32 gb

molecule  {
0 1
  O       -0.1447520     2.0657680    -0.9147710
  O       -2.4135200    -1.3721290    -0.1231600
  N        2.4623060    -1.2702550     0.0647480
  C        1.2743520    -0.4775570    -0.2805680
  C        1.2169020     0.7460590     0.6287670
  C        0.0292070    -1.3356180    -0.0781670
  C       -0.0516418     1.5569718     0.3725513
  C       -1.2565570    -0.5478520    -0.3033930
  C       -1.3010200     0.6792110     0.6017970
  H        1.2815110    -0.1258050    -1.3254330
  H        1.2829160     0.4071000     1.6706590
  H        2.0904420     1.3917410     0.4518040
  H        0.0420040    -2.2046970    -0.7480580
  H        0.0468530    -1.7199520     0.9526730
  H       -0.0971920     2.3821090     1.1446700
  H       -1.3133970    -0.2220240    -1.3458810
  H       -1.3538320     0.3483370     1.6492240
  H       -2.2017640     1.2636240     0.3898210
  H        3.3008500    -0.7206310    -0.1283000
  H        2.5136850    -2.0796090    -0.5553910
  H        0.6334020     2.6343050    -1.0521070
  H       -2.3814240    -1.6980050     0.7940470
units angstrom
no_reorient  #important for SAPT in psi4, default
symmetry c1  #important for SAPT in psi4, default
}

set PROPERTIES_ORIGIN ["COM"]
properties('MP2/aug-cc-pvtz', properties = ['dipole'])
--------------------------------------------------------------------------

    Molecular point group: c1
  Charge       = 0
  Multiplicity = 1
  Basis Set: AUG-CC-PVTZ
    Blend: AUG-CC-PVTZ
  Basis Set: (AUG-CC-PVTZ AUX)
    Blend: AUG-CC-PVTZ-JKFIT

    Orbital Energies [Eh]
    ---------------------

    Doubly Occupied:

       1A    -20.568372     2A    -20.550659     3A    -15.545685
       4A    -11.286618     5A    -11.270836     6A    -11.255904
       7A    -11.224658     8A    -11.219015     9A    -11.217209
      10A     -1.383583    11A     -1.349579    12A     -1.191999
      13A     -1.084821    14A     -0.994304    15A     -0.983481
      16A     -0.838702    17A     -0.821660    18A     -0.773791
      19A     -0.699287    20A     -0.681515    21A     -0.654059
      22A     -0.640774    23A     -0.629594    24A     -0.612661
      25A     -0.594131    26A     -0.564839    27A     -0.549268
      28A     -0.533541    29A     -0.529772    30A     -0.497900
      31A     -0.491413    32A     -0.475736    33A     -0.448753
      34A     -0.441358    35A     -0.415861    36A     -0.394097

  @DF-RHF Final Energy:  -439.10735156065738

   => Energetics <=

    Nuclear Repulsion Energy =            507.3331118920102654
    One-Electron Energy =               -1606.0500541430119483
    Two-Electron Energy =                 659.6095906903443620
    Total Energy =                       -439.1073515606573210
  Basis Set: (AUG-CC-PVTZ AUX)
    Blend: AUG-CC-PVTZ-RI
    Molecular point group: c1

    Geometry (in Angstrom), charge = 0, multiplicity = 1:

       Center              X                  Y                   Z               Mass
    ------------   -----------------  -----------------  -----------------  -----------------
         O           -0.117058654630     2.062597736937    -0.895773110208    15.994914619570
         O           -2.385826654630    -1.375299263063    -0.104162110208    15.994914619570
         N            2.489999345370    -1.273425263063     0.083745889792    14.003074004430
         C            1.302045345370    -0.480727263063    -0.261570110208    12.000000000000
         C            1.244595345370     0.742888736937     0.647764889792    12.000000000000
         C            0.056900345370    -1.338788263063    -0.059169110208    12.000000000000
         C           -0.023948454630     1.553801536937     0.391549189792    12.000000000000
         C           -1.228863654630    -0.551022263063    -0.284395110208    12.000000000000
         C           -1.273326654630     0.676040736937     0.620794889792    12.000000000000
         H            1.309204345370    -0.128975263063    -1.306435110208     1.007825032230
         H            1.310609345370     0.403929736937     1.689656889792     1.007825032230
         H            2.118135345370     1.388570736937     0.470801889792     1.007825032230
         H            0.069697345370    -2.207867263063    -0.729060110208     1.007825032230
         H            0.074546345370    -1.723122263063     0.971670889792     1.007825032230
         H           -0.069498654630     2.378938736937     1.163667889792     1.007825032230
         H           -1.285703654630    -0.225194263063    -1.326883110208     1.007825032230
         H           -1.326138654630     0.345166736937     1.668221889792     1.007825032230
         H           -2.174070654630     1.260453736937     0.408818889792     1.007825032230
         H            3.328543345370    -0.723801263063    -0.109302110208     1.007825032230
         H            2.541378345370    -2.082779263063    -0.536393110208     1.007825032230
         H            0.661095345370     2.631134736937    -1.033109110208     1.007825032230
         H           -2.353730654630    -1.701175263063     0.813044889792     1.007825032230

  Basis Set: AUG-CC-PVTZ
    Blend: AUG-CC-PVTZ
  Basis Set: (AUG-CC-PVTZ AUX)
    Blend: AUG-CC-PVTZ-JKFIT
	 Reference Energy          =    -439.1073515606573778 [Eh]
	 Singles Energy            =      -0.0000000000000000 [Eh]
	 Same-Spin Energy          =      -0.4515338466414501 [Eh]
	 Opposite-Spin Energy      =      -1.4727586747707360 [Eh]
	 Correlation Energy        =      -1.9242925214121862 [Eh]
	 Total Energy              =    -441.0316440820695902 [Eh]

	 ================> DF-SCS-MP2 Energies <==================
	-----------------------------------------------------------
	 SCS Same-Spin Scale       =       0.3333333333333333 [-]
	 SCS Opposite-Spin Scale   =       1.2000000000000000 [-]
	 SCS Same-Spin Energy      =      -0.1505112822138167 [Eh]
	 SCS Opposite-Spin Energy  =      -1.7673104097248831 [Eh]
	 SCS Correlation Energy    =      -1.9178216919386997 [Eh]
	 SCS Total Energy          =    -441.0251732525960620 [Eh]
	-----------------------------------------------------------

  Dipole Moment: [D]
     X:     2.5573      Y:     1.1981      Z:     0.5800     Total:     2.8830

*** Psi4 exiting successfully. Buy a developer a beer!
