                               Psi4 1.4a3.dev225

  ==> Input File <==

--------------------------------------------------------------------------
#psi4
#
memory 32 gb

molecule  {
0 1
  O       -0.1447520     2.0657680    -0.9147710
  O       -2.4135200    -1.3721290    -0.1231600
  N        2.4623060    -1.2702550     0.0647480
  C        1.2743520    -0.4775570    -0.2805680
  C        1.2169020     0.7460590     0.6287670
  C        0.0292070    -1.3356180    -0.0781670
  C       -0.0652210     1.5501200     0.4236430
  C       -1.2565570    -0.5478520    -0.3033930
  C       -1.3010200     0.6792110     0.6017970
  H        1.2815110    -0.1258050    -1.3254330
  H        1.2949445     0.3453380     1.8605031
  H        2.0904420     1.3917410     0.4518040
  H        0.0420040    -2.2046970    -0.7480580
  H        0.0468530    -1.7199520     0.9526730
  H       -0.0971920     2.3821090     1.1446700
  H       -1.3133970    -0.2220240    -1.3458810
  H       -1.3538320     0.3483370     1.6492240
  H       -2.2017640     1.2636240     0.3898210
  H        3.3008500    -0.7206310    -0.1283000
  H        2.5136850    -2.0796090    -0.5553910
  H        0.6334020     2.6343050    -1.0521070
  H       -2.3814240    -1.6980050     0.7940470
units angstrom
no_reorient  #important for SAPT in psi4, default
symmetry c1  #important for SAPT in psi4, default
}

set PROPERTIES_ORIGIN ["COM"]
properties('MP2/aug-cc-pvtz', properties = ['dipole'])
--------------------------------------------------------------------------

    Molecular point group: c1
  Charge       = 0
  Multiplicity = 1
  Basis Set: AUG-CC-PVTZ
    Blend: AUG-CC-PVTZ
  Basis Set: (AUG-CC-PVTZ AUX)
    Blend: AUG-CC-PVTZ-JKFIT

    Orbital Energies [Eh]
    ---------------------

    Doubly Occupied:

       1A    -20.564393     2A    -20.551840     3A    -15.546424
       4A    -11.287924     5A    -11.272218     6A    -11.259053
       7A    -11.248262     8A    -11.219835     9A    -11.217952
      10A     -1.364866    11A     -1.350357    12A     -1.192493
      13A     -1.086439    14A     -0.993796    15A     -0.983337
      16A     -0.839208    17A     -0.823036    18A     -0.764542
      19A     -0.697135    20A     -0.674096    21A     -0.653534
      22A     -0.642951    23A     -0.625249    24A     -0.608634
      25A     -0.590261    26A     -0.563840    27A     -0.548162
      28A     -0.530608    29A     -0.521637    30A     -0.498443
      31A     -0.477069    32A     -0.473164    33A     -0.453972
      34A     -0.444342    35A     -0.420943    36A     -0.396323

  @DF-RHF Final Energy:  -439.08943864652434

   => Energetics <=

    Nuclear Repulsion Energy =            505.9485080875705307
    One-Electron Energy =               -1603.3032107810720390
    Two-Electron Energy =                 658.2652640469773360
    Total Energy =                       -439.0894386465242860
  Basis Set: (AUG-CC-PVTZ AUX)
    Blend: AUG-CC-PVTZ-RI
    Molecular point group: c1

    Geometry (in Angstrom), charge = 0, multiplicity = 1:

       Center              X                  Y                   Z               Mass
    ------------   -----------------  -----------------  -----------------  -----------------
         O           -0.115908128647     2.063699741582    -0.901909364946    15.994914619570
         O           -2.384676128647    -1.374197258418    -0.110298364946    15.994914619570
         N            2.491149871353    -1.272323258418     0.077609635054    14.003074004430
         C            1.303195871353    -0.479625258418    -0.267706364946    12.000000000000
         C            1.245745871353     0.743990741582     0.641628635054    12.000000000000
         C            0.058050871353    -1.337686258418    -0.065305364946    12.000000000000
         C           -0.036377128647     1.548051741582     0.436504635054    12.000000000000
         C           -1.227713128647    -0.549920258418    -0.290531364946    12.000000000000
         C           -1.272176128647     0.677142741582     0.614658635054    12.000000000000
         H            1.310354871353    -0.127873258418    -1.312571364946     1.007825032230
         H            1.323788371353     0.343269741582     1.873364735054     1.007825032230
         H            2.119285871353     1.389672741582     0.464665635054     1.007825032230
         H            0.070847871353    -2.206765258418    -0.735196364946     1.007825032230
         H            0.075696871353    -1.722020258418     0.965534635054     1.007825032230
         H           -0.068348128647     2.380040741582     1.157531635054     1.007825032230
         H           -1.284553128647    -0.224092258418    -1.333019364946     1.007825032230
         H           -1.324988128647     0.346268741582     1.662085635054     1.007825032230
         H           -2.172920128647     1.261555741582     0.402682635054     1.007825032230
         H            3.329693871353    -0.722699258418    -0.115438364946     1.007825032230
         H            2.542528871353    -2.081677258418    -0.542529364946     1.007825032230
         H            0.662245871353     2.632236741582    -1.039245364946     1.007825032230
         H           -2.352580128647    -1.700073258418     0.806908635054     1.007825032230

  Basis Set: AUG-CC-PVTZ
    Blend: AUG-CC-PVTZ
  Basis Set: (AUG-CC-PVTZ AUX)
    Blend: AUG-CC-PVTZ-JKFIT
	 Reference Energy          =    -439.0894386465243429 [Eh]
	 Singles Energy            =      -0.0000000000000000 [Eh]
	 Same-Spin Energy          =      -0.4517926486247260 [Eh]
	 Opposite-Spin Energy      =      -1.4751661292923970 [Eh]
	 Correlation Energy        =      -1.9269587779171231 [Eh]
	 Total Energy              =    -441.0163974244414931 [Eh]

	 ================> DF-SCS-MP2 Energies <==================
	-----------------------------------------------------------
	 SCS Same-Spin Scale       =       0.3333333333333333 [-]
	 SCS Opposite-Spin Scale   =       1.2000000000000000 [-]
	 SCS Same-Spin Energy      =      -0.1505975495415753 [Eh]
	 SCS Opposite-Spin Energy  =      -1.7701993551508763 [Eh]
	 SCS Correlation Energy    =      -1.9207969046924516 [Eh]
	 SCS Total Energy          =    -441.0102355512167946 [Eh]
	-----------------------------------------------------------

  Dipole Moment: [D]
     X:     2.5210      Y:     1.1423      Z:     0.6175     Total:     2.8358

*** Psi4 exiting successfully. Buy a developer a beer!
