                               Psi4 1.4a3.dev225

  ==> Input File <==

--------------------------------------------------------------------------
#psi4
#
memory 32 gb

molecule  {
0 1
  O       -0.1447520     2.0657680    -0.9147710
  O       -2.4135200    -1.3721290    -0.1231600
  N        2.4623060    -1.2702550     0.0647480
  C        1.2743520    -0.4775570    -0.2805680
  C        1.2169020     0.7460590     0.6287670
  C        0.0292070    -1.3356180    -0.0781670
  C       -0.0652210     1.5501200     0.4236430
  C       -1.2565570    -0.5478520    -0.3033930
  C       -1.2951905     0.5183333     0.4831194
  H        1.2815110    -0.1258050    -1.3254330
  H        1.2829160     0.4071000     1.6706590
  H        2.0904420     1.3917410     0.4518040
  H        0.0420040    -2.2046970    -0.7480580
  H        0.0468530    -1.7199520     0.9526730
  H       -0.0971920     2.3821090     1.1446700
  H       -1.3133970    -0.2220240    -1.3458810
  H       -1.3538320     0.3483370     1.6492240
  H       -2.2017640     1.2636240     0.3898210
  H        3.3008500    -0.7206310    -0.1283000
  H        2.5136850    -2.0796090    -0.5553910
  H        0.6334020     2.6343050    -1.0521070
  H       -2.3814240    -1.6980050     0.7940470
units angstrom
no_reorient  #important for SAPT in psi4, default
symmetry c1  #important for SAPT in psi4, default
}

set PROPERTIES_ORIGIN ["COM"]
properties('MP2/aug-cc-pvtz', properties = ['dipole'])
--------------------------------------------------------------------------

    Molecular point group: c1
  Charge       = 0
  Multiplicity = 1
  Basis Set: AUG-CC-PVTZ
    Blend: AUG-CC-PVTZ
  Basis Set: (AUG-CC-PVTZ AUX)
    Blend: AUG-CC-PVTZ-JKFIT

    Orbital Energies [Eh]
    ---------------------

    Doubly Occupied:

       1A    -20.562199     2A    -20.550936     3A    -15.546769
       4A    -11.294138     5A    -11.261283     6A    -11.257476
       7A    -11.229205     8A    -11.225259     9A    -11.219095
      10A     -1.363622    11A     -1.354633    12A     -1.193713
      13A     -1.103860    14A     -1.010020    15A     -0.982502
      16A     -0.851960    17A     -0.816902    18A     -0.769255
      19A     -0.697661    20A     -0.681517    21A     -0.656601
      22A     -0.645844    23A     -0.632855    24A     -0.618145
      25A     -0.596772    26A     -0.565964    27A     -0.549813
      28A     -0.532682    29A     -0.519375    30A     -0.494576
      31A     -0.486626    32A     -0.464944    33A     -0.445645
      34A     -0.439083    35A     -0.423743    36A     -0.396482

  @DF-RHF Final Energy:  -439.05907406698697

   => Energetics <=

    Nuclear Repulsion Energy =            509.4149255740829858
    One-Electron Energy =               -1610.0656895485176392
    Two-Electron Energy =                 661.5916899074476305
    Total Energy =                       -439.0590740669869092
  Basis Set: (AUG-CC-PVTZ AUX)
    Blend: AUG-CC-PVTZ-RI
    Molecular point group: c1

    Geometry (in Angstrom), charge = 0, multiplicity = 1:

       Center              X                  Y                   Z               Mass
    ------------   -----------------  -----------------  -----------------  -----------------
         O           -0.116349270875     2.077951180633    -0.889586504332    15.994914619570
         O           -2.385117270875    -1.359945819367    -0.097975504332    15.994914619570
         N            2.490708729125    -1.258071819367     0.089932495668    14.003074004430
         C            1.302754729125    -0.465373819367    -0.255383504332    12.000000000000
         C            1.245304729125     0.758242180633     0.653951495668    12.000000000000
         C            0.057609729125    -1.323434819367    -0.052982504332    12.000000000000
         C           -0.036818270875     1.562303180633     0.448827495668    12.000000000000
         C           -1.228154270875    -0.535668819367    -0.278208504332    12.000000000000
         C           -1.266787770875     0.530516480633     0.508303895668    12.000000000000
         H            1.309913729125    -0.113621819367    -1.300248504332     1.007825032230
         H            1.311318729125     0.419283180633     1.695843495668     1.007825032230
         H            2.118844729125     1.403924180633     0.476988495668     1.007825032230
         H            0.070406729125    -2.192513819367    -0.722873504332     1.007825032230
         H            0.075255729125    -1.707768819367     0.977857495668     1.007825032230
         H           -0.068789270875     2.394292180633     1.169854495668     1.007825032230
         H           -1.284994270875    -0.209840819367    -1.320696504332     1.007825032230
         H           -1.325429270875     0.360520180633     1.674408495668     1.007825032230
         H           -2.173361270875     1.275807180633     0.415005495668     1.007825032230
         H            3.329252729125    -0.708447819367    -0.103115504332     1.007825032230
         H            2.542087729125    -2.067425819367    -0.530206504332     1.007825032230
         H            0.661804729125     2.646488180633    -1.026922504332     1.007825032230
         H           -2.353021270875    -1.685821819367     0.819231495668     1.007825032230

  Basis Set: AUG-CC-PVTZ
    Blend: AUG-CC-PVTZ
  Basis Set: (AUG-CC-PVTZ AUX)
    Blend: AUG-CC-PVTZ-JKFIT
	 Reference Energy          =    -439.0590740669869660 [Eh]
	 Singles Energy            =      -0.0000000000000000 [Eh]
	 Same-Spin Energy          =      -0.4545148127320056 [Eh]
	 Opposite-Spin Energy      =      -1.4775754414931672 [Eh]
	 Correlation Energy        =      -1.9320902542251728 [Eh]
	 Total Energy              =    -440.9911643212121248 [Eh]

	 ================> DF-SCS-MP2 Energies <==================
	-----------------------------------------------------------
	 SCS Same-Spin Scale       =       0.3333333333333333 [-]
	 SCS Opposite-Spin Scale   =       1.2000000000000000 [-]
	 SCS Same-Spin Energy      =      -0.1515049375773352 [Eh]
	 SCS Opposite-Spin Energy  =      -1.7730905297918007 [Eh]
	 SCS Correlation Energy    =      -1.9245954673691359 [Eh]
	 SCS Total Energy          =    -440.9836695343561246 [Eh]
	-----------------------------------------------------------

  Dipole Moment: [D]
     X:     2.6613      Y:     1.2167      Z:     0.7058     Total:     3.0102

*** Psi4 exiting successfully. Buy a developer a beer!
