                               Psi4 1.4a3.dev225

  ==> Input File <==

--------------------------------------------------------------------------
#psi4
#
memory 32 gb

molecule  {
0 1
  O       -0.1447520     2.0657680    -0.9147710
  O       -2.4135200    -1.3721290    -0.1231600
  N        2.4560676    -1.2871440     0.0464873
  C        1.2743520    -0.4775570    -0.2805680
  C        1.2169020     0.7460590     0.6287670
  C        0.0292070    -1.3356180    -0.0781670
  C       -0.0652210     1.5501200     0.4236430
  C       -1.2565570    -0.5478520    -0.3033930
  C       -1.3010200     0.6792110     0.6017970
  H        1.2815110    -0.1258050    -1.3254330
  H        1.2829160     0.4071000     1.6706590
  H        2.0904420     1.3917410     0.4518040
  H        0.0420040    -2.2046970    -0.7480580
  H        0.0468530    -1.7199520     0.9526730
  H       -0.0971920     2.3821090     1.1446700
  H       -1.3133970    -0.2220240    -1.3458810
  H       -1.3538320     0.3483370     1.6492240
  H       -2.2017640     1.2636240     0.3898210
  H        3.3008500    -0.7206310    -0.1283000
  H        2.5136850    -2.0796090    -0.5553910
  H        0.6334020     2.6343050    -1.0521070
  H       -2.3814240    -1.6980050     0.7940470
units angstrom
no_reorient  #important for SAPT in psi4, default
symmetry c1  #important for SAPT in psi4, default
}

set PROPERTIES_ORIGIN ["COM"]
properties('MP2/aug-cc-pvtz', properties = ['dipole'])
--------------------------------------------------------------------------

    Molecular point group: c1
  Charge       = 0
  Multiplicity = 1
  Basis Set: AUG-CC-PVTZ
    Blend: AUG-CC-PVTZ
  Basis Set: (AUG-CC-PVTZ AUX)
    Blend: AUG-CC-PVTZ-JKFIT

    Orbital Energies [Eh]
    ---------------------

    Doubly Occupied:

       1A    -20.562033     2A    -20.551441     3A    -15.543971
       4A    -11.286382     5A    -11.271651     6A    -11.256483
       7A    -11.226486     8A    -11.219915     9A    -11.217253
      10A     -1.362814    11A     -1.349925    12A     -1.192789
      13A     -1.087811    14A     -0.996032    15A     -0.986549
      16A     -0.840417    17A     -0.823600    18A     -0.769621
      19A     -0.695901    20A     -0.678221    21A     -0.658006
      22A     -0.641914    23A     -0.625221    24A     -0.611478
      25A     -0.592448    26A     -0.564013    27A     -0.549234
      28A     -0.530452    29A     -0.526704    30A     -0.499997
      31A     -0.490596    32A     -0.476292    33A     -0.453878
      34A     -0.443589    35A     -0.420306    36A     -0.393817

  @DF-RHF Final Energy:  -439.10941387584933

   => Energetics <=

    Nuclear Repulsion Energy =            506.8847432804441837
    One-Electron Energy =               -1605.1938366192302965
    Two-Electron Energy =                 659.1996794629368424
    Total Energy =                       -439.1094138758493273
  Basis Set: (AUG-CC-PVTZ AUX)
    Blend: AUG-CC-PVTZ-RI
    Molecular point group: c1

    Geometry (in Angstrom), charge = 0, multiplicity = 1:

       Center              X                  Y                   Z               Mass
    ------------   -----------------  -----------------  -----------------  -----------------
         O           -0.115149292062     2.065028954144    -0.898499342932    15.994914619570
         O           -2.383917292062    -1.372868045856    -0.106888342932    15.994914619570
         N            2.485670307938    -1.287883045856     0.062758957068    14.003074004430
         C            1.303954707938    -0.478296045856    -0.264296342932    12.000000000000
         C            1.246504707938     0.745319954144     0.645038657068    12.000000000000
         C            0.058809707938    -1.336357045856    -0.061895342932    12.000000000000
         C           -0.035618292062     1.549380954144     0.439914657068    12.000000000000
         C           -1.226954292062    -0.548591045856    -0.287121342932    12.000000000000
         C           -1.271417292062     0.678471954144     0.618068657068    12.000000000000
         H            1.311113707938    -0.126544045856    -1.309161342932     1.007825032230
         H            1.312518707938     0.406360954144     1.686930657068     1.007825032230
         H            2.120044707938     1.391001954144     0.468075657068     1.007825032230
         H            0.071606707938    -2.205436045856    -0.731786342932     1.007825032230
         H            0.076455707938    -1.720691045856     0.968944657068     1.007825032230
         H           -0.067589292062     2.381369954144     1.160941657068     1.007825032230
         H           -1.283794292062    -0.222763045856    -1.329609342932     1.007825032230
         H           -1.324229292062     0.347597954144     1.665495657068     1.007825032230
         H           -2.172161292062     1.262884954144     0.406092657068     1.007825032230
         H            3.330452707938    -0.721370045856    -0.112028342932     1.007825032230
         H            2.543287707938    -2.080348045856    -0.539119342932     1.007825032230
         H            0.663004707938     2.633565954144    -1.035835342932     1.007825032230
         H           -2.351821292062    -1.698744045856     0.810318657068     1.007825032230

  Basis Set: AUG-CC-PVTZ
    Blend: AUG-CC-PVTZ
  Basis Set: (AUG-CC-PVTZ AUX)
    Blend: AUG-CC-PVTZ-JKFIT
	 Reference Energy          =    -439.1094138758493273 [Eh]
	 Singles Energy            =      -0.0000000000000000 [Eh]
	 Same-Spin Energy          =      -0.4514069689672723 [Eh]
	 Opposite-Spin Energy      =      -1.4729631055129460 [Eh]
	 Correlation Energy        =      -1.9243700744802181 [Eh]
	 Total Energy              =    -441.0337839503295640 [Eh]

	 ================> DF-SCS-MP2 Energies <==================
	-----------------------------------------------------------
	 SCS Same-Spin Scale       =       0.3333333333333333 [-]
	 SCS Opposite-Spin Scale   =       1.2000000000000000 [-]
	 SCS Same-Spin Energy      =      -0.1504689896557574 [Eh]
	 SCS Opposite-Spin Energy  =      -1.7675557266155351 [Eh]
	 SCS Correlation Energy    =      -1.9180247162712925 [Eh]
	 SCS Total Energy          =    -441.0274385921206317 [Eh]
	-----------------------------------------------------------

  Dipole Moment: [D]
     X:     2.5449      Y:     1.1494      Z:     0.7743     Total:     2.8978

*** Psi4 exiting successfully. Buy a developer a beer!
