                               Psi4 1.4a3.dev225

  ==> Input File <==

--------------------------------------------------------------------------
#psi4
#
memory 32 gb

molecule  {
0 1
  O       -0.1447520     2.0657680    -0.9147710
  O       -2.4135200    -1.3721290    -0.1231600
  N        2.4623060    -1.2702550     0.0647480
  C        1.2743520    -0.4775570    -0.2805680
  C        1.2169020     0.7460590     0.6287670
  C        0.0292070    -1.3356180    -0.0781670
  C       -0.0652210     1.5501200     0.4236430
  C       -1.1757607    -0.4902887    -0.3159795
  C       -1.3010200     0.6792110     0.6017970
  H        1.2815110    -0.1258050    -1.3254330
  H        1.2829160     0.4071000     1.6706590
  H        2.0904420     1.3917410     0.4518040
  H        0.0420040    -2.2046970    -0.7480580
  H        0.0468530    -1.7199520     0.9526730
  H       -0.0971920     2.3821090     1.1446700
  H       -1.3133970    -0.2220240    -1.3458810
  H       -1.3538320     0.3483370     1.6492240
  H       -2.2017640     1.2636240     0.3898210
  H        3.3008500    -0.7206310    -0.1283000
  H        2.5136850    -2.0796090    -0.5553910
  H        0.6334020     2.6343050    -1.0521070
  H       -2.3814240    -1.6980050     0.7940470
units angstrom
no_reorient  #important for SAPT in psi4, default
symmetry c1  #important for SAPT in psi4, default
}

set PROPERTIES_ORIGIN ["COM"]
properties('MP2/aug-cc-pvtz', properties = ['dipole'])
--------------------------------------------------------------------------

    Molecular point group: c1
  Charge       = 0
  Multiplicity = 1
  Basis Set: AUG-CC-PVTZ
    Blend: AUG-CC-PVTZ
  Basis Set: (AUG-CC-PVTZ AUX)
    Blend: AUG-CC-PVTZ-JKFIT

    Orbital Energies [Eh]
    ---------------------

    Doubly Occupied:

       1A    -20.564197     2A    -20.538023     3A    -15.547347
       4A    -11.287359     5A    -11.273229     6A    -11.257975
       7A    -11.228066     8A    -11.222631     9A    -11.220178
      10A     -1.365033    11A     -1.313811    12A     -1.194713
      13A     -1.096991    14A     -1.002658    15A     -0.991745
      16A     -0.841187    17A     -0.823566    18A     -0.771526
      19A     -0.694979    20A     -0.678704    21A     -0.655847
      22A     -0.644905    23A     -0.622177    24A     -0.603227
      25A     -0.584658    26A     -0.564723    27A     -0.543453
      28A     -0.530759    29A     -0.521320    30A     -0.508735
      31A     -0.489483    32A     -0.484620    33A     -0.451231
      34A     -0.441638    35A     -0.428258    36A     -0.397339

  @DF-RHF Final Energy:  -439.09882915565157

   => Energetics <=

    Nuclear Repulsion Energy =            507.5035191893801994
    One-Electron Energy =               -1606.4321150612945530
    Two-Electron Energy =                 659.8297667162626112
    Total Energy =                       -439.0988291556516288
  Basis Set: (AUG-CC-PVTZ AUX)
    Blend: AUG-CC-PVTZ-RI
    Molecular point group: c1

    Geometry (in Angstrom), charge = 0, multiplicity = 1:

       Center              X                  Y                   Z               Mass
    ------------   -----------------  -----------------  -----------------  -----------------
         O           -0.123211501686     2.057955761853    -0.899297758050    15.994914619570
         O           -2.391979501686    -1.379941238147    -0.107686758050    15.994914619570
         N            2.483846498314    -1.278067238147     0.080221241950    14.003074004430
         C            1.295892498314    -0.485369238147    -0.265094758050    12.000000000000
         C            1.238442498314     0.738246761853     0.644240241950    12.000000000000
         C            0.050747498314    -1.343430238147    -0.062693758050    12.000000000000
         C           -0.043680501686     1.542307761853     0.439116241950    12.000000000000
         C           -1.154220201686    -0.498100938147    -0.300506258050    12.000000000000
         C           -1.279479501686     0.671398761853     0.617270241950    12.000000000000
         H            1.303051498314    -0.133617238147    -1.309959758050     1.007825032230
         H            1.304456498314     0.399287761853     1.686132241950     1.007825032230
         H            2.111982498314     1.383928761853     0.467277241950     1.007825032230
         H            0.063544498314    -2.212509238147    -0.732584758050     1.007825032230
         H            0.068393498314    -1.727764238147     0.968146241950     1.007825032230
         H           -0.075651501686     2.374296761853     1.160143241950     1.007825032230
         H           -1.291856501686    -0.229836238147    -1.330407758050     1.007825032230
         H           -1.332291501686     0.340524761853     1.664697241950     1.007825032230
         H           -2.180223501686     1.255811761853     0.405294241950     1.007825032230
         H            3.322390498314    -0.728443238147    -0.112826758050     1.007825032230
         H            2.535225498314    -2.087421238147    -0.539917758050     1.007825032230
         H            0.654942498314     2.626492761853    -1.036633758050     1.007825032230
         H           -2.359883501686    -1.705817238147     0.809520241950     1.007825032230

  Basis Set: AUG-CC-PVTZ
    Blend: AUG-CC-PVTZ
  Basis Set: (AUG-CC-PVTZ AUX)
    Blend: AUG-CC-PVTZ-JKFIT
	 Reference Energy          =    -439.0988291556515719 [Eh]
	 Singles Energy            =      -0.0000000000000000 [Eh]
	 Same-Spin Energy          =      -0.4524381382448707 [Eh]
	 Opposite-Spin Energy      =      -1.4755967819674636 [Eh]
	 Correlation Energy        =      -1.9280349202123341 [Eh]
	 Total Energy              =    -441.0268640758638981 [Eh]

	 ================> DF-SCS-MP2 Energies <==================
	-----------------------------------------------------------
	 SCS Same-Spin Scale       =       0.3333333333333333 [-]
	 SCS Opposite-Spin Scale   =       1.2000000000000000 [-]
	 SCS Same-Spin Energy      =      -0.1508127127482902 [Eh]
	 SCS Opposite-Spin Energy  =      -1.7707161383609562 [Eh]
	 SCS Correlation Energy    =      -1.9215288511092463 [Eh]
	 SCS Total Energy          =    -441.0203580067608300 [Eh]
	-----------------------------------------------------------

  Dipole Moment: [D]
     X:     2.8627      Y:     1.3448      Z:     0.7374     Total:     3.2477

*** Psi4 exiting successfully. Buy a developer a beer!
