                               Psi4 1.4a3.dev225

  ==> Input File <==

--------------------------------------------------------------------------
#psi4
#
memory 32 gb

molecule  {
0 1
  O       -0.1447520     2.0657680    -0.9147710
  O       -2.4135200    -1.3721290    -0.1231600
  N        2.4623060    -1.2702550     0.0647480
  C        1.2743520    -0.4775570    -0.2805680
  C        1.2169020     0.7460590     0.6287670
  C        0.1924347    -1.2231337    -0.1047000
  C       -0.0652210     1.5501200     0.4236430
  C       -1.2565570    -0.5478520    -0.3033930
  C       -1.3010200     0.6792110     0.6017970
  H        1.2815110    -0.1258050    -1.3254330
  H        1.2829160     0.4071000     1.6706590
  H        2.0904420     1.3917410     0.4518040
  H        0.0420040    -2.2046970    -0.7480580
  H        0.0468530    -1.7199520     0.9526730
  H       -0.0971920     2.3821090     1.1446700
  H       -1.3133970    -0.2220240    -1.3458810
  H       -1.3538320     0.3483370     1.6492240
  H       -2.2017640     1.2636240     0.3898210
  H        3.3008500    -0.7206310    -0.1283000
  H        2.5136850    -2.0796090    -0.5553910
  H        0.6334020     2.6343050    -1.0521070
  H       -2.3814240    -1.6980050     0.7940470
units angstrom
no_reorient  #important for SAPT in psi4, default
symmetry c1  #important for SAPT in psi4, default
}

set PROPERTIES_ORIGIN ["COM"]
properties('MP2/aug-cc-pvtz', properties = ['dipole'])
--------------------------------------------------------------------------

    Molecular point group: c1
  Charge       = 0
  Multiplicity = 1
  Basis Set: AUG-CC-PVTZ
    Blend: AUG-CC-PVTZ
  Basis Set: (AUG-CC-PVTZ AUX)
    Blend: AUG-CC-PVTZ-JKFIT

    Orbital Energies [Eh]
    ---------------------

    Doubly Occupied:

       1A    -20.562620     2A    -20.560748     3A    -15.546537
       4A    -11.286750     5A    -11.278933     6A    -11.246027
       7A    -11.227780     8A    -11.226955     9A    -11.218728
      10A     -1.363629    11A     -1.353677    12A     -1.209410
      13A     -1.092422    14A     -1.007676    15A     -0.987766
      16A     -0.849122    17A     -0.818560    18A     -0.767696
      19A     -0.700911    20A     -0.684375    21A     -0.658494
      22A     -0.642154    23A     -0.627192    24A     -0.609902
      25A     -0.592213    26A     -0.578111    27A     -0.550043
      28A     -0.529205    29A     -0.522555    30A     -0.509322
      31A     -0.489566    32A     -0.470837    33A     -0.454938
      34A     -0.434239    35A     -0.406626    36A     -0.394391

  @DF-RHF Final Energy:  -439.05779947843553

   => Energetics <=

    Nuclear Repulsion Energy =            508.8777819277948993
    One-Electron Energy =               -1608.9509414261544862
    Two-Electron Energy =                 661.0153600199239463
    Total Energy =                       -439.0577994784355269
  Basis Set: (AUG-CC-PVTZ AUX)
    Blend: AUG-CC-PVTZ-RI
    Molecular point group: c1

    Geometry (in Angstrom), charge = 0, multiplicity = 1:

       Center              X                  Y                   Z               Mass
    ------------   -----------------  -----------------  -----------------  -----------------
         O           -0.130757019074     2.052928462056    -0.898021138240    15.994914619570
         O           -2.399525019074    -1.384968537944    -0.106410138240    15.994914619570
         N            2.476300980926    -1.283094537944     0.081497861760    14.003074004430
         C            1.288346980926    -0.490396537944    -0.263818138240    12.000000000000
         C            1.230896980926     0.733219462056     0.645516861760    12.000000000000
         C            0.206429680926    -1.235973237944    -0.087950138240    12.000000000000
         C           -0.051226019074     1.537280462056     0.440392861760    12.000000000000
         C           -1.242562019074    -0.560691537944    -0.286643138240    12.000000000000
         C           -1.287025019074     0.666371462056     0.618546861760    12.000000000000
         H            1.295505980926    -0.138644537944    -1.308683138240     1.007825032230
         H            1.296910980926     0.394260462056     1.687408861760     1.007825032230
         H            2.104436980926     1.378901462056     0.468553861760     1.007825032230
         H            0.055998980926    -2.217536537944    -0.731308138240     1.007825032230
         H            0.060847980926    -1.732791537944     0.969422861760     1.007825032230
         H           -0.083197019074     2.369269462056     1.161419861760     1.007825032230
         H           -1.299402019074    -0.234863537944    -1.329131138240     1.007825032230
         H           -1.339837019074     0.335497462056     1.665973861760     1.007825032230
         H           -2.187769019074     1.250784462056     0.406570861760     1.007825032230
         H            3.314844980926    -0.733470537944    -0.111550138240     1.007825032230
         H            2.527679980926    -2.092448537944    -0.538641138240     1.007825032230
         H            0.647396980926     2.621465462056    -1.035357138240     1.007825032230
         H           -2.367429019074    -1.710844537944     0.810796861760     1.007825032230

  Basis Set: AUG-CC-PVTZ
    Blend: AUG-CC-PVTZ
  Basis Set: (AUG-CC-PVTZ AUX)
    Blend: AUG-CC-PVTZ-JKFIT
	 Reference Energy          =    -439.0577994784355269 [Eh]
	 Singles Energy            =      -0.0000000000000000 [Eh]
	 Same-Spin Energy          =      -0.4548326753367479 [Eh]
	 Opposite-Spin Energy      =      -1.4781303434109172 [Eh]
	 Correlation Energy        =      -1.9329630187476652 [Eh]
	 Total Energy              =    -440.9907624971831979 [Eh]

	 ================> DF-SCS-MP2 Energies <==================
	-----------------------------------------------------------
	 SCS Same-Spin Scale       =       0.3333333333333333 [-]
	 SCS Opposite-Spin Scale   =       1.2000000000000000 [-]
	 SCS Same-Spin Energy      =      -0.1516108917789160 [Eh]
	 SCS Opposite-Spin Energy  =      -1.7737564120931006 [Eh]
	 SCS Correlation Energy    =      -1.9253673038720165 [Eh]
	 SCS Total Energy          =    -440.9831667823075350 [Eh]
	-----------------------------------------------------------

  Dipole Moment: [D]
     X:     2.4051      Y:     1.2096      Z:     0.7439     Total:     2.7930

*** Psi4 exiting successfully. Buy a developer a beer!
