                               Psi4 1.4a3.dev225

  ==> Input File <==

--------------------------------------------------------------------------
#psi4
#
memory 32 gb

molecule  {
0 1
  O       -0.1447520     2.0657680    -0.9147710
  O       -2.4135200    -1.3721290    -0.1231600
  N        2.4623060    -1.2702550     0.0647480
  C        1.2743520    -0.4775570    -0.2805680
  C        1.2169020     0.7460590     0.6287670
  C        0.0292070    -1.3356180    -0.0781670
  C       -0.0652210     1.5501200     0.4236430
  C       -1.2576492    -0.5634819    -0.2818674
  C       -1.3010200     0.6792110     0.6017970
  H        1.2815110    -0.1258050    -1.3254330
  H        1.2829160     0.4071000     1.6706590
  H        2.0904420     1.3917410     0.4518040
  H        0.0420040    -2.2046970    -0.7480580
  H        0.0468530    -1.7199520     0.9526730
  H       -0.0971920     2.3821090     1.1446700
  H       -1.3133970    -0.2220240    -1.3458810
  H       -1.3538320     0.3483370     1.6492240
  H       -2.2017640     1.2636240     0.3898210
  H        3.3008500    -0.7206310    -0.1283000
  H        2.5136850    -2.0796090    -0.5553910
  H        0.6334020     2.6343050    -1.0521070
  H       -2.3814240    -1.6980050     0.7940470
units angstrom
no_reorient  #important for SAPT in psi4, default
symmetry c1  #important for SAPT in psi4, default
}

set PROPERTIES_ORIGIN ["COM"]
properties('MP2/aug-cc-pvtz', properties = ['dipole'])
--------------------------------------------------------------------------

    Molecular point group: c1
  Charge       = 0
  Multiplicity = 1
  Basis Set: AUG-CC-PVTZ
    Blend: AUG-CC-PVTZ
  Basis Set: (AUG-CC-PVTZ AUX)
    Blend: AUG-CC-PVTZ-JKFIT

    Orbital Energies [Eh]
    ---------------------

    Doubly Occupied:

       1A    -20.561481     2A    -20.554040     3A    -15.546217
       4A    -11.285967     5A    -11.272510     6A    -11.256855
       7A    -11.225806     8A    -11.219608     9A    -11.217335
      10A     -1.362717    11A     -1.355730    12A     -1.192529
      13A     -1.087513    14A     -0.996952    15A     -0.985751
      16A     -0.839329    17A     -0.823631    18A     -0.768792
      19A     -0.696568    20A     -0.678522    21A     -0.655402
      22A     -0.642105    23A     -0.627122    24A     -0.610578
      25A     -0.593035    26A     -0.563580    27A     -0.550762
      28A     -0.533074    29A     -0.526356    30A     -0.498280
      31A     -0.490716    32A     -0.471131    33A     -0.453867
      34A     -0.444026    35A     -0.420622    36A     -0.395667

  @DF-RHF Final Energy:  -439.10845979854116

   => Energetics <=

    Nuclear Repulsion Energy =            507.0122753669874101
    One-Electron Energy =               -1605.4331196303837714
    Two-Electron Energy =                 659.3123844648550858
    Total Energy =                       -439.1084597985411619
  Basis Set: (AUG-CC-PVTZ AUX)
    Blend: AUG-CC-PVTZ-RI
    Molecular point group: c1

    Geometry (in Angstrom), charge = 0, multiplicity = 1:

       Center              X                  Y                   Z               Mass
    ------------   -----------------  -----------------  -----------------  -----------------
         O           -0.115715679699     2.064655642763    -0.902420275000    15.994914619570
         O           -2.384483679699    -1.373241357237    -0.110809275000    15.994914619570
         N            2.491342320301    -1.271367357237     0.077098725000    14.003074004430
         C            1.303388320301    -0.478669357237    -0.268217275000    12.000000000000
         C            1.245938320301     0.744946642763     0.641117725000    12.000000000000
         C            0.058243320301    -1.336730357237    -0.065816275000    12.000000000000
         C           -0.036184679699     1.549007642763     0.435993725000    12.000000000000
         C           -1.228612879699    -0.564594257237    -0.269516675000    12.000000000000
         C           -1.271983679699     0.678098642763     0.614147725000    12.000000000000
         H            1.310547320301    -0.126917357237    -1.313082275000     1.007825032230
         H            1.311952320301     0.405987642763     1.683009725000     1.007825032230
         H            2.119478320301     1.390628642763     0.464154725000     1.007825032230
         H            0.071040320301    -2.205809357237    -0.735707275000     1.007825032230
         H            0.075889320301    -1.721064357237     0.965023725000     1.007825032230
         H           -0.068155679699     2.380996642763     1.157020725000     1.007825032230
         H           -1.284360679699    -0.223136357237    -1.333530275000     1.007825032230
         H           -1.324795679699     0.347224642763     1.661574725000     1.007825032230
         H           -2.172727679699     1.262511642763     0.402171725000     1.007825032230
         H            3.329886320301    -0.721743357237    -0.115949275000     1.007825032230
         H            2.542721320301    -2.080721357237    -0.543040275000     1.007825032230
         H            0.662438320301     2.633192642763    -1.039756275000     1.007825032230
         H           -2.352387679699    -1.699117357237     0.806397725000     1.007825032230

  Basis Set: AUG-CC-PVTZ
    Blend: AUG-CC-PVTZ
  Basis Set: (AUG-CC-PVTZ AUX)
    Blend: AUG-CC-PVTZ-JKFIT
	 Reference Energy          =    -439.1084597985411619 [Eh]
	 Singles Energy            =      -0.0000000000000000 [Eh]
	 Same-Spin Energy          =      -0.4516741982410504 [Eh]
	 Opposite-Spin Energy      =      -1.4733978398858607 [Eh]
	 Correlation Energy        =      -1.9250720381269111 [Eh]
	 Total Energy              =    -441.0335318366680895 [Eh]

	 ================> DF-SCS-MP2 Energies <==================
	-----------------------------------------------------------
	 SCS Same-Spin Scale       =       0.3333333333333333 [-]
	 SCS Opposite-Spin Scale   =       1.2000000000000000 [-]
	 SCS Same-Spin Energy      =      -0.1505580660803501 [Eh]
	 SCS Opposite-Spin Energy  =      -1.7680774078630328 [Eh]
	 SCS Correlation Energy    =      -1.9186354739433829 [Eh]
	 SCS Total Energy          =    -441.0270952724845301 [Eh]
	-----------------------------------------------------------

  Dipole Moment: [D]
     X:     2.5149      Y:     1.0897      Z:     0.7646     Total:     2.8455

*** Psi4 exiting successfully. Buy a developer a beer!
