                               Psi4 1.4a3.dev225

  ==> Input File <==

--------------------------------------------------------------------------
#psi4
#
memory 32 gb

molecule  {
0 1
  O       -0.1447520     2.0657680    -0.9147710
  O       -2.4135200    -1.3721290    -0.1231600
  N        2.4623060    -1.2702550     0.0647480
  C        1.2743520    -0.4775570    -0.2805680
  C        1.2169020     0.7460590     0.6287670
  C        0.0292070    -1.3356180    -0.0781670
  C       -0.0652210     1.5501200     0.4236430
  C       -1.2565570    -0.5478520    -0.3033930
  C       -1.3010200     0.6792110     0.6017970
  H        1.2815110    -0.1258050    -1.3254330
  H        1.2829160     0.4071000     1.6706590
  H        2.0904420     1.3917410     0.4518040
  H        0.0420040    -2.2046970    -0.7480580
  H        0.0468530    -1.7199520     0.9526730
  H       -0.0971920     2.3821090     1.1446700
  H       -1.3133970    -0.2220240    -1.3458810
  H       -1.3538320     0.3483370     1.6492240
  H       -2.2017640     1.2636240     0.3898210
  H        3.3008500    -0.7206310    -0.1283000
  H        2.5136850    -2.0796090    -0.5553910
  H        0.6334020     2.6343050    -1.0521070
  H       -2.3880152    -1.6310836     0.6056907
units angstrom
no_reorient  #important for SAPT in psi4, default
symmetry c1  #important for SAPT in psi4, default
}

set PROPERTIES_ORIGIN ["COM"]
properties('MP2/aug-cc-pvtz', properties = ['dipole'])
--------------------------------------------------------------------------

    Molecular point group: c1
  Charge       = 0
  Multiplicity = 1
  Basis Set: AUG-CC-PVTZ
    Blend: AUG-CC-PVTZ
  Basis Set: (AUG-CC-PVTZ AUX)
    Blend: AUG-CC-PVTZ-JKFIT

    Orbital Energies [Eh]
    ---------------------

    Doubly Occupied:

       1A    -20.562481     2A    -20.528988     3A    -15.546595
       4A    -11.286797     5A    -11.273611     6A    -11.257357
       7A    -11.226429     8A    -11.221002     9A    -11.218765
      10A     -1.411262    11A     -1.362724    12A     -1.193223
      13A     -1.092101    14A     -1.002039    15A     -0.987777
      16A     -0.854437    17A     -0.827769    18A     -0.774783
      19A     -0.710543    20A     -0.683227    21A     -0.655867
      22A     -0.642827    23A     -0.629968    24A     -0.625953
      25A     -0.594621    26A     -0.565517    27A     -0.551663
      28A     -0.535512    29A     -0.527479    30A     -0.501241
      31A     -0.491758    32A     -0.477489    33A     -0.455523
      34A     -0.447620    35A     -0.423185    36A     -0.396173

  @DF-RHF Final Energy:  -439.06387571069882

   => Energetics <=

    Nuclear Repulsion Energy =            508.2734605150163247
    One-Electron Energy =               -1607.5860638062006274
    Two-Electron Energy =                 660.2487275804854789
    Total Energy =                       -439.0638757106988805
  Basis Set: (AUG-CC-PVTZ AUX)
    Blend: AUG-CC-PVTZ-RI
    Molecular point group: c1

    Geometry (in Angstrom), charge = 0, multiplicity = 1:

       Center              X                  Y                   Z               Mass
    ------------   -----------------  -----------------  -----------------  -----------------
         O           -0.115764984721     2.062710453515    -0.899001848183    15.994914619570
         O           -2.384532984721    -1.375186546485    -0.107390848183    15.994914619570
         N            2.491293015279    -1.273312546485     0.080517151817    14.003074004430
         C            1.303339015279    -0.480614546485    -0.264798848183    12.000000000000
         C            1.245889015279     0.743001453515     0.644536151817    12.000000000000
         C            0.058194015279    -1.338675546485    -0.062397848183    12.000000000000
         C           -0.036233984721     1.547062453515     0.439412151817    12.000000000000
         C           -1.227569984721    -0.550909546485    -0.287623848183    12.000000000000
         C           -1.272032984721     0.676153453515     0.617566151817    12.000000000000
         H            1.310498015279    -0.128862546485    -1.309663848183     1.007825032230
         H            1.311903015279     0.404042453515     1.686428151817     1.007825032230
         H            2.119429015279     1.388683453515     0.467573151817     1.007825032230
         H            0.070991015279    -2.207754546485    -0.732288848183     1.007825032230
         H            0.075840015279    -1.723009546485     0.968442151817     1.007825032230
         H           -0.068204984721     2.379051453515     1.160439151817     1.007825032230
         H           -1.284409984721    -0.225081546485    -1.330111848183     1.007825032230
         H           -1.324844984721     0.345279453515     1.664993151817     1.007825032230
         H           -2.172776984721     1.260566453515     0.405590151817     1.007825032230
         H            3.329837015279    -0.723688546485    -0.112530848183     1.007825032230
         H            2.542672015279    -2.082666546485    -0.539621848183     1.007825032230
         H            0.662389015279     2.631247453515    -1.036337848183     1.007825032230
         H           -2.359028184721    -1.634141146485     0.621459851817     1.007825032230

  Basis Set: AUG-CC-PVTZ
    Blend: AUG-CC-PVTZ
  Basis Set: (AUG-CC-PVTZ AUX)
    Blend: AUG-CC-PVTZ-JKFIT
	 Reference Energy          =    -439.0638757106988237 [Eh]
	 Singles Energy            =      -0.0000000000000000 [Eh]
	 Same-Spin Energy          =      -0.4491420560617361 [Eh]
	 Opposite-Spin Energy      =      -1.4676383393820580 [Eh]
	 Correlation Energy        =      -1.9167803954437941 [Eh]
	 Total Energy              =    -440.9806561061425896 [Eh]

	 ================> DF-SCS-MP2 Energies <==================
	-----------------------------------------------------------
	 SCS Same-Spin Scale       =       0.3333333333333333 [-]
	 SCS Opposite-Spin Scale   =       1.2000000000000000 [-]
	 SCS Same-Spin Energy      =      -0.1497140186872453 [Eh]
	 SCS Opposite-Spin Energy  =      -1.7611660072584696 [Eh]
	 SCS Correlation Energy    =      -1.9108800259457150 [Eh]
	 SCS Total Energy          =    -440.9747557366445108 [Eh]
	-----------------------------------------------------------

  Dipole Moment: [D]
     X:     2.5978      Y:     1.2054      Z:     0.6395     Total:     2.9343

*** Psi4 exiting successfully. Buy a developer a beer!
