                               Psi4 1.4a3.dev225

  ==> Input File <==

--------------------------------------------------------------------------
#psi4
#
memory 32 gb

molecule  {
0 1
  O       -0.1447520     2.0657680    -0.9147710
  O       -2.4135200    -1.3721290    -0.1231600
  N        2.4623060    -1.2702550     0.0647480
  C        1.2743520    -0.4775570    -0.2805680
  C        1.2169020     0.7460590     0.6287670
  C        0.0292070    -1.3356180    -0.0781670
  C       -0.0652210     1.5501200     0.4236430
  C       -1.2565570    -0.5478520    -0.3033930
  C       -1.3010200     0.6792110     0.6017970
  H        1.2815110    -0.1258050    -1.3254330
  H        1.2859231     0.3916595     1.7181200
  H        2.0904420     1.3917410     0.4518040
  H        0.0420040    -2.2046970    -0.7480580
  H        0.0468530    -1.7199520     0.9526730
  H       -0.0971920     2.3821090     1.1446700
  H       -1.3133970    -0.2220240    -1.3458810
  H       -1.3538320     0.3483370     1.6492240
  H       -2.2017640     1.2636240     0.3898210
  H        3.3008500    -0.7206310    -0.1283000
  H        2.5136850    -2.0796090    -0.5553910
  H        0.6334020     2.6343050    -1.0521070
  H       -2.3814240    -1.6980050     0.7940470
units angstrom
no_reorient  #important for SAPT in psi4, default
symmetry c1  #important for SAPT in psi4, default
}

set PROPERTIES_ORIGIN ["COM"]
properties('MP2/aug-cc-pvtz', properties = ['dipole'])
--------------------------------------------------------------------------

    Molecular point group: c1
  Charge       = 0
  Multiplicity = 1
  Basis Set: AUG-CC-PVTZ
    Blend: AUG-CC-PVTZ
  Basis Set: (AUG-CC-PVTZ AUX)
    Blend: AUG-CC-PVTZ-JKFIT

    Orbital Energies [Eh]
    ---------------------

    Doubly Occupied:

       1A    -20.562416     2A    -20.551671     3A    -15.546118
       4A    -11.286343     5A    -11.271976     6A    -11.257035
       7A    -11.231732     8A    -11.219830     9A    -11.217708
      10A     -1.363128    11A     -1.350143    12A     -1.192282
      13A     -1.086948    14A     -0.995010    15A     -0.985187
      16A     -0.839812    17A     -0.823048    18A     -0.767928
      19A     -0.696247    20A     -0.676611    21A     -0.654333
      22A     -0.641900    23A     -0.625520    24A     -0.610733
      25A     -0.591493    26A     -0.563478    27A     -0.548393
      28A     -0.530235    29A     -0.525202    30A     -0.498984
      31A     -0.487447    32A     -0.476072    33A     -0.453850
      34A     -0.444213    35A     -0.420480    36A     -0.395616

  @DF-RHF Final Energy:  -439.10731821719173

   => Energetics <=

    Nuclear Repulsion Energy =            506.6350285490145211
    One-Electron Energy =               -1604.7064437288386216
    Two-Electron Energy =                 658.9640969626323113
    Total Energy =                       -439.1073182171917324
  Basis Set: (AUG-CC-PVTZ AUX)
    Blend: AUG-CC-PVTZ-RI
    Molecular point group: c1

    Geometry (in Angstrom), charge = 0, multiplicity = 1:

       Center              X                  Y                   Z               Mass
    ------------   -----------------  -----------------  -----------------  -----------------
         O           -0.115838774221     2.063343632657    -0.900814756770    15.994914619570
         O           -2.384606774221    -1.374553367343    -0.109203756770    15.994914619570
         N            2.491219225779    -1.272679367343     0.078704243230    14.003074004430
         C            1.303265225779    -0.479981367343    -0.266611756770    12.000000000000
         C            1.245815225779     0.743634632657     0.642723243230    12.000000000000
         C            0.058120225779    -1.338042367343    -0.064210756770    12.000000000000
         C           -0.036307774221     1.547695632657     0.437599243230    12.000000000000
         C           -1.227643774221    -0.550276367343    -0.289436756770    12.000000000000
         C           -1.272106774221     0.676786632657     0.615753243230    12.000000000000
         H            1.310424225779    -0.128229367343    -1.311476756770     1.007825032230
         H            1.314836325779     0.389235132657     1.732076243230     1.007825032230
         H            2.119355225779     1.389316632657     0.465760243230     1.007825032230
         H            0.070917225779    -2.207121367343    -0.734101756770     1.007825032230
         H            0.075766225779    -1.722376367343     0.966629243230     1.007825032230
         H           -0.068278774221     2.379684632657     1.158626243230     1.007825032230
         H           -1.284483774221    -0.224448367343    -1.331924756770     1.007825032230
         H           -1.324918774221     0.345912632657     1.663180243230     1.007825032230
         H           -2.172850774221     1.261199632657     0.403777243230     1.007825032230
         H            3.329763225779    -0.723055367343    -0.114343756770     1.007825032230
         H            2.542598225779    -2.082033367343    -0.541434756770     1.007825032230
         H            0.662315225779     2.631880632657    -1.038150756770     1.007825032230
         H           -2.352510774221    -1.700429367343     0.808003243230     1.007825032230

  Basis Set: AUG-CC-PVTZ
    Blend: AUG-CC-PVTZ
  Basis Set: (AUG-CC-PVTZ AUX)
    Blend: AUG-CC-PVTZ-JKFIT
	 Reference Energy          =    -439.1073182171917324 [Eh]
	 Singles Energy            =      -0.0000000000000000 [Eh]
	 Same-Spin Energy          =      -0.4515828605851182 [Eh]
	 Opposite-Spin Energy      =      -1.4736856672697480 [Eh]
	 Correlation Energy        =      -1.9252685278548662 [Eh]
	 Total Energy              =    -441.0325867450466149 [Eh]

	 ================> DF-SCS-MP2 Energies <==================
	-----------------------------------------------------------
	 SCS Same-Spin Scale       =       0.3333333333333333 [-]
	 SCS Opposite-Spin Scale   =       1.2000000000000000 [-]
	 SCS Same-Spin Energy      =      -0.1505276201950394 [Eh]
	 SCS Opposite-Spin Energy  =      -1.7684228007236975 [Eh]
	 SCS Correlation Energy    =      -1.9189504209187369 [Eh]
	 SCS Total Energy          =    -441.0262686381104800 [Eh]
	-----------------------------------------------------------

  Dipole Moment: [D]
     X:     2.5344      Y:     1.1304      Z:     0.7184     Total:     2.8666

*** Psi4 exiting successfully. Buy a developer a beer!
