                               Psi4 1.4a3.dev225

  ==> Input File <==

--------------------------------------------------------------------------
#psi4
#
memory 32 gb

molecule  {
0 1
  O       -0.1447520     2.0657680    -0.9147710
  O       -2.4135200    -1.3721290    -0.1231600
  N        2.4623060    -1.2702550     0.0647480
  C        1.2743520    -0.4775570    -0.2805680
  C        1.2169020     0.7460590     0.6287670
  C        0.0292070    -1.3356180    -0.0781670
  C       -0.0652210     1.5501200     0.4236430
  C       -1.2565570    -0.5478520    -0.3033930
  C       -1.3010200     0.6792110     0.6017970
  H        1.2815110    -0.1258050    -1.3254330
  H        1.2829160     0.4071000     1.6706590
  H        2.0904420     1.3917410     0.4518040
  H        0.0420040    -2.2046970    -0.7480580
  H        0.0468530    -1.7199520     0.9526730
  H       -0.0971920     2.3821090     1.1446700
  H       -1.3133970    -0.2220240    -1.3458810
  H       -1.3490297     0.3784243     1.5539786
  H       -2.2017640     1.2636240     0.3898210
  H        3.3008500    -0.7206310    -0.1283000
  H        2.5136850    -2.0796090    -0.5553910
  H        0.6334020     2.6343050    -1.0521070
  H       -2.3814240    -1.6980050     0.7940470
units angstrom
no_reorient  #important for SAPT in psi4, default
symmetry c1  #important for SAPT in psi4, default
}

set PROPERTIES_ORIGIN ["COM"]
properties('MP2/aug-cc-pvtz', properties = ['dipole'])
--------------------------------------------------------------------------

    Molecular point group: c1
  Charge       = 0
  Multiplicity = 1
  Basis Set: AUG-CC-PVTZ
    Blend: AUG-CC-PVTZ
  Basis Set: (AUG-CC-PVTZ AUX)
    Blend: AUG-CC-PVTZ-JKFIT

    Orbital Energies [Eh]
    ---------------------

    Doubly Occupied:

       1A    -20.560984     2A    -20.551694     3A    -15.545986
       4A    -11.285000     5A    -11.270848     6A    -11.256385
       7A    -11.225802     8A    -11.217627     9A    -11.206902
      10A     -1.361787    11A     -1.350083    12A     -1.192289
      13A     -1.089517    14A     -0.995875    15A     -0.990095
      16A     -0.839801    17A     -0.827278    18A     -0.774022
      19A     -0.696885    20A     -0.677939    21A     -0.654746
      22A     -0.641447    23A     -0.625557    24A     -0.614115
      25A     -0.593432    26A     -0.563685    27A     -0.548633
      28A     -0.537288    29A     -0.528479    30A     -0.500788
      31A     -0.490087    32A     -0.476658    33A     -0.452896
      34A     -0.444160    35A     -0.419734    36A     -0.395305

  @DF-RHF Final Energy:  -439.10380262770093

   => Energetics <=

    Nuclear Repulsion Energy =            507.4251029310310628
    One-Electron Energy =               -1606.2501947925604782
    Two-Electron Energy =                 659.7212892338285428
    Total Energy =                       -439.1038026277009294
  Basis Set: (AUG-CC-PVTZ AUX)
    Blend: AUG-CC-PVTZ-RI
    Molecular point group: c1

    Geometry (in Angstrom), charge = 0, multiplicity = 1:

       Center              X                  Y                   Z               Mass
    ------------   -----------------  -----------------  -----------------  -----------------
         O           -0.115852575301     2.062993625514    -0.899717663139    15.994914619570
         O           -2.384620575301    -1.374903374486    -0.108106663139    15.994914619570
         N            2.491205424699    -1.273029374486     0.079801336861    14.003074004430
         C            1.303251424699    -0.480331374486    -0.265514663139    12.000000000000
         C            1.245801424699     0.743284625514     0.643820336861    12.000000000000
         C            0.058106424699    -1.338392374486    -0.063113663139    12.000000000000
         C           -0.036321575301     1.547345625514     0.438696336861    12.000000000000
         C           -1.227657575301    -0.550626374486    -0.288339663139    12.000000000000
         C           -1.272120575301     0.676436625514     0.616850336861    12.000000000000
         H            1.310410424699    -0.128579374486    -1.310379663139     1.007825032230
         H            1.311815424699     0.404325625514     1.685712336861     1.007825032230
         H            2.119341424699     1.388966625514     0.466857336861     1.007825032230
         H            0.070903424699    -2.207471374486    -0.733004663139     1.007825032230
         H            0.075752424699    -1.722726374486     0.967726336861     1.007825032230
         H           -0.068292575301     2.379334625514     1.159723336861     1.007825032230
         H           -1.284497575301    -0.224798374486    -1.330827663139     1.007825032230
         H           -1.320130275301     0.375649925514     1.569031936861     1.007825032230
         H           -2.172864575301     1.260849625514     0.404874336861     1.007825032230
         H            3.329749424699    -0.723405374486    -0.113246663139     1.007825032230
         H            2.542584424699    -2.082383374486    -0.540337663139     1.007825032230
         H            0.662301424699     2.631530625514    -1.037053663139     1.007825032230
         H           -2.352524575301    -1.700779374486     0.809100336861     1.007825032230

  Basis Set: AUG-CC-PVTZ
    Blend: AUG-CC-PVTZ
  Basis Set: (AUG-CC-PVTZ AUX)
    Blend: AUG-CC-PVTZ-JKFIT
	 Reference Energy          =    -439.1038026277009294 [Eh]
	 Singles Energy            =      -0.0000000000000000 [Eh]
	 Same-Spin Energy          =      -0.4514925627543230 [Eh]
	 Opposite-Spin Energy      =      -1.4727867151495329 [Eh]
	 Correlation Energy        =      -1.9242792779038558 [Eh]
	 Total Energy              =    -441.0280819056047790 [Eh]

	 ================> DF-SCS-MP2 Energies <==================
	-----------------------------------------------------------
	 SCS Same-Spin Scale       =       0.3333333333333333 [-]
	 SCS Opposite-Spin Scale   =       1.2000000000000000 [-]
	 SCS Same-Spin Energy      =      -0.1504975209181077 [Eh]
	 SCS Opposite-Spin Energy  =      -1.7673440581794393 [Eh]
	 SCS Correlation Energy    =      -1.9178415790975469 [Eh]
	 SCS Total Energy          =    -441.0216442067984985 [Eh]
	-----------------------------------------------------------

  Dipole Moment: [D]
     X:     2.5270      Y:     1.1100      Z:     0.7979     Total:     2.8731

*** Psi4 exiting successfully. Buy a developer a beer!
