                               Psi4 1.4a3.dev225

  ==> Input File <==

--------------------------------------------------------------------------
#psi4
#
memory 32 gb

molecule  {
0 1
  O       -0.1447520     2.0657680    -0.9147710
  O       -2.4135200    -1.3721290    -0.1231600
  N        2.4623060    -1.2702550     0.0647480
  C        1.2743520    -0.4775570    -0.2805680
  C        1.2169020     0.7460590     0.6287670
  C        0.0292070    -1.3356180    -0.0781670
  C       -0.0652210     1.5501200     0.4236430
  C       -1.2943471    -0.6571400    -0.4133733
  C       -1.3010200     0.6792110     0.6017970
  H        1.2815110    -0.1258050    -1.3254330
  H        1.2829160     0.4071000     1.6706590
  H        2.0904420     1.3917410     0.4518040
  H        0.0420040    -2.2046970    -0.7480580
  H        0.0468530    -1.7199520     0.9526730
  H       -0.0971920     2.3821090     1.1446700
  H       -1.3133970    -0.2220240    -1.3458810
  H       -1.3538320     0.3483370     1.6492240
  H       -2.2017640     1.2636240     0.3898210
  H        3.3008500    -0.7206310    -0.1283000
  H        2.5136850    -2.0796090    -0.5553910
  H        0.6334020     2.6343050    -1.0521070
  H       -2.3814240    -1.6980050     0.7940470
units angstrom
no_reorient  #important for SAPT in psi4, default
symmetry c1  #important for SAPT in psi4, default
}

set PROPERTIES_ORIGIN ["COM"]
properties('MP2/aug-cc-pvtz', properties = ['dipole'])
--------------------------------------------------------------------------

    Molecular point group: c1
  Charge       = 0
  Multiplicity = 1
  Basis Set: AUG-CC-PVTZ
    Blend: AUG-CC-PVTZ
  Basis Set: (AUG-CC-PVTZ AUX)
    Blend: AUG-CC-PVTZ-JKFIT

    Orbital Energies [Eh]
    ---------------------

    Doubly Occupied:

       1A    -20.559397     2A    -20.558751     3A    -15.545889
       4A    -11.280504     5A    -11.274775     6A    -11.256797
       7A    -11.223000     8A    -11.217837     9A    -11.215214
      10A     -1.380316    11A     -1.358179    12A     -1.191449
      13A     -1.074629    14A     -0.996573    15A     -0.970589
      16A     -0.848442    17A     -0.820838    18A     -0.770389
      19A     -0.697928    20A     -0.678611    21A     -0.656267
      22A     -0.640991    23A     -0.633133    24A     -0.620670
      25A     -0.597586    26A     -0.566683    27A     -0.549254
      28A     -0.528259    29A     -0.522911    30A     -0.491849
      31A     -0.490711    32A     -0.481927    33A     -0.453809
      34A     -0.447784    35A     -0.397763    36A     -0.378544

  @DF-RHF Final Energy:  -439.09000912693676

   => Energetics <=

    Nuclear Repulsion Energy =            505.5350365279361426
    One-Electron Energy =               -1602.4935970294006893
    Two-Electron Energy =                 657.8685513745277831
    Total Energy =                       -439.0900091269367067
  Basis Set: (AUG-CC-PVTZ AUX)
    Blend: AUG-CC-PVTZ-RI
    Molecular point group: c1

    Geometry (in Angstrom), charge = 0, multiplicity = 1:

       Center              X                  Y                   Z               Mass
    ------------   -----------------  -----------------  -----------------  -----------------
         O           -0.112356466552     2.073228817815    -0.890382628484    15.994914619570
         O           -2.381124466552    -1.364668182185    -0.098771628484    15.994914619570
         N            2.494701533448    -1.262794182185     0.089136371516    14.003074004430
         C            1.306747533448    -0.470096182185    -0.256179628484    12.000000000000
         C            1.249297533448     0.753519817815     0.653155371516    12.000000000000
         C            0.061602533448    -1.328157182185    -0.053778628484    12.000000000000
         C           -0.032825466552     1.557580817815     0.448031371516    12.000000000000
         C           -1.261951566552    -0.649679182185    -0.388984928484    12.000000000000
         C           -1.268624466552     0.686671817815     0.626185371516    12.000000000000
         H            1.313906533448    -0.118344182185    -1.301044628484     1.007825032230
         H            1.315311533448     0.414560817815     1.695047371516     1.007825032230
         H            2.122837533448     1.399201817815     0.476192371516     1.007825032230
         H            0.074399533448    -2.197236182185    -0.723669628484     1.007825032230
         H            0.079248533448    -1.712491182185     0.977061371516     1.007825032230
         H           -0.064796466552     2.389569817815     1.169058371516     1.007825032230
         H           -1.281001466552    -0.214563182185    -1.321492628484     1.007825032230
         H           -1.321436466552     0.355797817815     1.673612371516     1.007825032230
         H           -2.169368466552     1.271084817815     0.414209371516     1.007825032230
         H            3.333245533448    -0.713170182185    -0.103911628484     1.007825032230
         H            2.546080533448    -2.072148182185    -0.531002628484     1.007825032230
         H            0.665797533448     2.641765817815    -1.027718628484     1.007825032230
         H           -2.349028466552    -1.690544182185     0.818435371516     1.007825032230

  Basis Set: AUG-CC-PVTZ
    Blend: AUG-CC-PVTZ
  Basis Set: (AUG-CC-PVTZ AUX)
    Blend: AUG-CC-PVTZ-JKFIT
	 Reference Energy          =    -439.0900091269367636 [Eh]
	 Singles Energy            =      -0.0000000000000000 [Eh]
	 Same-Spin Energy          =      -0.4513080191760791 [Eh]
	 Opposite-Spin Energy      =      -1.4727274933593224 [Eh]
	 Correlation Energy        =      -1.9240355125354016 [Eh]
	 Total Energy              =    -441.0140446394721607 [Eh]

	 ================> DF-SCS-MP2 Energies <==================
	-----------------------------------------------------------
	 SCS Same-Spin Scale       =       0.3333333333333333 [-]
	 SCS Opposite-Spin Scale   =       1.2000000000000000 [-]
	 SCS Same-Spin Energy      =      -0.1504360063920264 [Eh]
	 SCS Opposite-Spin Energy  =      -1.7672729920311869 [Eh]
	 SCS Correlation Energy    =      -1.9177089984232132 [Eh]
	 SCS Total Energy          =    -441.0077181253599861 [Eh]
	-----------------------------------------------------------

  Dipole Moment: [D]
     X:     2.2977      Y:     0.7757      Z:     0.6187     Total:     2.5028

*** Psi4 exiting successfully. Buy a developer a beer!
