                               Psi4 1.4a3.dev225

  ==> Input File <==

--------------------------------------------------------------------------
#psi4
#
memory 32 gb

molecule  {
0 1
  O       -0.1447520     2.0657680    -0.9147710
  O       -2.4135200    -1.3721290    -0.1231600
  N        2.4623060    -1.2702550     0.0647480
  C        1.2743520    -0.4775570    -0.2805680
  C        1.2169020     0.7460590     0.6287670
  C        0.0292070    -1.3356180    -0.0781670
  C       -0.0652210     1.5501200     0.4236430
  C       -1.2319890    -0.5676591    -0.2085572
  C       -1.3010200     0.6792110     0.6017970
  H        1.2815110    -0.1258050    -1.3254330
  H        1.2829160     0.4071000     1.6706590
  H        2.0904420     1.3917410     0.4518040
  H        0.0420040    -2.2046970    -0.7480580
  H        0.0468530    -1.7199520     0.9526730
  H       -0.0971920     2.3821090     1.1446700
  H       -1.3133970    -0.2220240    -1.3458810
  H       -1.3538320     0.3483370     1.6492240
  H       -2.2017640     1.2636240     0.3898210
  H        3.3008500    -0.7206310    -0.1283000
  H        2.5136850    -2.0796090    -0.5553910
  H        0.6334020     2.6343050    -1.0521070
  H       -2.3814240    -1.6980050     0.7940470
units angstrom
no_reorient  #important for SAPT in psi4, default
symmetry c1  #important for SAPT in psi4, default
}

set PROPERTIES_ORIGIN ["COM"]
properties('MP2/aug-cc-pvtz', properties = ['dipole'])
--------------------------------------------------------------------------

    Molecular point group: c1
  Charge       = 0
  Multiplicity = 1
  Basis Set: AUG-CC-PVTZ
    Blend: AUG-CC-PVTZ
  Basis Set: (AUG-CC-PVTZ AUX)
    Blend: AUG-CC-PVTZ-JKFIT

    Orbital Energies [Eh]
    ---------------------

    Doubly Occupied:

       1A    -20.561556     2A    -20.555741     3A    -15.546997
       4A    -11.287499     5A    -11.275104     6A    -11.258160
       7A    -11.226912     8A    -11.220539     9A    -11.217988
      10A     -1.362855    11A     -1.354492    12A     -1.193891
      13A     -1.093862    14A     -1.001318    15A     -0.990225
      16A     -0.839907    17A     -0.823154    18A     -0.765530
      19A     -0.696766    20A     -0.679971    21A     -0.657324
      22A     -0.644890    23A     -0.629576    24A     -0.605159
      25A     -0.591411    26A     -0.563123    27A     -0.554686
      28A     -0.539028    29A     -0.527042    30A     -0.499046
      31A     -0.492354    32A     -0.461665    33A     -0.455625
      34A     -0.440214    35A     -0.423238    36A     -0.396947

  @DF-RHF Final Energy:  -439.09620437718098

   => Energetics <=

    Nuclear Repulsion Energy =            507.6881582767177292
    One-Electron Energy =               -1606.7011361237380243
    Two-Electron Energy =                 659.9167734698391996
    Total Energy =                       -439.0962043771810386
  Basis Set: (AUG-CC-PVTZ AUX)
    Blend: AUG-CC-PVTZ-RI
    Molecular point group: c1

    Geometry (in Angstrom), charge = 0, multiplicity = 1:

       Center              X                  Y                   Z               Mass
    ------------   -----------------  -----------------  -----------------  -----------------
         O           -0.118064535660     2.065038010832    -0.909130865731    15.994914619570
         O           -2.386832535660    -1.372858989168    -0.117519865731    15.994914619570
         N            2.488993464340    -1.270984989168     0.070388134269    14.003074004430
         C            1.301039464340    -0.478286989168    -0.274927865731    12.000000000000
         C            1.243589464340     0.745329010832     0.634407134269    12.000000000000
         C            0.055894464340    -1.336347989168    -0.072526865731    12.000000000000
         C           -0.038533535660     1.549390010832     0.429283134269    12.000000000000
         C           -1.205301535660    -0.568389089168    -0.202917065731    12.000000000000
         C           -1.274332535660     0.678481010832     0.607437134269    12.000000000000
         H            1.308198464340    -0.126534989168    -1.319792865731     1.007825032230
         H            1.309603464340     0.406370010832     1.676299134269     1.007825032230
         H            2.117129464340     1.391011010832     0.457444134269     1.007825032230
         H            0.068691464340    -2.205426989168    -0.742417865731     1.007825032230
         H            0.073540464340    -1.720681989168     0.958313134269     1.007825032230
         H           -0.070504535660     2.381379010832     1.150310134269     1.007825032230
         H           -1.286709535660    -0.222753989168    -1.340240865731     1.007825032230
         H           -1.327144535660     0.347607010832     1.654864134269     1.007825032230
         H           -2.175076535660     1.262894010832     0.395461134269     1.007825032230
         H            3.327537464340    -0.721360989168    -0.122659865731     1.007825032230
         H            2.540372464340    -2.080338989168    -0.549750865731     1.007825032230
         H            0.660089464340     2.633575010832    -1.046466865731     1.007825032230
         H           -2.354736535660    -1.698734989168     0.799687134269     1.007825032230

  Basis Set: AUG-CC-PVTZ
    Blend: AUG-CC-PVTZ
  Basis Set: (AUG-CC-PVTZ AUX)
    Blend: AUG-CC-PVTZ-JKFIT
	 Reference Energy          =    -439.0962043771809817 [Eh]
	 Singles Energy            =      -0.0000000000000000 [Eh]
	 Same-Spin Energy          =      -0.4526832975034324 [Eh]
	 Opposite-Spin Energy      =      -1.4752276890561937 [Eh]
	 Correlation Energy        =      -1.9279109865596262 [Eh]
	 Total Energy              =    -441.0241153637406342 [Eh]

	 ================> DF-SCS-MP2 Energies <==================
	-----------------------------------------------------------
	 SCS Same-Spin Scale       =       0.3333333333333333 [-]
	 SCS Opposite-Spin Scale   =       1.2000000000000000 [-]
	 SCS Same-Spin Energy      =      -0.1508944325011441 [Eh]
	 SCS Opposite-Spin Energy  =      -1.7702732268674324 [Eh]
	 SCS Correlation Energy    =      -1.9211676593685765 [Eh]
	 SCS Total Energy          =    -441.0173720365495456 [Eh]
	-----------------------------------------------------------

  Dipole Moment: [D]
     X:     2.5902      Y:     1.1123      Z:     0.8403     Total:     2.9415

*** Psi4 exiting successfully. Buy a developer a beer!
