                               Psi4 1.4a3.dev225

  ==> Input File <==

--------------------------------------------------------------------------
#psi4
#
memory 32 gb

molecule  {
0 1
  O       -0.1447520     2.0657680    -0.9147710
  O       -2.4135200    -1.3721290    -0.1231600
  N        2.4623060    -1.2702550     0.0647480
  C        1.2743520    -0.4775570    -0.2805680
  C        1.2169020     0.7460590     0.6287670
  C        0.0292070    -1.3356180    -0.0781670
  C       -0.0652210     1.5501200     0.4236430
  C       -1.2565570    -0.5478520    -0.3033930
  C       -1.3010200     0.6792110     0.6017970
  H        1.2815110    -0.1258050    -1.3254330
  H        1.2829160     0.4071000     1.6706590
  H        2.0904420     1.3917410     0.4518040
  H        0.0420040    -2.2046970    -0.7480580
  H        0.0468530    -1.7199520     0.9526730
  H       -0.0971920     2.3821090     1.1446700
  H       -1.3133970    -0.2220240    -1.3458810
  H       -1.3514308     0.3633806     1.6016013
  H       -2.2017640     1.2636240     0.3898210
  H        3.3008500    -0.7206310    -0.1283000
  H        2.5136850    -2.0796090    -0.5553910
  H        0.6334020     2.6343050    -1.0521070
  H       -2.3814240    -1.6980050     0.7940470
units angstrom
no_reorient  #important for SAPT in psi4, default
symmetry c1  #important for SAPT in psi4, default
}

set PROPERTIES_ORIGIN ["COM"]
properties('MP2/aug-cc-pvtz', properties = ['dipole'])
--------------------------------------------------------------------------

    Molecular point group: c1
  Charge       = 0
  Multiplicity = 1
  Basis Set: AUG-CC-PVTZ
    Blend: AUG-CC-PVTZ
  Basis Set: (AUG-CC-PVTZ AUX)
    Blend: AUG-CC-PVTZ-JKFIT

    Orbital Energies [Eh]
    ---------------------

    Doubly Occupied:

       1A    -20.561403     2A    -20.551659     3A    -15.546016
       4A    -11.285431     5A    -11.271354     6A    -11.256428
       7A    -11.225802     8A    -11.217637     9A    -11.213433
      10A     -1.362193    11A     -1.350080    12A     -1.192302
      13A     -1.088286    14A     -0.995945    15A     -0.987828
      16A     -0.840069    17A     -0.824996    18A     -0.771732
      19A     -0.696401    20A     -0.677961    21A     -0.654728
      22A     -0.641506    23A     -0.625664    24A     -0.612758
      25A     -0.592699    26A     -0.563550    27A     -0.548594
      28A     -0.533295    29A     -0.528276    30A     -0.500446
      31A     -0.490216    32A     -0.476323    33A     -0.453228
      34A     -0.444143    35A     -0.420022    36A     -0.395358

  @DF-RHF Final Energy:  -439.10860497068927

   => Energetics <=

    Nuclear Repulsion Energy =            507.1478614385243873
    One-Electron Energy =               -1605.7174059090325500
    Two-Electron Energy =                 659.4609394998188918
    Total Energy =                       -439.1086049706892709
  Basis Set: (AUG-CC-PVTZ AUX)
    Blend: AUG-CC-PVTZ-RI
    Molecular point group: c1

    Geometry (in Angstrom), charge = 0, multiplicity = 1:

       Center              X                  Y                   Z               Mass
    ------------   -----------------  -----------------  -----------------  -----------------
         O           -0.115834116202     2.063109277982    -0.900083775387    15.994914619570
         O           -2.384602116202    -1.374787722018    -0.108472775387    15.994914619570
         N            2.491223883798    -1.272913722018     0.079435224613    14.003074004430
         C            1.303269883798    -0.480215722018    -0.265880775387    12.000000000000
         C            1.245819883798     0.743400277982     0.643454224613    12.000000000000
         C            0.058124883798    -1.338276722018    -0.063479775387    12.000000000000
         C           -0.036303116202     1.547461277982     0.438330224613    12.000000000000
         C           -1.227639116202    -0.550510722018    -0.288705775387    12.000000000000
         C           -1.272102116202     0.676552277982     0.616484224613    12.000000000000
         H            1.310428883798    -0.128463722018    -1.310745775387     1.007825032230
         H            1.311833883798     0.404441277982     1.685346224613     1.007825032230
         H            2.119359883798     1.389082277982     0.466491224613     1.007825032230
         H            0.070921883798    -2.207355722018    -0.733370775387     1.007825032230
         H            0.075770883798    -1.722610722018     0.967360224613     1.007825032230
         H           -0.068274116202     2.379450277982     1.159357224613     1.007825032230
         H           -1.284479116202    -0.224682722018    -1.331193775387     1.007825032230
         H           -1.322512916202     0.360721877982     1.616288524613     1.007825032230
         H           -2.172846116202     1.260965277982     0.404508224613     1.007825032230
         H            3.329767883798    -0.723289722018    -0.113612775387     1.007825032230
         H            2.542602883798    -2.082267722018    -0.540703775387     1.007825032230
         H            0.662319883798     2.631646277982    -1.037419775387     1.007825032230
         H           -2.352506116202    -1.700663722018     0.808734224613     1.007825032230

  Basis Set: AUG-CC-PVTZ
    Blend: AUG-CC-PVTZ
  Basis Set: (AUG-CC-PVTZ AUX)
    Blend: AUG-CC-PVTZ-JKFIT
	 Reference Energy          =    -439.1086049706892709 [Eh]
	 Singles Energy            =      -0.0000000000000000 [Eh]
	 Same-Spin Energy          =      -0.4515003827294419 [Eh]
	 Opposite-Spin Energy      =      -1.4729973884240950 [Eh]
	 Correlation Energy        =      -1.9244977711535369 [Eh]
	 Total Energy              =    -441.0331027418428107 [Eh]

	 ================> DF-SCS-MP2 Energies <==================
	-----------------------------------------------------------
	 SCS Same-Spin Scale       =       0.3333333333333333 [-]
	 SCS Opposite-Spin Scale   =       1.2000000000000000 [-]
	 SCS Same-Spin Energy      =      -0.1505001275764806 [Eh]
	 SCS Opposite-Spin Energy  =      -1.7675968661089139 [Eh]
	 SCS Correlation Energy    =      -1.9180969936853944 [Eh]
	 SCS Total Energy          =    -441.0267019643746380 [Eh]
	-----------------------------------------------------------

  Dipole Moment: [D]
     X:     2.5318      Y:     1.1183      Z:     0.7734     Total:     2.8738

*** Psi4 exiting successfully. Buy a developer a beer!
