                               Psi4 1.4a3.dev225

  ==> Input File <==

--------------------------------------------------------------------------
#psi4
#
memory 32 gb

molecule  {
0 1
  O       -0.1447520     2.0657680    -0.9147710
  O       -2.4135200    -1.3721290    -0.1231600
  N        2.4623060    -1.2702550     0.0647480
  C        1.2743520    -0.4775570    -0.2805680
  C        1.2716374     0.8354317     0.6092757
  C        0.0292070    -1.3356180    -0.0781670
  C       -0.0652210     1.5501200     0.4236430
  C       -1.2565570    -0.5478520    -0.3033930
  C       -1.3010200     0.6792110     0.6017970
  H        1.2815110    -0.1258050    -1.3254330
  H        1.2829160     0.4071000     1.6706590
  H        2.0904420     1.3917410     0.4518040
  H        0.0420040    -2.2046970    -0.7480580
  H        0.0468530    -1.7199520     0.9526730
  H       -0.0971920     2.3821090     1.1446700
  H       -1.3133970    -0.2220240    -1.3458810
  H       -1.3538320     0.3483370     1.6492240
  H       -2.2017640     1.2636240     0.3898210
  H        3.3008500    -0.7206310    -0.1283000
  H        2.5136850    -2.0796090    -0.5553910
  H        0.6334020     2.6343050    -1.0521070
  H       -2.3814240    -1.6980050     0.7940470
units angstrom
no_reorient  #important for SAPT in psi4, default
symmetry c1  #important for SAPT in psi4, default
}

set PROPERTIES_ORIGIN ["COM"]
properties('MP2/aug-cc-pvtz', properties = ['dipole'])
--------------------------------------------------------------------------

    Molecular point group: c1
  Charge       = 0
  Multiplicity = 1
  Basis Set: AUG-CC-PVTZ
    Blend: AUG-CC-PVTZ
  Basis Set: (AUG-CC-PVTZ AUX)
    Blend: AUG-CC-PVTZ-JKFIT

    Orbital Energies [Eh]
    ---------------------

    Doubly Occupied:

       1A    -20.559903     2A    -20.551856     3A    -15.545500
       4A    -11.286073     5A    -11.272123     6A    -11.259163
       7A    -11.224321     8A    -11.221862     9A    -11.218777
      10A     -1.362034    11A     -1.350319    12A     -1.188887
      13A     -1.083917    14A     -0.998457    15A     -0.983486
      16A     -0.843243    17A     -0.822269    18A     -0.769225
      19A     -0.694962    20A     -0.675635    21A     -0.654676
      22A     -0.650844    23A     -0.626750    24A     -0.610535
      25A     -0.591865    26A     -0.561369    27A     -0.547940
      28A     -0.537197    29A     -0.524657    30A     -0.499717
      31A     -0.486780    32A     -0.471518    33A     -0.457959
      34A     -0.443585    35A     -0.418301    36A     -0.389985

  @DF-RHF Final Energy:  -439.09679325032977

   => Energetics <=

    Nuclear Repulsion Energy =            505.6747418696704131
    One-Electron Energy =               -1602.7716912879404845
    Two-Electron Energy =                 658.0001561679403039
    Total Energy =                       -439.0967932503297106
  Basis Set: (AUG-CC-PVTZ AUX)
    Blend: AUG-CC-PVTZ-RI
    Molecular point group: c1

    Geometry (in Angstrom), charge = 0, multiplicity = 1:

       Center              X                  Y                   Z               Mass
    ------------   -----------------  -----------------  -----------------  -----------------
         O           -0.120825966877     2.055044026994    -0.898665713848    15.994914619570
         O           -2.389593966877    -1.382852973006    -0.107054713848    15.994914619570
         N            2.486232033123    -1.280978973006     0.080853286152    14.003074004430
         C            1.298278033123    -0.488280973006    -0.264462713848    12.000000000000
         C            1.295563433123     0.824707726994     0.625380986152    12.000000000000
         C            0.053133033123    -1.346341973006    -0.062061713848    12.000000000000
         C           -0.041294966877     1.539396026994     0.439748286152    12.000000000000
         C           -1.232630966877    -0.558575973006    -0.287287713848    12.000000000000
         C           -1.277093966877     0.668487026994     0.617902286152    12.000000000000
         H            1.305437033123    -0.136528973006    -1.309327713848     1.007825032230
         H            1.306842033123     0.396376026994     1.686764286152     1.007825032230
         H            2.114368033123     1.381017026994     0.467909286152     1.007825032230
         H            0.065930033123    -2.215420973006    -0.731952713848     1.007825032230
         H            0.070779033123    -1.730675973006     0.968778286152     1.007825032230
         H           -0.073265966877     2.371385026994     1.160775286152     1.007825032230
         H           -1.289470966877    -0.232747973006    -1.329775713848     1.007825032230
         H           -1.329905966877     0.337613026994     1.665329286152     1.007825032230
         H           -2.177837966877     1.252900026994     0.405926286152     1.007825032230
         H            3.324776033123    -0.731354973006    -0.112194713848     1.007825032230
         H            2.537611033123    -2.090332973006    -0.539285713848     1.007825032230
         H            0.657328033123     2.623581026994    -1.036001713848     1.007825032230
         H           -2.357497966877    -1.708728973006     0.810152286152     1.007825032230

  Basis Set: AUG-CC-PVTZ
    Blend: AUG-CC-PVTZ
  Basis Set: (AUG-CC-PVTZ AUX)
    Blend: AUG-CC-PVTZ-JKFIT
	 Reference Energy          =    -439.0967932503297675 [Eh]
	 Singles Energy            =      -0.0000000000000000 [Eh]
	 Same-Spin Energy          =      -0.4512484056127188 [Eh]
	 Opposite-Spin Energy      =      -1.4735029124391352 [Eh]
	 Correlation Energy        =      -1.9247513180518541 [Eh]
	 Total Energy              =    -441.0215445683816142 [Eh]

	 ================> DF-SCS-MP2 Energies <==================
	-----------------------------------------------------------
	 SCS Same-Spin Scale       =       0.3333333333333333 [-]
	 SCS Opposite-Spin Scale   =       1.2000000000000000 [-]
	 SCS Same-Spin Energy      =      -0.1504161352042396 [Eh]
	 SCS Opposite-Spin Energy  =      -1.7682034949269623 [Eh]
	 SCS Correlation Energy    =      -1.9186196301312020 [Eh]
	 SCS Total Energy          =    -441.0154128804609854 [Eh]
	-----------------------------------------------------------

  Dipole Moment: [D]
     X:     2.5485      Y:     1.1281      Z:     0.7116     Total:     2.8764

*** Psi4 exiting successfully. Buy a developer a beer!
