                               Psi4 1.4a3.dev225

  ==> Input File <==

--------------------------------------------------------------------------
#psi4
#
memory 32 gb

molecule  {
0 1
  O       -0.1447520     2.0657680    -0.9147710
  O       -2.4135200    -1.3721290    -0.1231600
  N        2.4623060    -1.2702550     0.0647480
  C        1.2743520    -0.4775570    -0.2805680
  C        1.2169020     0.7460590     0.6287670
  C        0.0292070    -1.3356180    -0.0781670
  C       -0.0652210     1.5501200     0.4236430
  C       -1.2565570    -0.5478520    -0.3033930
  C       -1.3010200     0.6792110     0.6017970
  H        1.2815110    -0.1258050    -1.3254330
  H        1.2829160     0.4071000     1.6706590
  H        2.0904420     1.3917410     0.4518040
  H        0.0420040    -2.2046970    -0.7480580
  H        0.0468530    -1.7199520     0.9526730
  H       -0.0971920     2.3821090     1.1446700
  H       -1.3133970    -0.2220240    -1.3458810
  H       -1.3538320     0.3483370     1.6492240
  H       -2.2017640     1.2636240     0.3898210
  H        3.3008500    -0.7206310    -0.1283000
  H        2.5136850    -2.0796090    -0.5553910
  H        0.5534649     2.5759011    -1.0379989
  H       -2.3814240    -1.6980050     0.7940470
units angstrom
no_reorient  #important for SAPT in psi4, default
symmetry c1  #important for SAPT in psi4, default
}

set PROPERTIES_ORIGIN ["COM"]
properties('MP2/aug-cc-pvtz', properties = ['dipole'])
--------------------------------------------------------------------------

    Molecular point group: c1
  Charge       = 0
  Multiplicity = 1
  Basis Set: AUG-CC-PVTZ
    Blend: AUG-CC-PVTZ
  Basis Set: (AUG-CC-PVTZ AUX)
    Blend: AUG-CC-PVTZ-JKFIT

    Orbital Energies [Eh]
    ---------------------

    Doubly Occupied:

       1A    -20.551888     2A    -20.551654     3A    -15.546359
       4A    -11.286943     5A    -11.272200     6A    -11.256948
       7A    -11.226464     8A    -11.220114     9A    -11.217965
      10A     -1.387564    11A     -1.350741    12A     -1.192911
      13A     -1.090699    14A     -0.998323    15A     -0.986966
      16A     -0.843896    17A     -0.823951    18A     -0.777366
      19A     -0.706016    20A     -0.681465    21A     -0.655263
      22A     -0.642889    23A     -0.627477    24A     -0.612446
      25A     -0.594661    26A     -0.564667    27A     -0.550000
      28A     -0.531553    29A     -0.528090    30A     -0.502706
      31A     -0.491313    32A     -0.476264    33A     -0.455533
      34A     -0.444874    35A     -0.420956    36A     -0.395924

  @DF-RHF Final Energy:  -439.10471614984010

   => Energetics <=

    Nuclear Repulsion Energy =            507.5768381797860798
    One-Electron Energy =               -1606.4330117378758587
    Two-Electron Energy =                 659.7514574082496210
    Total Energy =                       -439.1047161498401010
  Basis Set: (AUG-CC-PVTZ AUX)
    Blend: AUG-CC-PVTZ-RI
    Molecular point group: c1

    Geometry (in Angstrom), charge = 0, multiplicity = 1:

       Center              X                  Y                   Z               Mass
    ------------   -----------------  -----------------  -----------------  -----------------
         O           -0.115201118491     2.063673925290    -0.900558347428    15.994914619570
         O           -2.383969118491    -1.374223074710    -0.108947347428    15.994914619570
         N            2.491856881509    -1.272349074710     0.078960652572    14.003074004430
         C            1.303902881509    -0.479651074710    -0.266355347428    12.000000000000
         C            1.246452881509     0.743964925290     0.642979652572    12.000000000000
         C            0.058757881509    -1.337712074710    -0.063954347428    12.000000000000
         C           -0.035670118491     1.548025925290     0.437855652572    12.000000000000
         C           -1.227006118491    -0.549946074710    -0.289180347428    12.000000000000
         C           -1.271469118491     0.677116925290     0.616009652572    12.000000000000
         H            1.311061881509    -0.127899074710    -1.311220347428     1.007825032230
         H            1.312466881509     0.405005925290     1.684871652572     1.007825032230
         H            2.119992881509     1.389646925290     0.466016652572     1.007825032230
         H            0.071554881509    -2.206791074710    -0.733845347428     1.007825032230
         H            0.076403881509    -1.722046074710     0.966885652572     1.007825032230
         H           -0.067641118491     2.380014925290     1.158882652572     1.007825032230
         H           -1.283846118491    -0.224118074710    -1.331668347428     1.007825032230
         H           -1.324281118491     0.346242925290     1.663436652572     1.007825032230
         H           -2.172213118491     1.261529925290     0.404033652572     1.007825032230
         H            3.330400881509    -0.722725074710    -0.114087347428     1.007825032230
         H            2.543235881509    -2.081703074710    -0.541178347428     1.007825032230
         H            0.583015781509     2.573807025290    -1.023786247428     1.007825032230
         H           -2.351873118491    -1.700099074710     0.808259652572     1.007825032230

  Basis Set: AUG-CC-PVTZ
    Blend: AUG-CC-PVTZ
  Basis Set: (AUG-CC-PVTZ AUX)
    Blend: AUG-CC-PVTZ-JKFIT
	 Reference Energy          =    -439.1047161498401010 [Eh]
	 Singles Energy            =      -0.0000000000000000 [Eh]
	 Same-Spin Energy          =      -0.4502859312826276 [Eh]
	 Opposite-Spin Energy      =      -1.4701906582612934 [Eh]
	 Correlation Energy        =      -1.9204765895439211 [Eh]
	 Total Energy              =    -441.0251927393840106 [Eh]

	 ================> DF-SCS-MP2 Energies <==================
	-----------------------------------------------------------
	 SCS Same-Spin Scale       =       0.3333333333333333 [-]
	 SCS Opposite-Spin Scale   =       1.2000000000000000 [-]
	 SCS Same-Spin Energy      =      -0.1500953104275425 [Eh]
	 SCS Opposite-Spin Energy  =      -1.7642287899135520 [Eh]
	 SCS Correlation Energy    =      -1.9143241003410945 [Eh]
	 SCS Total Energy          =    -441.0190402501812059 [Eh]
	-----------------------------------------------------------

  Dipole Moment: [D]
     X:     2.4954      Y:     1.0738      Z:     0.7753     Total:     2.8251

*** Psi4 exiting successfully. Buy a developer a beer!
