                               Psi4 1.4a3.dev225

  ==> Input File <==

--------------------------------------------------------------------------
#psi4
#
memory 32 gb

molecule  {
0 1
  O       -0.1447520     2.0657680    -0.9147710
  O       -2.4135200    -1.3721290    -0.1231600
  N        2.4623060    -1.2702550     0.0647480
  C        1.2743520    -0.4775570    -0.2805680
  C        1.1559202     0.6606036     0.6472589
  C        0.0292070    -1.3356180    -0.0781670
  C       -0.0652210     1.5501200     0.4236430
  C       -1.2565570    -0.5478520    -0.3033930
  C       -1.3010200     0.6792110     0.6017970
  H        1.2815110    -0.1258050    -1.3254330
  H        1.2829160     0.4071000     1.6706590
  H        2.0904420     1.3917410     0.4518040
  H        0.0420040    -2.2046970    -0.7480580
  H        0.0468530    -1.7199520     0.9526730
  H       -0.0971920     2.3821090     1.1446700
  H       -1.3133970    -0.2220240    -1.3458810
  H       -1.3538320     0.3483370     1.6492240
  H       -2.2017640     1.2636240     0.3898210
  H        3.3008500    -0.7206310    -0.1283000
  H        2.5136850    -2.0796090    -0.5553910
  H        0.6334020     2.6343050    -1.0521070
  H       -2.3814240    -1.6980050     0.7940470
units angstrom
no_reorient  #important for SAPT in psi4, default
symmetry c1  #important for SAPT in psi4, default
}

set PROPERTIES_ORIGIN ["COM"]
properties('MP2/aug-cc-pvtz', properties = ['dipole'])
--------------------------------------------------------------------------

    Molecular point group: c1
  Charge       = 0
  Multiplicity = 1
  Basis Set: AUG-CC-PVTZ
    Blend: AUG-CC-PVTZ
  Basis Set: (AUG-CC-PVTZ AUX)
    Blend: AUG-CC-PVTZ-JKFIT

    Orbital Energies [Eh]
    ---------------------

    Doubly Occupied:

       1A    -20.564060     2A    -20.551966     3A    -15.546982
       4A    -11.287419     5A    -11.272368     6A    -11.255078
       7A    -11.230344     8A    -11.218674     9A    -11.217344
      10A     -1.363707    11A     -1.350411    12A     -1.196527
      13A     -1.092208    14A     -0.994952    15A     -0.989891
      16A     -0.840450    17A     -0.823482    18A     -0.772397
      19A     -0.697810    20A     -0.683439    21A     -0.657278
      22A     -0.635415    23A     -0.622431    24A     -0.613930
      25A     -0.592809    26A     -0.567817    27A     -0.553703
      28A     -0.530538    29A     -0.521341    30A     -0.503967
      31A     -0.495827    32A     -0.471886    33A     -0.450996
      34A     -0.433749    35A     -0.422274    36A     -0.399494

  @DF-RHF Final Energy:  -439.09705768282970

   => Energetics <=

    Nuclear Repulsion Energy =            508.1196941620697203
    One-Electron Energy =               -1607.5875803400028872
    Two-Electron Energy =                 660.3708284951035239
    Total Energy =                       -439.0970576828296998
  Basis Set: (AUG-CC-PVTZ AUX)
    Blend: AUG-CC-PVTZ-RI
    Molecular point group: c1

    Geometry (in Angstrom), charge = 0, multiplicity = 1:

       Center              X                  Y                   Z               Mass
    ------------   -----------------  -----------------  -----------------  -----------------
         O           -0.110233569506     2.071047254750    -0.902142579412    15.994914619570
         O           -2.379001569506    -1.366849745250    -0.110531579412    15.994914619570
         N            2.496824430494    -1.264975745250     0.077376420588    14.003074004430
         C            1.308870430494    -0.472277745250    -0.267939579412    12.000000000000
         C            1.190438630494     0.665882854750     0.659887320588    12.000000000000
         C            0.063725430494    -1.330338745250    -0.065538579412    12.000000000000
         C           -0.030702569506     1.555399254750     0.436271420588    12.000000000000
         C           -1.222038569506    -0.542572745250    -0.290764579412    12.000000000000
         C           -1.266501569506     0.684490254750     0.614425420588    12.000000000000
         H            1.316029430494    -0.120525745250    -1.312804579412     1.007825032230
         H            1.317434430494     0.412379254750     1.683287420588     1.007825032230
         H            2.124960430494     1.397020254750     0.464432420588     1.007825032230
         H            0.076522430494    -2.199417745250    -0.735429579412     1.007825032230
         H            0.081371430494    -1.714672745250     0.965301420588     1.007825032230
         H           -0.062673569506     2.387388254750     1.157298420588     1.007825032230
         H           -1.278878569506    -0.216744745250    -1.333252579412     1.007825032230
         H           -1.319313569506     0.353616254750     1.661852420588     1.007825032230
         H           -2.167245569506     1.268903254750     0.402449420588     1.007825032230
         H            3.335368430494    -0.715351745250    -0.115671579412     1.007825032230
         H            2.548203430494    -2.074329745250    -0.542762579412     1.007825032230
         H            0.667920430494     2.639584254750    -1.039478579412     1.007825032230
         H           -2.346905569506    -1.692725745250     0.806675420588     1.007825032230

  Basis Set: AUG-CC-PVTZ
    Blend: AUG-CC-PVTZ
  Basis Set: (AUG-CC-PVTZ AUX)
    Blend: AUG-CC-PVTZ-JKFIT
	 Reference Energy          =    -439.0970576828296998 [Eh]
	 Singles Energy            =      -0.0000000000000000 [Eh]
	 Same-Spin Energy          =      -0.4523967656888209 [Eh]
	 Opposite-Spin Energy      =      -1.4745540717705548 [Eh]
	 Correlation Energy        =      -1.9269508374593756 [Eh]
	 Total Energy              =    -441.0240085202891009 [Eh]

	 ================> DF-SCS-MP2 Energies <==================
	-----------------------------------------------------------
	 SCS Same-Spin Scale       =       0.3333333333333333 [-]
	 SCS Opposite-Spin Scale   =       1.2000000000000000 [-]
	 SCS Same-Spin Energy      =      -0.1507989218962736 [Eh]
	 SCS Opposite-Spin Energy  =      -1.7694648861246656 [Eh]
	 SCS Correlation Energy    =      -1.9202638080209391 [Eh]
	 SCS Total Energy          =    -441.0173214908506338 [Eh]
	-----------------------------------------------------------

  Dipole Moment: [D]
     X:     2.4716      Y:     1.0840      Z:     0.7630     Total:     2.8046

*** Psi4 exiting successfully. Buy a developer a beer!
