                               Psi4 1.4a3.dev225

  ==> Input File <==

--------------------------------------------------------------------------
#psi4
#
memory 32 gb

molecule  {
0 1
  O       -0.1447520     2.0657680    -0.9147710
  O       -2.4135200    -1.3721290    -0.1231600
  N        2.4623060    -1.2702550     0.0647480
  C        1.2743520    -0.4775570    -0.2805680
  C        1.2169020     0.7460590     0.6287670
  C        0.0292070    -1.3356180    -0.0781670
  C       -0.0652210     1.5501200     0.4236430
  C       -1.2565570    -0.5478520    -0.3033930
  C       -1.3010200     0.6792110     0.6017970
  H        1.2815110    -0.1258050    -1.3254330
  H        1.2829160     0.4071000     1.6706590
  H        2.0904420     1.3917410     0.4518040
  H        0.0420040    -2.2046970    -0.7480580
  H        0.0468530    -1.7199520     0.9526730
  H       -0.0971920     2.3821090     1.1446700
  H       -1.3133970    -0.2220240    -1.3458810
  H       -1.3538320     0.3483370     1.6492240
  H       -2.1606133     1.2369250     0.3995052
  H        3.3008500    -0.7206310    -0.1283000
  H        2.5136850    -2.0796090    -0.5553910
  H        0.6334020     2.6343050    -1.0521070
  H       -2.3814240    -1.6980050     0.7940470
units angstrom
no_reorient  #important for SAPT in psi4, default
symmetry c1  #important for SAPT in psi4, default
}

set PROPERTIES_ORIGIN ["COM"]
properties('MP2/aug-cc-pvtz', properties = ['dipole'])
--------------------------------------------------------------------------

    Molecular point group: c1
  Charge       = 0
  Multiplicity = 1
  Basis Set: AUG-CC-PVTZ
    Blend: AUG-CC-PVTZ
  Basis Set: (AUG-CC-PVTZ AUX)
    Blend: AUG-CC-PVTZ-JKFIT

    Orbital Energies [Eh]
    ---------------------

    Doubly Occupied:

       1A    -20.561904     2A    -20.551640     3A    -15.545854
       4A    -11.285566     5A    -11.271545     6A    -11.256237
       7A    -11.225465     8A    -11.217277     9A    -11.213916
      10A     -1.362695    11A     -1.350094    12A     -1.192100
      13A     -1.087889    14A     -0.995755    15A     -0.988279
      16A     -0.840222    17A     -0.825286    18A     -0.769715
      19A     -0.696461    20A     -0.678948    21A     -0.654652
      22A     -0.644342    23A     -0.625606    24A     -0.611534
      25A     -0.592836    26A     -0.563520    27A     -0.549648
      28A     -0.533203    29A     -0.526559    30A     -0.499916
      31A     -0.490774    32A     -0.476105    33A     -0.453932
      34A     -0.444228    35A     -0.420354    36A     -0.395252

  @DF-RHF Final Energy:  -439.10861806662200

   => Energetics <=

    Nuclear Repulsion Energy =            507.1624101019779687
    One-Electron Energy =               -1605.7434377390291047
    Two-Electron Energy =                 659.4724095704292495
    Total Energy =                       -439.1086180666219434
  Basis Set: (AUG-CC-PVTZ AUX)
    Blend: AUG-CC-PVTZ-RI
    Molecular point group: c1

    Geometry (in Angstrom), charge = 0, multiplicity = 1:

       Center              X                  Y                   Z               Mass
    ------------   -----------------  -----------------  -----------------  -----------------
         O           -0.116132013351     2.063430185388    -0.900524337513    15.994914619570
         O           -2.384900013351    -1.374466814612    -0.108913337513    15.994914619570
         N            2.490925986649    -1.272592814612     0.078994662487    14.003074004430
         C            1.302971986649    -0.479894814612    -0.266321337513    12.000000000000
         C            1.245521986649     0.743721185388     0.643013662487    12.000000000000
         C            0.057826986649    -1.337955814612    -0.063920337513    12.000000000000
         C           -0.036601013351     1.547782185388     0.437889662487    12.000000000000
         C           -1.227937013351    -0.550189814612    -0.289146337513    12.000000000000
         C           -1.272400013351     0.676873185388     0.616043662487    12.000000000000
         H            1.310130986649    -0.128142814612    -1.311186337513     1.007825032230
         H            1.311535986649     0.404762185388     1.684905662487     1.007825032230
         H            2.119061986649     1.389403185388     0.466050662487     1.007825032230
         H            0.070623986649    -2.207034814612    -0.733811337513     1.007825032230
         H            0.075472986649    -1.722289814612     0.966919662487     1.007825032230
         H           -0.068572013351     2.379771185388     1.158916662487     1.007825032230
         H           -1.284777013351    -0.224361814612    -1.331634337513     1.007825032230
         H           -1.325212013351     0.345999185388     1.663470662487     1.007825032230
         H           -2.131993313351     1.234587185388     0.413751862487     1.007825032230
         H            3.329469986649    -0.722968814612    -0.114053337513     1.007825032230
         H            2.542304986649    -2.081946814612    -0.541144337513     1.007825032230
         H            0.662021986649     2.631967185388    -1.037860337513     1.007825032230
         H           -2.352804013351    -1.700342814612     0.808293662487     1.007825032230

  Basis Set: AUG-CC-PVTZ
    Blend: AUG-CC-PVTZ
  Basis Set: (AUG-CC-PVTZ AUX)
    Blend: AUG-CC-PVTZ-JKFIT
	 Reference Energy          =    -439.1086180666220002 [Eh]
	 Singles Energy            =      -0.0000000000000000 [Eh]
	 Same-Spin Energy          =      -0.4514732372528552 [Eh]
	 Opposite-Spin Energy      =      -1.4729401066726986 [Eh]
	 Correlation Energy        =      -1.9244133439255537 [Eh]
	 Total Energy              =    -441.0330314105475509 [Eh]

	 ================> DF-SCS-MP2 Energies <==================
	-----------------------------------------------------------
	 SCS Same-Spin Scale       =       0.3333333333333333 [-]
	 SCS Opposite-Spin Scale   =       1.2000000000000000 [-]
	 SCS Same-Spin Energy      =      -0.1504910790842851 [Eh]
	 SCS Opposite-Spin Energy  =      -1.7675281280072384 [Eh]
	 SCS Correlation Energy    =      -1.9180192070915234 [Eh]
	 SCS Total Energy          =    -441.0266372737135043 [Eh]
	-----------------------------------------------------------

  Dipole Moment: [D]
     X:     2.5140      Y:     1.1411      Z:     0.7488     Total:     2.8606

*** Psi4 exiting successfully. Buy a developer a beer!
