                               Psi4 1.4a3.dev225

  ==> Input File <==

--------------------------------------------------------------------------
#psi4
#
memory 32 gb

molecule  {
0 1
  O       -0.1447520     2.0657680    -0.9147710
  O       -2.4135200    -1.3721290    -0.1231600
  N        2.4623060    -1.2702550     0.0647480
  C        1.2743520    -0.4775570    -0.2805680
  C        1.2169020     0.7460590     0.6287670
  C        0.0292070    -1.3356180    -0.0781670
  C       -0.0198651     1.5677044     0.2713662
  C       -1.2565570    -0.5478520    -0.3033930
  C       -1.3010200     0.6792110     0.6017970
  H        1.2815110    -0.1258050    -1.3254330
  H        1.2829160     0.4071000     1.6706590
  H        2.0904420     1.3917410     0.4518040
  H        0.0420040    -2.2046970    -0.7480580
  H        0.0468530    -1.7199520     0.9526730
  H       -0.0971920     2.3821090     1.1446700
  H       -1.3133970    -0.2220240    -1.3458810
  H       -1.3538320     0.3483370     1.6492240
  H       -2.2017640     1.2636240     0.3898210
  H        3.3008500    -0.7206310    -0.1283000
  H        2.5136850    -2.0796090    -0.5553910
  H        0.6334020     2.6343050    -1.0521070
  H       -2.3814240    -1.6980050     0.7940470
units angstrom
no_reorient  #important for SAPT in psi4, default
symmetry c1  #important for SAPT in psi4, default
}

set PROPERTIES_ORIGIN ["COM"]
properties('MP2/aug-cc-pvtz', properties = ['dipole'])
--------------------------------------------------------------------------

    Molecular point group: c1
  Charge       = 0
  Multiplicity = 1
  Basis Set: AUG-CC-PVTZ
    Blend: AUG-CC-PVTZ
  Basis Set: (AUG-CC-PVTZ AUX)
    Blend: AUG-CC-PVTZ-JKFIT

    Orbital Energies [Eh]
    ---------------------

    Doubly Occupied:

       1A    -20.581459     2A    -20.548788     3A    -15.545231
       4A    -11.291155     5A    -11.268953     6A    -11.255192
       7A    -11.223600     8A    -11.217652     9A    -11.216593
      10A     -1.432839    11A     -1.348064    12A     -1.191708
      13A     -1.080606    14A     -0.992534    15A     -0.977760
      16A     -0.839465    17A     -0.819661    18A     -0.784951
      19A     -0.708343    20A     -0.686804    21A     -0.656911
      22A     -0.641200    23A     -0.639552    24A     -0.616654
      25A     -0.597861    26A     -0.570342    27A     -0.555218
      28A     -0.538168    29A     -0.528980    30A     -0.497244
      31A     -0.488406    32A     -0.475228    33A     -0.438305
      34A     -0.432870    35A     -0.405280    36A     -0.387333

  @DF-RHF Final Energy:  -439.08393497749921

   => Energetics <=

    Nuclear Repulsion Energy =            508.2862756195011684
    One-Electron Energy =               -1607.7786027338254371
    Two-Electron Energy =                 660.4083921368251140
    Total Energy =                       -439.0839349774992115
  Basis Set: (AUG-CC-PVTZ AUX)
    Blend: AUG-CC-PVTZ-RI
    Molecular point group: c1

    Geometry (in Angstrom), charge = 0, multiplicity = 1:

       Center              X                  Y                   Z               Mass
    ------------   -----------------  -----------------  -----------------  -----------------
         O           -0.119967396231     2.061615307670    -0.886510936675    15.994914619570
         O           -2.388735396231    -1.376281692330    -0.094899936675    15.994914619570
         N            2.487090603769    -1.274407692330     0.093008063325    14.003074004430
         C            1.299136603769    -0.481709692330    -0.252307936675    12.000000000000
         C            1.241686603769     0.741906307670     0.657027063325    12.000000000000
         C            0.053991603769    -1.339770692330    -0.049906936675    12.000000000000
         C            0.004919503769     1.563551707670     0.299626263325    12.000000000000
         C           -1.231772396231    -0.552004692330    -0.275132936675    12.000000000000
         C           -1.276235396231     0.675058307670     0.630057063325    12.000000000000
         H            1.306295603769    -0.129957692330    -1.297172936675     1.007825032230
         H            1.307700603769     0.402947307670     1.698919063325     1.007825032230
         H            2.115226603769     1.387588307670     0.480064063325     1.007825032230
         H            0.066788603769    -2.208849692330    -0.719797936675     1.007825032230
         H            0.071637603769    -1.724104692330     0.980933063325     1.007825032230
         H           -0.072407396231     2.377956307670     1.172930063325     1.007825032230
         H           -1.288612396231    -0.226176692330    -1.317620936675     1.007825032230
         H           -1.329047396231     0.344184307670     1.677484063325     1.007825032230
         H           -2.176979396231     1.259471307670     0.418081063325     1.007825032230
         H            3.325634603769    -0.724783692330    -0.100039936675     1.007825032230
         H            2.538469603769    -2.083761692330    -0.527130936675     1.007825032230
         H            0.658186603769     2.630152307670    -1.023846936675     1.007825032230
         H           -2.356639396231    -1.702157692330     0.822307063325     1.007825032230

  Basis Set: AUG-CC-PVTZ
    Blend: AUG-CC-PVTZ
  Basis Set: (AUG-CC-PVTZ AUX)
    Blend: AUG-CC-PVTZ-JKFIT
	 Reference Energy          =    -439.0839349774992115 [Eh]
	 Singles Energy            =      -0.0000000000000000 [Eh]
	 Same-Spin Energy          =      -0.4521470182645009 [Eh]
	 Opposite-Spin Energy      =      -1.4729063904260313 [Eh]
	 Correlation Energy        =      -1.9250534086905322 [Eh]
	 Total Energy              =    -441.0089883861897420 [Eh]

	 ================> DF-SCS-MP2 Energies <==================
	-----------------------------------------------------------
	 SCS Same-Spin Scale       =       0.3333333333333333 [-]
	 SCS Opposite-Spin Scale   =       1.2000000000000000 [-]
	 SCS Same-Spin Energy      =      -0.1507156727548336 [Eh]
	 SCS Opposite-Spin Energy  =      -1.7674876685112375 [Eh]
	 SCS Correlation Energy    =      -1.9182033412660711 [Eh]
	 SCS Total Energy          =    -441.0021383187652759 [Eh]
	-----------------------------------------------------------

  Dipole Moment: [D]
     X:     2.6075      Y:     1.3058      Z:     0.2043     Total:     2.9233

*** Psi4 exiting successfully. Buy a developer a beer!
