                               Psi4 1.4a3.dev225

  ==> Input File <==

--------------------------------------------------------------------------
#psi4
#
memory 32 gb

molecule  {
0 1
  O       -0.1447520     2.0657680    -0.9147710
  O       -2.4135200    -1.3721290    -0.1231600
  N        2.4623060    -1.2702550     0.0647480
  C        1.2743520    -0.4775570    -0.2805680
  C        1.2169020     0.7460590     0.6287670
  C        0.0292070    -1.3356180    -0.0781670
  C       -0.0652210     1.5501200     0.4236430
  C       -1.2218573    -0.5790392    -0.1609543
  C       -1.3010200     0.6792110     0.6017970
  H        1.2815110    -0.1258050    -1.3254330
  H        1.2829160     0.4071000     1.6706590
  H        2.0904420     1.3917410     0.4518040
  H        0.0420040    -2.2046970    -0.7480580
  H        0.0468530    -1.7199520     0.9526730
  H       -0.0971920     2.3821090     1.1446700
  H       -1.3133970    -0.2220240    -1.3458810
  H       -1.3538320     0.3483370     1.6492240
  H       -2.2017640     1.2636240     0.3898210
  H        3.3008500    -0.7206310    -0.1283000
  H        2.5136850    -2.0796090    -0.5553910
  H        0.6334020     2.6343050    -1.0521070
  H       -2.3814240    -1.6980050     0.7940470
units angstrom
no_reorient  #important for SAPT in psi4, default
symmetry c1  #important for SAPT in psi4, default
}

set PROPERTIES_ORIGIN ["COM"]
properties('MP2/aug-cc-pvtz', properties = ['dipole'])
--------------------------------------------------------------------------

    Molecular point group: c1
  Charge       = 0
  Multiplicity = 1
  Basis Set: AUG-CC-PVTZ
    Blend: AUG-CC-PVTZ
  Basis Set: (AUG-CC-PVTZ AUX)
    Blend: AUG-CC-PVTZ-JKFIT

    Orbital Energies [Eh]
    ---------------------

    Doubly Occupied:

       1A    -20.561341     2A    -20.558369     3A    -15.547451
       4A    -11.288321     5A    -11.277864     6A    -11.259031
       7A    -11.227464     8A    -11.221430     9A    -11.218663
      10A     -1.363178    11A     -1.356948    12A     -1.194684
      13A     -1.097177    14A     -1.004080    15A     -0.992370
      16A     -0.841450    17A     -0.823144    18A     -0.763131
      19A     -0.697115    20A     -0.680909    21A     -0.658758
      22A     -0.646410    23A     -0.631791    24A     -0.603832
      25A     -0.590750    26A     -0.563079    27A     -0.558084
      28A     -0.543685    29A     -0.527090    30A     -0.499210
      31A     -0.493713    32A     -0.460554    33A     -0.457251
      34A     -0.440135    35A     -0.411975    36A     -0.397566

  @DF-RHF Final Energy:  -439.08224850210252

   => Energetics <=

    Nuclear Repulsion Energy =            508.0134542387552301
    One-Electron Energy =               -1607.2754004016489944
    Two-Electron Energy =                 660.1796976607912484
    Total Energy =                       -439.0822485021025159
  Basis Set: (AUG-CC-PVTZ AUX)
    Blend: AUG-CC-PVTZ-RI
    Molecular point group: c1

    Geometry (in Angstrom), charge = 0, multiplicity = 1:

       Center              X                  Y                   Z               Mass
    ------------   -----------------  -----------------  -----------------  -----------------
         O           -0.118991960385     2.066079710262    -0.913488289112    15.994914619570
         O           -2.387759960385    -1.371817289738    -0.121877289112    15.994914619570
         N            2.488066039615    -1.269943289738     0.066030710888    14.003074004430
         C            1.300112039615    -0.477245289738    -0.279285289112    12.000000000000
         C            1.242662039615     0.746370710262     0.630049710888    12.000000000000
         C            0.054967039615    -1.335306289738    -0.076884289112    12.000000000000
         C           -0.039460960385     1.550431710262     0.424925710888    12.000000000000
         C           -1.196097260385    -0.578727489738    -0.159671589112    12.000000000000
         C           -1.275259960385     0.679522710262     0.603079710888    12.000000000000
         H            1.307271039615    -0.125493289738    -1.324150289112     1.007825032230
         H            1.308676039615     0.407411710262     1.671941710888     1.007825032230
         H            2.116202039615     1.392052710262     0.453086710888     1.007825032230
         H            0.067764039615    -2.204385289738    -0.746775289112     1.007825032230
         H            0.072613039615    -1.719640289738     0.953955710888     1.007825032230
         H           -0.071431960385     2.382420710262     1.145952710888     1.007825032230
         H           -1.287636960385    -0.221712289738    -1.344598289112     1.007825032230
         H           -1.328071960385     0.348648710262     1.650506710888     1.007825032230
         H           -2.176003960385     1.263935710262     0.391103710888     1.007825032230
         H            3.326610039615    -0.720319289738    -0.127017289112     1.007825032230
         H            2.539445039615    -2.079297289738    -0.554108289112     1.007825032230
         H            0.659162039615     2.634616710262    -1.050824289112     1.007825032230
         H           -2.355663960385    -1.697693289738     0.795329710888     1.007825032230

  Basis Set: AUG-CC-PVTZ
    Blend: AUG-CC-PVTZ
  Basis Set: (AUG-CC-PVTZ AUX)
    Blend: AUG-CC-PVTZ-JKFIT
	 Reference Energy          =    -439.0822485021025159 [Eh]
	 Singles Energy            =      -0.0000000000000000 [Eh]
	 Same-Spin Energy          =      -0.4534415367794303 [Eh]
	 Opposite-Spin Energy      =      -1.4766740254992989 [Eh]
	 Correlation Energy        =      -1.9301155622787292 [Eh]
	 Total Energy              =    -441.0123640643812450 [Eh]

	 ================> DF-SCS-MP2 Energies <==================
	-----------------------------------------------------------
	 SCS Same-Spin Scale       =       0.3333333333333333 [-]
	 SCS Opposite-Spin Scale   =       1.2000000000000000 [-]
	 SCS Same-Spin Energy      =      -0.1511471789264767 [Eh]
	 SCS Opposite-Spin Energy  =      -1.7720088305991586 [Eh]
	 SCS Correlation Energy    =      -1.9231560095256353 [Eh]
	 SCS Total Energy          =    -441.0054045116281713 [Eh]
	-----------------------------------------------------------

  Dipole Moment: [D]
     X:     2.6099      Y:     1.0979      Z:     0.8943     Total:     2.9693

*** Psi4 exiting successfully. Buy a developer a beer!
