                               Psi4 1.4a3.dev225

  ==> Input File <==

--------------------------------------------------------------------------
#psi4
#
memory 32 gb

molecule  {
0 1
  O       -0.1447520     2.0657680    -0.9147710
  O       -2.4135200    -1.3721290    -0.1231600
  N        2.4623060    -1.2702550     0.0647480
  C        1.2743520    -0.4775570    -0.2805680
  C        1.2169020     0.7460590     0.6287670
  C        0.0292070    -1.3356180    -0.0781670
  C       -0.0652210     1.5501200     0.4236430
  C       -1.2565570    -0.5478520    -0.3033930
  C       -1.3010200     0.6792110     0.6017970
  H        1.2815110    -0.1258050    -1.3254330
  H        1.2829160     0.4071000     1.6706590
  H        2.0904420     1.3917410     0.4518040
  H        0.0420040    -2.2046970    -0.7480580
  H        0.0468530    -1.7199520     0.9526730
  H       -0.0971920     2.3821090     1.1446700
  H       -1.3133970    -0.2220240    -1.3458810
  H       -1.3547925     0.3423195     1.6682731
  H       -2.2017640     1.2636240     0.3898210
  H        3.3008500    -0.7206310    -0.1283000
  H        2.5136850    -2.0796090    -0.5553910
  H        0.6334020     2.6343050    -1.0521070
  H       -2.3814240    -1.6980050     0.7940470
units angstrom
no_reorient  #important for SAPT in psi4, default
symmetry c1  #important for SAPT in psi4, default
}

set PROPERTIES_ORIGIN ["COM"]
properties('MP2/aug-cc-pvtz', properties = ['dipole'])
--------------------------------------------------------------------------

    Molecular point group: c1
  Charge       = 0
  Multiplicity = 1
  Basis Set: AUG-CC-PVTZ
    Blend: AUG-CC-PVTZ
  Basis Set: (AUG-CC-PVTZ AUX)
    Blend: AUG-CC-PVTZ-JKFIT

    Orbital Energies [Eh]
    ---------------------

    Doubly Occupied:

       1A    -20.562084     2A    -20.551635     3A    -15.546076
       4A    -11.286140     5A    -11.272179     6A    -11.256514
       7A    -11.225828     8A    -11.222389     9A    -11.217680
      10A     -1.362859    11A     -1.350109    12A     -1.192346
      13A     -1.087059    14A     -0.996129    15A     -0.985328
      16A     -0.840514    17A     -0.822599    18A     -0.768747
      19A     -0.695903    20A     -0.678059    21A     -0.654753
      22A     -0.641691    23A     -0.625907    24A     -0.611324
      25A     -0.591743    26A     -0.563512    27A     -0.548743
      28A     -0.529990    29A     -0.525382    30A     -0.499547
      31A     -0.490411    32A     -0.475566    33A     -0.453788
      34A     -0.444107    35A     -0.420511    36A     -0.395456

  @DF-RHF Final Energy:  -439.10896773425912

   => Energetics <=

    Nuclear Repulsion Energy =            506.7836009235277857
    One-Electron Energy =               -1604.9999162912918109
    Two-Electron Energy =                 659.1073476335049008
    Total Energy =                       -439.1089677342591813
  Basis Set: (AUG-CC-PVTZ AUX)
    Blend: AUG-CC-PVTZ-RI
    Molecular point group: c1

    Geometry (in Angstrom), charge = 0, multiplicity = 1:

       Center              X                  Y                   Z               Mass
    ------------   -----------------  -----------------  -----------------  -----------------
         O           -0.115808272234     2.063271190824    -0.900596332687    15.994914619570
         O           -2.384576272234    -1.374625809176    -0.108985332687    15.994914619570
         N            2.491249727766    -1.272751809176     0.078922667313    14.003074004430
         C            1.303295727766    -0.480053809176    -0.266393332687    12.000000000000
         C            1.245845727766     0.743562190824     0.642941667313    12.000000000000
         C            0.058150727766    -1.338114809176    -0.063992332687    12.000000000000
         C           -0.036277272234     1.547623190824     0.437817667313    12.000000000000
         C           -1.227613272234    -0.550348809176    -0.289218332687    12.000000000000
         C           -1.272076272234     0.676714190824     0.615971667313    12.000000000000
         H            1.310454727766    -0.128301809176    -1.311258332687     1.007825032230
         H            1.311859727766     0.404603190824     1.684833667313     1.007825032230
         H            2.119385727766     1.389244190824     0.465978667313     1.007825032230
         H            0.070947727766    -2.207193809176    -0.733883332687     1.007825032230
         H            0.075796727766    -1.722448809176     0.966847667313     1.007825032230
         H           -0.068248272234     2.379612190824     1.158844667313     1.007825032230
         H           -1.284453272234    -0.224520809176    -1.331706332687     1.007825032230
         H           -1.325848772234     0.339822690824     1.682447767313     1.007825032230
         H           -2.172820272234     1.261127190824     0.403995667313     1.007825032230
         H            3.329793727766    -0.723127809176    -0.114125332687     1.007825032230
         H            2.542628727766    -2.082105809176    -0.541216332687     1.007825032230
         H            0.662345727766     2.631808190824    -1.037932332687     1.007825032230
         H           -2.352480272234    -1.700501809176     0.808221667313     1.007825032230

  Basis Set: AUG-CC-PVTZ
    Blend: AUG-CC-PVTZ
  Basis Set: (AUG-CC-PVTZ AUX)
    Blend: AUG-CC-PVTZ-JKFIT
	 Reference Energy          =    -439.1089677342591244 [Eh]
	 Singles Energy            =      -0.0000000000000000 [Eh]
	 Same-Spin Energy          =      -0.4515227734573288 [Eh]
	 Opposite-Spin Energy      =      -1.4734014478185866 [Eh]
	 Correlation Energy        =      -1.9249242212759154 [Eh]
	 Total Energy              =    -441.0338919555350117 [Eh]

	 ================> DF-SCS-MP2 Energies <==================
	-----------------------------------------------------------
	 SCS Same-Spin Scale       =       0.3333333333333333 [-]
	 SCS Opposite-Spin Scale   =       1.2000000000000000 [-]
	 SCS Same-Spin Energy      =      -0.1505075911524429 [Eh]
	 SCS Opposite-Spin Energy  =      -1.7680817373823039 [Eh]
	 SCS Correlation Energy    =      -1.9185893285347468 [Eh]
	 SCS Total Energy          =    -441.0275570627938464 [Eh]
	-----------------------------------------------------------

  Dipole Moment: [D]
     X:     2.5400      Y:     1.1312      Z:     0.7328     Total:     2.8754

*** Psi4 exiting successfully. Buy a developer a beer!
