                               Psi4 1.4a3.dev225

  ==> Input File <==

--------------------------------------------------------------------------
#psi4
#
memory 32 gb

molecule  {
0 1
  O       -0.1447520     2.0657680    -0.9147710
  O       -2.4135200    -1.3721290    -0.1231600
  N        2.4623060    -1.2702550     0.0647480
  C        1.2743520    -0.4775570    -0.2805680
  C        1.2169020     0.7460590     0.6287670
  C        0.0292070    -1.3356180    -0.0781670
  C       -0.0652210     1.5501200     0.4236430
  C       -1.2565570    -0.5478520    -0.3033930
  C       -1.3016029     0.6952988     0.6136648
  H        1.2815110    -0.1258050    -1.3254330
  H        1.2829160     0.4071000     1.6706590
  H        2.0904420     1.3917410     0.4518040
  H        0.0420040    -2.2046970    -0.7480580
  H        0.0468530    -1.7199520     0.9526730
  H       -0.0971920     2.3821090     1.1446700
  H       -1.3133970    -0.2220240    -1.3458810
  H       -1.3538320     0.3483370     1.6492240
  H       -2.2017640     1.2636240     0.3898210
  H        3.3008500    -0.7206310    -0.1283000
  H        2.5136850    -2.0796090    -0.5553910
  H        0.6334020     2.6343050    -1.0521070
  H       -2.3814240    -1.6980050     0.7940470
units angstrom
no_reorient  #important for SAPT in psi4, default
symmetry c1  #important for SAPT in psi4, default
}

set PROPERTIES_ORIGIN ["COM"]
properties('MP2/aug-cc-pvtz', properties = ['dipole'])
--------------------------------------------------------------------------

    Molecular point group: c1
  Charge       = 0
  Multiplicity = 1
  Basis Set: AUG-CC-PVTZ
    Blend: AUG-CC-PVTZ
  Basis Set: (AUG-CC-PVTZ AUX)
    Blend: AUG-CC-PVTZ-JKFIT

    Orbital Energies [Eh]
    ---------------------

    Doubly Occupied:

       1A    -20.561916     2A    -20.551746     3A    -15.546020
       4A    -11.285366     5A    -11.272712     6A    -11.256429
       7A    -11.225939     8A    -11.219301     9A    -11.217629
      10A     -1.362649    11A     -1.349803    12A     -1.192254
      13A     -1.086551    14A     -0.995937    15A     -0.985613
      16A     -0.839416    17A     -0.823657    18A     -0.769717
      19A     -0.695893    20A     -0.677842    21A     -0.654656
      22A     -0.641904    23A     -0.625025    24A     -0.611310
      25A     -0.591740    26A     -0.563543    27A     -0.548382
      28A     -0.531346    29A     -0.527671    30A     -0.500205
      31A     -0.490774    32A     -0.476317    33A     -0.454622
      34A     -0.444356    35A     -0.417351    36A     -0.395192

  @DF-RHF Final Energy:  -439.10924452773929

   => Energetics <=

    Nuclear Repulsion Energy =            506.6483385588892361
    One-Electron Energy =               -1604.7335978121539029
    Two-Electron Energy =                 658.9760147255253742
    Total Energy =                       -439.1092445277392926
  Basis Set: (AUG-CC-PVTZ AUX)
    Blend: AUG-CC-PVTZ-RI
    Molecular point group: c1

    Geometry (in Angstrom), charge = 0, multiplicity = 1:

       Center              X                  Y                   Z               Mass
    ------------   -----------------  -----------------  -----------------  -----------------
         O           -0.115762299458     2.061752301841    -0.901536229626    15.994914619570
         O           -2.384530299458    -1.376144698159    -0.109925229626    15.994914619570
         N            2.491295700542    -1.274270698159     0.077982770374    14.003074004430
         C            1.303341700542    -0.481572698159    -0.267333229626    12.000000000000
         C            1.245891700542     0.742043301841     0.642001770374    12.000000000000
         C            0.058196700542    -1.339633698159    -0.064932229626    12.000000000000
         C           -0.036231299458     1.546104301841     0.436877770374    12.000000000000
         C           -1.227567299458    -0.551867698159    -0.290158229626    12.000000000000
         C           -1.272613199458     0.691283101841     0.626899570374    12.000000000000
         H            1.310500700542    -0.129820698159    -1.312198229626     1.007825032230
         H            1.311905700542     0.403084301841     1.683893770374     1.007825032230
         H            2.119431700542     1.387725301841     0.465038770374     1.007825032230
         H            0.070993700542    -2.208712698159    -0.734823229626     1.007825032230
         H            0.075842700542    -1.723967698159     0.965907770374     1.007825032230
         H           -0.068202299458     2.378093301841     1.157904770374     1.007825032230
         H           -1.284407299458    -0.226039698159    -1.332646229626     1.007825032230
         H           -1.324842299458     0.344321301841     1.662458770374     1.007825032230
         H           -2.172774299458     1.259608301841     0.403055770374     1.007825032230
         H            3.329839700542    -0.724646698159    -0.115065229626     1.007825032230
         H            2.542674700542    -2.083624698159    -0.542156229626     1.007825032230
         H            0.662391700542     2.630289301841    -1.038872229626     1.007825032230
         H           -2.352434299458    -1.702020698159     0.807281770374     1.007825032230

  Basis Set: AUG-CC-PVTZ
    Blend: AUG-CC-PVTZ
  Basis Set: (AUG-CC-PVTZ AUX)
    Blend: AUG-CC-PVTZ-JKFIT
	 Reference Energy          =    -439.1092445277392926 [Eh]
	 Singles Energy            =      -0.0000000000000000 [Eh]
	 Same-Spin Energy          =      -0.4514363111298721 [Eh]
	 Opposite-Spin Energy      =      -1.4732235948304637 [Eh]
	 Correlation Energy        =      -1.9246599059603358 [Eh]
	 Total Energy              =    -441.0339044336996039 [Eh]

	 ================> DF-SCS-MP2 Energies <==================
	-----------------------------------------------------------
	 SCS Same-Spin Scale       =       0.3333333333333333 [-]
	 SCS Opposite-Spin Scale   =       1.2000000000000000 [-]
	 SCS Same-Spin Energy      =      -0.1504787703766240 [Eh]
	 SCS Opposite-Spin Energy  =      -1.7678683137965565 [Eh]
	 SCS Correlation Energy    =      -1.9183470841731805 [Eh]
	 SCS Total Energy          =    -441.0275916119124986 [Eh]
	-----------------------------------------------------------

  Dipole Moment: [D]
     X:     2.5294      Y:     1.1159      Z:     0.7447     Total:     2.8632

*** Psi4 exiting successfully. Buy a developer a beer!
