                               Psi4 1.4a3.dev225

  ==> Input File <==

--------------------------------------------------------------------------
#psi4
#
memory 32 gb

molecule  {
0 1
  O       -0.1447520     2.0657680    -0.9147710
  O       -2.4135200    -1.3721290    -0.1231600
  N        2.4623060    -1.2702550     0.0647480
  C        1.2743520    -0.4775570    -0.2805680
  C        1.2169020     0.7460590     0.6287670
  C        0.0292070    -1.3356180    -0.0781670
  C       -0.0652210     1.5501200     0.4236430
  C       -1.2565570    -0.5478520    -0.3033930
  C       -1.3010200     0.6792110     0.6017970
  H        1.2815110    -0.1258050    -1.3254330
  H        1.2829160     0.4071000     1.6706590
  H        2.0904420     1.3917410     0.4518040
  H        0.0420040    -2.2046970    -0.7480580
  H        0.0468530    -1.7199520     0.9526730
  H       -0.0971920     2.3821090     1.1446700
  H       -1.3133970    -0.2220240    -1.3458810
  H       -1.3538320     0.3483370     1.6492240
  H       -2.2429147     1.2903230     0.3801368
  H        3.3008500    -0.7206310    -0.1283000
  H        2.5136850    -2.0796090    -0.5553910
  H        0.6334020     2.6343050    -1.0521070
  H       -2.3814240    -1.6980050     0.7940470
units angstrom
no_reorient  #important for SAPT in psi4, default
symmetry c1  #important for SAPT in psi4, default
}

set PROPERTIES_ORIGIN ["COM"]
properties('MP2/aug-cc-pvtz', properties = ['dipole'])
--------------------------------------------------------------------------

    Molecular point group: c1
  Charge       = 0
  Multiplicity = 1
  Basis Set: AUG-CC-PVTZ
    Blend: AUG-CC-PVTZ
  Basis Set: (AUG-CC-PVTZ AUX)
    Blend: AUG-CC-PVTZ-JKFIT

    Orbital Energies [Eh]
    ---------------------

    Doubly Occupied:

       1A    -20.561870     2A    -20.551657     3A    -15.546288
       4A    -11.286342     5A    -11.272373     6A    -11.256771
       7A    -11.226222     8A    -11.225640     9A    -11.218105
      10A     -1.362644    11A     -1.350122    12A     -1.192596
      13A     -1.087046    14A     -0.996434    15A     -0.984083
      16A     -0.840587    17A     -0.821491    18A     -0.769506
      19A     -0.695759    20A     -0.677323    21A     -0.654900
      22A     -0.639159    23A     -0.626090    24A     -0.611857
      25A     -0.591253    26A     -0.563552    27A     -0.548035
      28A     -0.527857    29A     -0.526383    30A     -0.499826
      31A     -0.489822    32A     -0.475438    33A     -0.453238
      34A     -0.443951    35A     -0.420333    36A     -0.395623

  @DF-RHF Final Energy:  -439.10728707215105

   => Energetics <=

    Nuclear Repulsion Energy =            506.6215138747183460
    One-Electron Energy =               -1604.6772474399001567
    Two-Electron Energy =                 658.9484464930307013
    Total Energy =                       -439.1072870721510526
  Basis Set: (AUG-CC-PVTZ AUX)
    Blend: AUG-CC-PVTZ-RI
    Molecular point group: c1

    Geometry (in Angstrom), charge = 0, multiplicity = 1:

       Center              X                  Y                   Z               Mass
    ------------   -----------------  -----------------  -----------------  -----------------
         O           -0.115499299319     2.063019673976    -0.900375437756    15.994914619570
         O           -2.384267299319    -1.374877326024    -0.108764437756    15.994914619570
         N            2.491558700681    -1.273003326024     0.079143562244    14.003074004430
         C            1.303604700681    -0.480305326024    -0.266172437756    12.000000000000
         C            1.246154700681     0.743310673976     0.643162562244    12.000000000000
         C            0.058459700681    -1.338366326024    -0.063771437756    12.000000000000
         C           -0.035968299319     1.547371673976     0.438038562244    12.000000000000
         C           -1.227304299319    -0.550600326024    -0.288997437756    12.000000000000
         C           -1.271767299319     0.676462673976     0.616192562244    12.000000000000
         H            1.310763700681    -0.128553326024    -1.311037437756     1.007825032230
         H            1.312168700681     0.404351673976     1.685054562244     1.007825032230
         H            2.119694700681     1.388992673976     0.466199562244     1.007825032230
         H            0.071256700681    -2.207445326024    -0.733662437756     1.007825032230
         H            0.076105700681    -1.722700326024     0.967068562244     1.007825032230
         H           -0.067939299319     2.379360673976     1.159065562244     1.007825032230
         H           -1.284144299319    -0.224772326024    -1.331485437756     1.007825032230
         H           -1.324579299319     0.345588673976     1.663619562244     1.007825032230
         H           -2.213661999319     1.287574673976     0.394532362244     1.007825032230
         H            3.330102700681    -0.723379326024    -0.113904437756     1.007825032230
         H            2.542937700681    -2.082357326024    -0.540995437756     1.007825032230
         H            0.662654700681     2.631556673976    -1.037711437756     1.007825032230
         H           -2.352171299319    -1.700753326024     0.808442562244     1.007825032230

  Basis Set: AUG-CC-PVTZ
    Blend: AUG-CC-PVTZ
  Basis Set: (AUG-CC-PVTZ AUX)
    Blend: AUG-CC-PVTZ-JKFIT
	 Reference Energy          =    -439.1072870721510526 [Eh]
	 Singles Energy            =      -0.0000000000000000 [Eh]
	 Same-Spin Energy          =      -0.4515659280767987 [Eh]
	 Opposite-Spin Energy      =      -1.4736717133096726 [Eh]
	 Correlation Energy        =      -1.9252376413864714 [Eh]
	 Total Energy              =    -441.0325247135374980 [Eh]

	 ================> DF-SCS-MP2 Energies <==================
	-----------------------------------------------------------
	 SCS Same-Spin Scale       =       0.3333333333333333 [-]
	 SCS Opposite-Spin Scale   =       1.2000000000000000 [-]
	 SCS Same-Spin Energy      =      -0.1505219760255996 [Eh]
	 SCS Opposite-Spin Energy  =      -1.7684060559716070 [Eh]
	 SCS Correlation Energy    =      -1.9189280319972066 [Eh]
	 SCS Total Energy          =    -441.0262151041482639 [Eh]
	-----------------------------------------------------------

  Dipole Moment: [D]
     X:     2.5649      Y:     1.1111      Z:     0.7414     Total:     2.8919

*** Psi4 exiting successfully. Buy a developer a beer!
