                               Psi4 1.4a3.dev225

  ==> Input File <==

--------------------------------------------------------------------------
#psi4
#
memory 32 gb

molecule  {
0 1
  O       -0.1447520     2.0657680    -0.9147710
  O       -2.4135200    -1.3721290    -0.1231600
  N        2.4623060    -1.2702550     0.0647480
  C        1.2743520    -0.4775570    -0.2805680
  C        1.2169020     0.7460590     0.6287670
  C        0.0292070    -1.3356180    -0.0781670
  C       -0.0652210     1.5501200     0.4236430
  C       -1.2565570    -0.5478520    -0.3033930
  C       -1.3010200     0.6792110     0.6017970
  H        1.2815110    -0.1258050    -1.3254330
  H        1.2829160     0.4071000     1.6706590
  H        2.0904420     1.3917410     0.4518040
  H        0.0420040    -2.2046970    -0.7480580
  H        0.0468530    -1.7199520     0.9526730
  H       -0.0966115     2.3670013     1.1315772
  H       -1.3133970    -0.2220240    -1.3458810
  H       -1.3538320     0.3483370     1.6492240
  H       -2.2017640     1.2636240     0.3898210
  H        3.3008500    -0.7206310    -0.1283000
  H        2.5136850    -2.0796090    -0.5553910
  H        0.6334020     2.6343050    -1.0521070
  H       -2.3814240    -1.6980050     0.7940470
units angstrom
no_reorient  #important for SAPT in psi4, default
symmetry c1  #important for SAPT in psi4, default
}

set PROPERTIES_ORIGIN ["COM"]
properties('MP2/aug-cc-pvtz', properties = ['dipole'])
--------------------------------------------------------------------------

    Molecular point group: c1
  Charge       = 0
  Multiplicity = 1
  Basis Set: AUG-CC-PVTZ
    Blend: AUG-CC-PVTZ
  Basis Set: (AUG-CC-PVTZ AUX)
    Blend: AUG-CC-PVTZ-JKFIT

    Orbital Energies [Eh]
    ---------------------

    Doubly Occupied:

       1A    -20.561506     2A    -20.551512     3A    -15.545941
       4A    -11.283396     5A    -11.271790     6A    -11.256346
       7A    -11.225613     8A    -11.219681     9A    -11.217558
      10A     -1.362467    11A     -1.349974    12A     -1.192211
      13A     -1.087434    14A     -0.996470    15A     -0.985904
      16A     -0.841408    17A     -0.823548    18A     -0.769587
      19A     -0.697451    20A     -0.677864    21A     -0.655048
      22A     -0.641825    23A     -0.625692    24A     -0.612097
      25A     -0.591862    26A     -0.563590    27A     -0.548630
      28A     -0.530300    29A     -0.526770    30A     -0.500102
      31A     -0.490217    32A     -0.475731    33A     -0.453459
      34A     -0.444384    35A     -0.420748    36A     -0.395433

  @DF-RHF Final Energy:  -439.10966134418243

   => Energetics <=

    Nuclear Repulsion Energy =            507.0006658149214900
    One-Electron Energy =               -1605.4335550525561302
    Two-Electron Energy =                 659.3232278934523265
    Total Energy =                       -439.1096613441824275
  Basis Set: (AUG-CC-PVTZ AUX)
    Blend: AUG-CC-PVTZ-RI
    Molecular point group: c1

    Geometry (in Angstrom), charge = 0, multiplicity = 1:

       Center              X                  Y                   Z               Mass
    ------------   -----------------  -----------------  -----------------  -----------------
         O           -0.115820119084     2.063341074168    -0.900349233231    15.994914619570
         O           -2.384588119084    -1.374555925832    -0.108738233231    15.994914619570
         N            2.491237880916    -1.272681925832     0.079169766769    14.003074004430
         C            1.303283880916    -0.479983925832    -0.266146233231    12.000000000000
         C            1.245833880916     0.743632074168     0.643188766769    12.000000000000
         C            0.058138880916    -1.338044925832    -0.063745233231    12.000000000000
         C           -0.036289119084     1.547693074168     0.438064766769    12.000000000000
         C           -1.227625119084    -0.550278925832    -0.288971233231    12.000000000000
         C           -1.272088119084     0.676784074168     0.616218766769    12.000000000000
         H            1.310442880916    -0.128231925832    -1.311011233231     1.007825032230
         H            1.311847880916     0.404673074168     1.685080766769     1.007825032230
         H            2.119373880916     1.389314074168     0.466225766769     1.007825032230
         H            0.070935880916    -2.207123925832    -0.733636233231     1.007825032230
         H            0.075784880916    -1.722378925832     0.967094766769     1.007825032230
         H           -0.067679619084     2.364574374168     1.145998966769     1.007825032230
         H           -1.284465119084    -0.224450925832    -1.331459233231     1.007825032230
         H           -1.324900119084     0.345910074168     1.663645766769     1.007825032230
         H           -2.172832119084     1.261197074168     0.404242766769     1.007825032230
         H            3.329781880916    -0.723057925832    -0.113878233231     1.007825032230
         H            2.542616880916    -2.082035925832    -0.540969233231     1.007825032230
         H            0.662333880916     2.631878074168    -1.037685233231     1.007825032230
         H           -2.352492119084    -1.700431925832     0.808468766769     1.007825032230

  Basis Set: AUG-CC-PVTZ
    Blend: AUG-CC-PVTZ
  Basis Set: (AUG-CC-PVTZ AUX)
    Blend: AUG-CC-PVTZ-JKFIT
	 Reference Energy          =    -439.1096613441824275 [Eh]
	 Singles Energy            =      -0.0000000000000000 [Eh]
	 Same-Spin Energy          =      -0.4514865948847517 [Eh]
	 Opposite-Spin Energy      =      -1.4731113972427772 [Eh]
	 Correlation Energy        =      -1.9245979921275289 [Eh]
	 Total Energy              =    -441.0342593363099581 [Eh]

	 ================> DF-SCS-MP2 Energies <==================
	-----------------------------------------------------------
	 SCS Same-Spin Scale       =       0.3333333333333333 [-]
	 SCS Opposite-Spin Scale   =       1.2000000000000000 [-]
	 SCS Same-Spin Energy      =      -0.1504955316282506 [Eh]
	 SCS Opposite-Spin Energy  =      -1.7677336766913325 [Eh]
	 SCS Correlation Energy    =      -1.9182292083195831 [Eh]
	 SCS Total Energy          =    -441.0278905525020150 [Eh]
	-----------------------------------------------------------

  Dipole Moment: [D]
     X:     2.5369      Y:     1.1409      Z:     0.7593     Total:     2.8834

*** Psi4 exiting successfully. Buy a developer a beer!
