                               Psi4 1.4a3.dev225

  ==> Input File <==

--------------------------------------------------------------------------
#psi4
#
memory 32 gb

molecule  {
0 1
  O       -0.1447520     2.0657680    -0.9147710
  O       -2.4135200    -1.3721290    -0.1231600
  N        2.4623060    -1.2702550     0.0647480
  C        1.2743520    -0.4775570    -0.2805680
  C        1.2169020     0.7460590     0.6287670
  C        0.0292070    -1.3356180    -0.0781670
  C       -0.0652210     1.5501200     0.4236430
  C       -1.2565570    -0.5478520    -0.3033930
  C       -1.3010200     0.6792110     0.6017970
  H        1.2815110    -0.1258050    -1.3254330
  H        1.2829160     0.4071000     1.6706590
  H        2.0904420     1.3917410     0.4518040
  H        0.0422372    -2.2205363    -0.7602671
  H        0.0468530    -1.7199520     0.9526730
  H       -0.0971920     2.3821090     1.1446700
  H       -1.3133970    -0.2220240    -1.3458810
  H       -1.3538320     0.3483370     1.6492240
  H       -2.2017640     1.2636240     0.3898210
  H        3.3008500    -0.7206310    -0.1283000
  H        2.5136850    -2.0796090    -0.5553910
  H        0.6334020     2.6343050    -1.0521070
  H       -2.3814240    -1.6980050     0.7940470
units angstrom
no_reorient  #important for SAPT in psi4, default
symmetry c1  #important for SAPT in psi4, default
}

set PROPERTIES_ORIGIN ["COM"]
properties('MP2/aug-cc-pvtz', properties = ['dipole'])
--------------------------------------------------------------------------

    Molecular point group: c1
  Charge       = 0
  Multiplicity = 1
  Basis Set: AUG-CC-PVTZ
    Blend: AUG-CC-PVTZ
  Basis Set: (AUG-CC-PVTZ AUX)
    Blend: AUG-CC-PVTZ-JKFIT

    Orbital Energies [Eh]
    ---------------------

    Doubly Occupied:

       1A    -20.561979     2A    -20.551656     3A    -15.546040
       4A    -11.286059     5A    -11.272128     6A    -11.256669
       7A    -11.225997     8A    -11.220100     9A    -11.220057
      10A     -1.362761    11A     -1.350119    12A     -1.192306
      13A     -1.087401    14A     -0.995440    15A     -0.985919
      16A     -0.839770    17A     -0.823101    18A     -0.769576
      19A     -0.696032    20A     -0.678024    21A     -0.654720
      22A     -0.640168    23A     -0.625819    24A     -0.611767
      25A     -0.592065    26A     -0.563232    27A     -0.548192
      28A     -0.530329    29A     -0.526690    30A     -0.499733
      31A     -0.489708    32A     -0.475833    33A     -0.453702
      34A     -0.444148    35A     -0.420260    36A     -0.395443

  @DF-RHF Final Energy:  -439.10893824494303

   => Energetics <=

    Nuclear Repulsion Energy =            506.7782276975035529
    One-Electron Energy =               -1604.9884397771927524
    Two-Electron Energy =                 659.1012738347461664
    Total Energy =                       -439.1089382449430332
  Basis Set: (AUG-CC-PVTZ AUX)
    Blend: AUG-CC-PVTZ-RI
    Molecular point group: c1

    Geometry (in Angstrom), charge = 0, multiplicity = 1:

       Center              X                  Y                   Z               Mass
    ------------   -----------------  -----------------  -----------------  -----------------
         O           -0.115817449122     2.063346698539    -0.900356026912    15.994914619570
         O           -2.384585449122    -1.374550301461    -0.108745026912    15.994914619570
         N            2.491240550878    -1.272676301461     0.079162973088    14.003074004430
         C            1.303286550878    -0.479978301461    -0.266153026912    12.000000000000
         C            1.245836550878     0.743637698539     0.643181973088    12.000000000000
         C            0.058141550878    -1.338039301461    -0.063752026912    12.000000000000
         C           -0.036286449122     1.547698698539     0.438057973088    12.000000000000
         C           -1.227622449122    -0.550273301461    -0.288978026912    12.000000000000
         C           -1.272085449122     0.676789698539     0.616211973088    12.000000000000
         H            1.310445550878    -0.128226301461    -1.311018026912     1.007825032230
         H            1.311850550878     0.404678698539     1.685073973088     1.007825032230
         H            2.119376550878     1.389319698539     0.466218973088     1.007825032230
         H            0.071171750878    -2.222957601461    -0.745852126912     1.007825032230
         H            0.075787550878    -1.722373301461     0.967087973088     1.007825032230
         H           -0.068257449122     2.379687698539     1.159084973088     1.007825032230
         H           -1.284462449122    -0.224445301461    -1.331466026912     1.007825032230
         H           -1.324897449122     0.345915698539     1.663638973088     1.007825032230
         H           -2.172829449122     1.261202698539     0.404235973088     1.007825032230
         H            3.329784550878    -0.723052301461    -0.113885026912     1.007825032230
         H            2.542619550878    -2.082030301461    -0.540976026912     1.007825032230
         H            0.662336550878     2.631883698539    -1.037692026912     1.007825032230
         H           -2.352489449122    -1.700426301461     0.808461973088     1.007825032230

  Basis Set: AUG-CC-PVTZ
    Blend: AUG-CC-PVTZ
  Basis Set: (AUG-CC-PVTZ AUX)
    Blend: AUG-CC-PVTZ-JKFIT
	 Reference Energy          =    -439.1089382449430332 [Eh]
	 Singles Energy            =      -0.0000000000000000 [Eh]
	 Same-Spin Energy          =      -0.4515324625361365 [Eh]
	 Opposite-Spin Energy      =      -1.4734205355708525 [Eh]
	 Correlation Energy        =      -1.9249529981069891 [Eh]
	 Total Energy              =    -441.0338912430500500 [Eh]

	 ================> DF-SCS-MP2 Energies <==================
	-----------------------------------------------------------
	 SCS Same-Spin Scale       =       0.3333333333333333 [-]
	 SCS Opposite-Spin Scale   =       1.2000000000000000 [-]
	 SCS Same-Spin Energy      =      -0.1505108208453788 [Eh]
	 SCS Opposite-Spin Energy  =      -1.7681046426850229 [Eh]
	 SCS Correlation Energy    =      -1.9186154635304018 [Eh]
	 SCS Total Energy          =    -441.0275537084734196 [Eh]
	-----------------------------------------------------------

  Dipole Moment: [D]
     X:     2.5357      Y:     1.1415      Z:     0.7516     Total:     2.8805

*** Psi4 exiting successfully. Buy a developer a beer!
