                               Psi4 1.4a3.dev225

  ==> Input File <==

--------------------------------------------------------------------------
#psi4
#
memory 32 gb

molecule  {
0 1
  O       -0.1447520     2.0657680    -0.9147710
  O       -2.4135200    -1.3721290    -0.1231600
  N        2.4623060    -1.2702550     0.0647480
  C        1.2743520    -0.4775570    -0.2805680
  C        1.2169020     0.7460590     0.6287670
  C        0.0292070    -1.3356180    -0.0781670
  C       -0.0652210     1.5501200     0.4236430
  C       -1.2565570    -0.5478520    -0.3033930
  C       -1.3010200     0.6792110     0.6017970
  H        1.2815110    -0.1258050    -1.3254330
  H        1.2829160     0.4071000     1.6706590
  H        2.0904420     1.3917410     0.4518040
  H        0.0420040    -2.2046970    -0.7480580
  H        0.0468530    -1.7199520     0.9526730
  H       -0.0971920     2.3821090     1.1446700
  H       -1.3133970    -0.2220240    -1.3458810
  H       -1.3538320     0.3483370     1.6492240
  H       -2.1194626     1.2102259     0.4091893
  H        3.3008500    -0.7206310    -0.1283000
  H        2.5136850    -2.0796090    -0.5553910
  H        0.6334020     2.6343050    -1.0521070
  H       -2.3814240    -1.6980050     0.7940470
units angstrom
no_reorient  #important for SAPT in psi4, default
symmetry c1  #important for SAPT in psi4, default
}

set PROPERTIES_ORIGIN ["COM"]
properties('MP2/aug-cc-pvtz', properties = ['dipole'])
--------------------------------------------------------------------------

    Molecular point group: c1
  Charge       = 0
  Multiplicity = 1
  Basis Set: AUG-CC-PVTZ
    Blend: AUG-CC-PVTZ
  Basis Set: (AUG-CC-PVTZ AUX)
    Blend: AUG-CC-PVTZ-JKFIT

    Orbital Energies [Eh]
    ---------------------

    Doubly Occupied:

       1A    -20.561944     2A    -20.551658     3A    -15.545682
       4A    -11.285266     5A    -11.271220     6A    -11.256025
       7A    -11.225163     8A    -11.216943     9A    -11.207864
      10A     -1.362754    11A     -1.350112    12A     -1.191904
      13A     -1.088688    14A     -0.995509    15A     -0.991056
      16A     -0.840125    17A     -0.827781    18A     -0.769953
      19A     -0.697128    20A     -0.680113    21A     -0.654678
      22A     -0.647139    23A     -0.625424    24A     -0.611418
      25A     -0.593727    26A     -0.563602    27A     -0.550938
      28A     -0.535543    29A     -0.526374    30A     -0.499964
      31A     -0.491099    32A     -0.476308    33A     -0.454200
      34A     -0.444300    35A     -0.420337    36A     -0.395104

  @DF-RHF Final Energy:  -439.10368386124657

   => Energetics <=

    Nuclear Repulsion Energy =            507.4553141915899914
    One-Electron Energy =               -1606.3039103312869429
    Two-Electron Energy =                 659.7449122784502151
    Total Energy =                       -439.1036838612466227
  Basis Set: (AUG-CC-PVTZ AUX)
    Blend: AUG-CC-PVTZ-RI
    Molecular point group: c1

    Geometry (in Angstrom), charge = 0, multiplicity = 1:

       Center              X                  Y                   Z               Mass
    ------------   -----------------  -----------------  -----------------  -----------------
         O           -0.116448370367     2.063635441863    -0.900598786623    15.994914619570
         O           -2.385216370367    -1.374261558137    -0.108987786623    15.994914619570
         N            2.490609629633    -1.272387558137     0.078920213377    14.003074004430
         C            1.302655629633    -0.479689558137    -0.266395786623    12.000000000000
         C            1.245205629633     0.743926441863     0.642939213377    12.000000000000
         C            0.057510629633    -1.337750558137    -0.063994786623    12.000000000000
         C           -0.036917370367     1.547987441863     0.437815213377    12.000000000000
         C           -1.228253370367    -0.549984558137    -0.289220786623    12.000000000000
         C           -1.272716370367     0.677078441863     0.615969213377    12.000000000000
         H            1.309814629633    -0.127937558137    -1.311260786623     1.007825032230
         H            1.311219629633     0.404967441863     1.684831213377     1.007825032230
         H            2.118745629633     1.389608441863     0.465976213377     1.007825032230
         H            0.070307629633    -2.206829558137    -0.733885786623     1.007825032230
         H            0.075156629633    -1.722084558137     0.966845213377     1.007825032230
         H           -0.068888370367     2.379976441863     1.158842213377     1.007825032230
         H           -1.285093370367    -0.224156558137    -1.331708786623     1.007825032230
         H           -1.325528370367     0.346204441863     1.663396213377     1.007825032230
         H           -2.091158970367     1.208093341863     0.423361513377     1.007825032230
         H            3.329153629633    -0.722763558137    -0.114127786623     1.007825032230
         H            2.541988629633    -2.081741558137    -0.541218786623     1.007825032230
         H            0.661705629633     2.632172441863    -1.037934786623     1.007825032230
         H           -2.353120370367    -1.700137558137     0.808219213377     1.007825032230

  Basis Set: AUG-CC-PVTZ
    Blend: AUG-CC-PVTZ
  Basis Set: (AUG-CC-PVTZ AUX)
    Blend: AUG-CC-PVTZ-JKFIT
	 Reference Energy          =    -439.1036838612465658 [Eh]
	 Singles Energy            =      -0.0000000000000000 [Eh]
	 Same-Spin Energy          =      -0.4514433443714623 [Eh]
	 Opposite-Spin Energy      =      -1.4726834208583204 [Eh]
	 Correlation Energy        =      -1.9241267652297827 [Eh]
	 Total Energy              =    -441.0278106264763665 [Eh]

	 ================> DF-SCS-MP2 Energies <==================
	-----------------------------------------------------------
	 SCS Same-Spin Scale       =       0.3333333333333333 [-]
	 SCS Opposite-Spin Scale   =       1.2000000000000000 [-]
	 SCS Same-Spin Energy      =      -0.1504811147904874 [Eh]
	 SCS Opposite-Spin Energy  =      -1.7672201050299845 [Eh]
	 SCS Correlation Energy    =      -1.9177012198204719 [Eh]
	 SCS Total Energy          =    -441.0213850810670237 [Eh]
	-----------------------------------------------------------

  Dipole Moment: [D]
     X:     2.4945      Y:     1.1524      Z:     0.7526     Total:     2.8490

*** Psi4 exiting successfully. Buy a developer a beer!
