                               Psi4 1.4a3.dev225

  ==> Input File <==

--------------------------------------------------------------------------
#psi4
#
memory 32 gb

molecule  {
0 1
  O       -0.1447520     2.0657680    -0.9147710
  O       -2.4135200    -1.3721290    -0.1231600
  N        2.4623060    -1.2702550     0.0647480
  C        1.2743520    -0.4775570    -0.2805680
  C        1.2169020     0.7460590     0.6287670
  C        0.0292070    -1.3356180    -0.0781670
  C       -0.0652210     1.5501200     0.4236430
  C       -1.2565570    -0.5478520    -0.3033930
  C       -1.3010200     0.6792110     0.6017970
  H        1.2815110    -0.1258050    -1.3254330
  H        1.2829160     0.4071000     1.6706590
  H        2.0904420     1.3917410     0.4518040
  H        0.0420040    -2.2046970    -0.7480580
  H        0.0468530    -1.7199520     0.9526730
  H       -0.0971920     2.3821090     1.1446700
  H       -1.3133970    -0.2220240    -1.3458810
  H       -1.3538320     0.3483370     1.6492240
  H       -2.2017640     1.2636240     0.3898210
  H        3.3419135    -0.6937159    -0.1377536
  H        2.5136850    -2.0796090    -0.5553910
  H        0.6334020     2.6343050    -1.0521070
  H       -2.3814240    -1.6980050     0.7940470
units angstrom
no_reorient  #important for SAPT in psi4, default
symmetry c1  #important for SAPT in psi4, default
}

set PROPERTIES_ORIGIN ["COM"]
properties('MP2/aug-cc-pvtz', properties = ['dipole'])
--------------------------------------------------------------------------

    Molecular point group: c1
  Charge       = 0
  Multiplicity = 1
  Basis Set: AUG-CC-PVTZ
    Blend: AUG-CC-PVTZ
  Basis Set: (AUG-CC-PVTZ AUX)
    Blend: AUG-CC-PVTZ-JKFIT

    Orbital Energies [Eh]
    ---------------------

    Doubly Occupied:

       1A    -20.561857     2A    -20.551779     3A    -15.551635
       4A    -11.285886     5A    -11.272129     6A    -11.256628
       7A    -11.225707     8A    -11.219911     9A    -11.217958
      10A     -1.362642    11A     -1.350226    12A     -1.187840
      13A     -1.085805    14A     -0.996050    15A     -0.984342
      16A     -0.840333    17A     -0.822126    18A     -0.769435
      19A     -0.695216    20A     -0.677816    21A     -0.650358
      22A     -0.641703    23A     -0.623449    24A     -0.611057
      25A     -0.591027    26A     -0.562404    27A     -0.547745
      28A     -0.530347    29A     -0.526609    30A     -0.499860
      31A     -0.490291    32A     -0.475783    33A     -0.453595
      34A     -0.443816    35A     -0.420376    36A     -0.394944

  @DF-RHF Final Energy:  -439.10600717891566

   => Energetics <=

    Nuclear Repulsion Energy =            506.6253717840822901
    One-Electron Energy =               -1604.7053820367509616
    Two-Electron Energy =                 658.9740030737530105
    Total Energy =                       -439.1060071789156609
  Basis Set: (AUG-CC-PVTZ AUX)
    Blend: AUG-CC-PVTZ-RI
    Molecular point group: c1

    Geometry (in Angstrom), charge = 0, multiplicity = 1:

       Center              X                  Y                   Z               Mass
    ------------   -----------------  -----------------  -----------------  -----------------
         O           -0.116131342978     2.063018012650    -0.900377210555    15.994914619570
         O           -2.384899342978    -1.374878987350    -0.108766210555    15.994914619570
         N            2.490926657022    -1.273004987350     0.079141789445    14.003074004430
         C            1.302972657022    -0.480306987350    -0.266174210555    12.000000000000
         C            1.245522657022     0.743309012650     0.643160789445    12.000000000000
         C            0.057827657022    -1.338367987350    -0.063773210555    12.000000000000
         C           -0.036600342978     1.547370012650     0.438036789445    12.000000000000
         C           -1.227936342978    -0.550601987350    -0.288999210555    12.000000000000
         C           -1.272399342978     0.676461012650     0.616190789445    12.000000000000
         H            1.310131657022    -0.128554987350    -1.311039210555     1.007825032230
         H            1.311536657022     0.404350012650     1.685052789445     1.007825032230
         H            2.119062657022     1.388991012650     0.466197789445     1.007825032230
         H            0.070624657022    -2.207446987350    -0.733664210555     1.007825032230
         H            0.075473657022    -1.722701987350     0.967066789445     1.007825032230
         H           -0.068571342978     2.379359012650     1.159063789445     1.007825032230
         H           -1.284776342978    -0.224773987350    -1.331487210555     1.007825032230
         H           -1.325211342978     0.345587012650     1.663617789445     1.007825032230
         H           -2.173143342978     1.260874012650     0.404214789445     1.007825032230
         H            3.370534157022    -0.696465887350    -0.123359810555     1.007825032230
         H            2.542305657022    -2.082358987350    -0.540997210555     1.007825032230
         H            0.662022657022     2.631555012650    -1.037713210555     1.007825032230
         H           -2.352803342978    -1.700754987350     0.808440789445     1.007825032230

  Basis Set: AUG-CC-PVTZ
    Blend: AUG-CC-PVTZ
  Basis Set: (AUG-CC-PVTZ AUX)
    Blend: AUG-CC-PVTZ-JKFIT
	 Reference Energy          =    -439.1060071789156609 [Eh]
	 Singles Energy            =      -0.0000000000000000 [Eh]
	 Same-Spin Energy          =      -0.4517781985798487 [Eh]
	 Opposite-Spin Energy      =      -1.4741964163693244 [Eh]
	 Correlation Energy        =      -1.9259746149491730 [Eh]
	 Total Energy              =    -441.0319817938648157 [Eh]

	 ================> DF-SCS-MP2 Energies <==================
	-----------------------------------------------------------
	 SCS Same-Spin Scale       =       0.3333333333333333 [-]
	 SCS Opposite-Spin Scale   =       1.2000000000000000 [-]
	 SCS Same-Spin Energy      =      -0.1505927328599496 [Eh]
	 SCS Opposite-Spin Energy  =      -1.7690356996431893 [Eh]
	 SCS Correlation Energy    =      -1.9196284325031387 [Eh]
	 SCS Total Energy          =    -441.0256356114188065 [Eh]
	-----------------------------------------------------------

  Dipole Moment: [D]
     X:     2.5291      Y:     1.1327      Z:     0.7482     Total:     2.8704

*** Psi4 exiting successfully. Buy a developer a beer!
