                               Psi4 1.4a3.dev225

  ==> Input File <==

--------------------------------------------------------------------------
#psi4
#
memory 32 gb

molecule  {
0 1
  O       -0.1447520     2.0657680    -0.9147710
  O       -2.4135200    -1.3721290    -0.1231600
  N        2.4623060    -1.2702550     0.0647480
  C        1.2743520    -0.4775570    -0.2805680
  C        1.2169020     0.7460590     0.6287670
  C        0.0292070    -1.3356180    -0.0781670
  C       -0.0876786     1.5334871     0.5265136
  C       -1.2565570    -0.5478520    -0.3033930
  C       -1.3010200     0.6792110     0.6017970
  H        1.2815110    -0.1258050    -1.3254330
  H        1.2829160     0.4071000     1.6706590
  H        2.0904420     1.3917410     0.4518040
  H        0.0420040    -2.2046970    -0.7480580
  H        0.0468530    -1.7199520     0.9526730
  H       -0.0971920     2.3821090     1.1446700
  H       -1.3133970    -0.2220240    -1.3458810
  H       -1.3538320     0.3483370     1.6492240
  H       -2.2017640     1.2636240     0.3898210
  H        3.3008500    -0.7206310    -0.1283000
  H        2.5136850    -2.0796090    -0.5553910
  H        0.6334020     2.6343050    -1.0521070
  H       -2.3814240    -1.6980050     0.7940470
units angstrom
no_reorient  #important for SAPT in psi4, default
symmetry c1  #important for SAPT in psi4, default
}

set PROPERTIES_ORIGIN ["COM"]
properties('MP2/aug-cc-pvtz', properties = ['dipole'])
--------------------------------------------------------------------------

    Molecular point group: c1
  Charge       = 0
  Multiplicity = 1
  Basis Set: AUG-CC-PVTZ
    Blend: AUG-CC-PVTZ
  Basis Set: (AUG-CC-PVTZ AUX)
    Blend: AUG-CC-PVTZ-JKFIT

    Orbital Energies [Eh]
    ---------------------

    Doubly Occupied:

       1A    -20.553703     2A    -20.547864     3A    -15.547030
       4A    -11.287668     5A    -11.274405     6A    -11.258016
       7A    -11.229237     8A    -11.222302     9A    -11.218858
      10A     -1.352782    11A     -1.324907    12A     -1.193291
      13A     -1.093118    14A     -1.001089    15A     -0.990092
      16A     -0.845507    17A     -0.827226    18A     -0.765258
      19A     -0.692615    20A     -0.669197    21A     -0.657300
      22A     -0.643784    23A     -0.625092    24A     -0.609207
      25A     -0.588413    26A     -0.563310    27A     -0.550818
      28A     -0.531835    29A     -0.512062    30A     -0.499657
      31A     -0.488633    32A     -0.474046    33A     -0.457103
      34A     -0.447795    35A     -0.426606    36A     -0.397164

  @DF-RHF Final Energy:  -439.09829931583596

   => Energetics <=

    Nuclear Repulsion Energy =            506.0293830600326714
    One-Electron Energy =               -1603.5213862997509295
    Two-Electron Energy =                 658.3937039238824127
    Total Energy =                       -439.0982993158359022
  Basis Set: (AUG-CC-PVTZ AUX)
    Blend: AUG-CC-PVTZ-RI
    Molecular point group: c1

    Geometry (in Angstrom), charge = 0, multiplicity = 1:

       Center              X                  Y                   Z               Mass
    ------------   -----------------  -----------------  -----------------  -----------------
         O           -0.113759956549     2.064747454305    -0.909866346666    15.994914619570
         O           -2.382527956549    -1.373149545695    -0.118255346666    15.994914619570
         N            2.493298043451    -1.271275545695     0.069652653334    14.003074004430
         C            1.305344043451    -0.478577545695    -0.275663346666    12.000000000000
         C            1.247894043451     0.745038454305     0.633671653334    12.000000000000
         C            0.060199043451    -1.336638545695    -0.073262346666    12.000000000000
         C           -0.056686556549     1.532466554305     0.531418253334    12.000000000000
         C           -1.225564956549    -0.548872545695    -0.298488346666    12.000000000000
         C           -1.270027956549     0.678190454305     0.606701653334    12.000000000000
         H            1.312503043451    -0.126825545695    -1.320528346666     1.007825032230
         H            1.313908043451     0.406079454305     1.675563653334     1.007825032230
         H            2.121434043451     1.390720454305     0.456708653334     1.007825032230
         H            0.072996043451    -2.205717545695    -0.743153346666     1.007825032230
         H            0.077845043451    -1.720972545695     0.957577653334     1.007825032230
         H           -0.066199956549     2.381088454305     1.149574653334     1.007825032230
         H           -1.282404956549    -0.223044545695    -1.340976346666     1.007825032230
         H           -1.322839956549     0.347316454305     1.654128653334     1.007825032230
         H           -2.170771956549     1.262603454305     0.394725653334     1.007825032230
         H            3.331842043451    -0.721651545695    -0.123395346666     1.007825032230
         H            2.544677043451    -2.080629545695    -0.550486346666     1.007825032230
         H            0.664394043451     2.633284454305    -1.047202346666     1.007825032230
         H           -2.350431956549    -1.699025545695     0.798951653334     1.007825032230

  Basis Set: AUG-CC-PVTZ
    Blend: AUG-CC-PVTZ
  Basis Set: (AUG-CC-PVTZ AUX)
    Blend: AUG-CC-PVTZ-JKFIT
	 Reference Energy          =    -439.0982993158359591 [Eh]
	 Singles Energy            =      -0.0000000000000000 [Eh]
	 Same-Spin Energy          =      -0.4520096800230009 [Eh]
	 Opposite-Spin Energy      =      -1.4752899447375372 [Eh]
	 Correlation Energy        =      -1.9272996247605381 [Eh]
	 Total Energy              =    -441.0255989405965238 [Eh]

	 ================> DF-SCS-MP2 Energies <==================
	-----------------------------------------------------------
	 SCS Same-Spin Scale       =       0.3333333333333333 [-]
	 SCS Opposite-Spin Scale   =       1.2000000000000000 [-]
	 SCS Same-Spin Energy      =      -0.1506698933410003 [Eh]
	 SCS Opposite-Spin Energy  =      -1.7703479336850445 [Eh]
	 SCS Correlation Energy    =      -1.9210178270260447 [Eh]
	 SCS Total Energy          =    -441.0193171428620076 [Eh]
	-----------------------------------------------------------

  Dipole Moment: [D]
     X:     2.5026      Y:     0.9571      Z:     1.0472     Total:     2.8768

*** Psi4 exiting successfully. Buy a developer a beer!
