                               Psi4 1.4a3.dev225

  ==> Input File <==

--------------------------------------------------------------------------
#psi4
#
memory 32 gb

molecule  {
0 1
  O       -0.1447520     2.0657680    -0.9147710
  O       -2.4135200    -1.3721290    -0.1231600
  N        2.4623060    -1.2702550     0.0647480
  C        1.2743520    -0.4775570    -0.2805680
  C        1.2169020     0.7460590     0.6287670
  C        0.0292070    -1.3356180    -0.0781670
  C       -0.0652210     1.5501200     0.4236430
  C       -1.2565570    -0.5478520    -0.3033930
  C       -1.1386614     0.7936306     0.5783912
  H        1.2815110    -0.1258050    -1.3254330
  H        1.2829160     0.4071000     1.6706590
  H        2.0904420     1.3917410     0.4518040
  H        0.0420040    -2.2046970    -0.7480580
  H        0.0468530    -1.7199520     0.9526730
  H       -0.0971920     2.3821090     1.1446700
  H       -1.3133970    -0.2220240    -1.3458810
  H       -1.3538320     0.3483370     1.6492240
  H       -2.2017640     1.2636240     0.3898210
  H        3.3008500    -0.7206310    -0.1283000
  H        2.5136850    -2.0796090    -0.5553910
  H        0.6334020     2.6343050    -1.0521070
  H       -2.3814240    -1.6980050     0.7940470
units angstrom
no_reorient  #important for SAPT in psi4, default
symmetry c1  #important for SAPT in psi4, default
}

set PROPERTIES_ORIGIN ["COM"]
properties('MP2/aug-cc-pvtz', properties = ['dipole'])
--------------------------------------------------------------------------

    Molecular point group: c1
  Charge       = 0
  Multiplicity = 1
  Basis Set: AUG-CC-PVTZ
    Blend: AUG-CC-PVTZ
  Basis Set: (AUG-CC-PVTZ AUX)
    Blend: AUG-CC-PVTZ-JKFIT

    Orbital Energies [Eh]
    ---------------------

    Doubly Occupied:

       1A    -20.562722     2A    -20.560503     3A    -15.546378
       4A    -11.277961     5A    -11.275354     6A    -11.257000
       7A    -11.228149     8A    -11.227087     9A    -11.216236
      10A     -1.369180    11A     -1.353655    12A     -1.193293
      13A     -1.107514    14A     -1.009951    15A     -0.983880
      16A     -0.847500    17A     -0.816343    18A     -0.766436
      19A     -0.704942    20A     -0.681395    21A     -0.658747
      22A     -0.644523    23A     -0.630481    24A     -0.611130
      25A     -0.592350    26A     -0.570983    27A     -0.548079
      28A     -0.527401    29A     -0.522726    30A     -0.504134
      31A     -0.489745    32A     -0.473976    33A     -0.458198
      34A     -0.442020    35A     -0.402935    36A     -0.391055

  @DF-RHF Final Energy:  -439.05711734485874

   => Energetics <=

    Nuclear Repulsion Energy =            508.9024637998755338
    One-Electron Energy =               -1609.0112431663610550
    Two-Electron Energy =                 661.0516620216268393
    Total Energy =                       -439.0571173448587388
  Basis Set: (AUG-CC-PVTZ AUX)
    Blend: AUG-CC-PVTZ-RI
    Molecular point group: c1

    Geometry (in Angstrom), charge = 0, multiplicity = 1:

       Center              X                  Y                   Z               Mass
    ------------   -----------------  -----------------  -----------------  -----------------
         O           -0.130677464327     2.052751310633    -0.898307392531    15.994914619570
         O           -2.399445464327    -1.385145689367    -0.106696392531    15.994914619570
         N            2.476380535673    -1.283271689367     0.081211607469    14.003074004430
         C            1.288426535673    -0.490573689367    -0.264104392531    12.000000000000
         C            1.230976535673     0.733042310633     0.645230607469    12.000000000000
         C            0.043281535673    -1.348634689367    -0.061703392531    12.000000000000
         C           -0.051146464327     1.537103310633     0.440106607469    12.000000000000
         C           -1.242482464327    -0.560868689367    -0.286929392531    12.000000000000
         C           -1.124586864327     0.780613910633     0.594854807469    12.000000000000
         H            1.295585535673    -0.138821689367    -1.308969392531     1.007825032230
         H            1.296990535673     0.394083310633     1.687122607469     1.007825032230
         H            2.104516535673     1.378724310633     0.468267607469     1.007825032230
         H            0.056078535673    -2.217713689367    -0.731594392531     1.007825032230
         H            0.060927535673    -1.732968689367     0.969136607469     1.007825032230
         H           -0.083117464327     2.369092310633     1.161133607469     1.007825032230
         H           -1.299322464327    -0.235040689367    -1.329417392531     1.007825032230
         H           -1.339757464327     0.335320310633     1.665687607469     1.007825032230
         H           -2.187689464327     1.250607310633     0.406284607469     1.007825032230
         H            3.314924535673    -0.733647689367    -0.111836392531     1.007825032230
         H            2.527759535673    -2.092625689367    -0.538927392531     1.007825032230
         H            0.647476535673     2.621288310633    -1.035643392531     1.007825032230
         H           -2.367349464327    -1.711021689367     0.810510607469     1.007825032230

  Basis Set: AUG-CC-PVTZ
    Blend: AUG-CC-PVTZ
  Basis Set: (AUG-CC-PVTZ AUX)
    Blend: AUG-CC-PVTZ-JKFIT
	 Reference Energy          =    -439.0571173448587388 [Eh]
	 Singles Energy            =      -0.0000000000000000 [Eh]
	 Same-Spin Energy          =      -0.4547173034915960 [Eh]
	 Opposite-Spin Energy      =      -1.4780057218844564 [Eh]
	 Correlation Energy        =      -1.9327230253760526 [Eh]
	 Total Energy              =    -440.9898403702347878 [Eh]

	 ================> DF-SCS-MP2 Energies <==================
	-----------------------------------------------------------
	 SCS Same-Spin Scale       =       0.3333333333333333 [-]
	 SCS Opposite-Spin Scale   =       1.2000000000000000 [-]
	 SCS Same-Spin Energy      =      -0.1515724344971986 [Eh]
	 SCS Opposite-Spin Energy  =      -1.7736068662613478 [Eh]
	 SCS Correlation Energy    =      -1.9251793007585465 [Eh]
	 SCS Total Energy          =    -440.9822966456172821 [Eh]
	-----------------------------------------------------------

  Dipole Moment: [D]
     X:     2.4898      Y:     1.0067      Z:     0.7284     Total:     2.7826

*** Psi4 exiting successfully. Buy a developer a beer!
