                               Psi4 1.4a3.dev225

  ==> Input File <==

--------------------------------------------------------------------------
#psi4
#
memory 32 gb

molecule  {
0 1
  O       -0.1447520     2.0657680    -0.9147710
  O       -2.4135200    -1.3721290    -0.1231600
  N        2.4623060    -1.2702550     0.0647480
  C        1.2743520    -0.4775570    -0.2805680
  C        1.2169020     0.7460590     0.6287670
  C        0.0292070    -1.3356180    -0.0781670
  C       -0.0652210     1.5501200     0.4236430
  C       -1.2565570    -0.5478520    -0.3033930
  C       -1.3024774     0.7194304     0.6314664
  H        1.2815110    -0.1258050    -1.3254330
  H        1.2829160     0.4071000     1.6706590
  H        2.0904420     1.3917410     0.4518040
  H        0.0420040    -2.2046970    -0.7480580
  H        0.0468530    -1.7199520     0.9526730
  H       -0.0971920     2.3821090     1.1446700
  H       -1.3133970    -0.2220240    -1.3458810
  H       -1.3538320     0.3483370     1.6492240
  H       -2.2017640     1.2636240     0.3898210
  H        3.3008500    -0.7206310    -0.1283000
  H        2.5136850    -2.0796090    -0.5553910
  H        0.6334020     2.6343050    -1.0521070
  H       -2.3814240    -1.6980050     0.7940470
units angstrom
no_reorient  #important for SAPT in psi4, default
symmetry c1  #important for SAPT in psi4, default
}

set PROPERTIES_ORIGIN ["COM"]
properties('MP2/aug-cc-pvtz', properties = ['dipole'])
--------------------------------------------------------------------------

    Molecular point group: c1
  Charge       = 0
  Multiplicity = 1
  Basis Set: AUG-CC-PVTZ
    Blend: AUG-CC-PVTZ
  Basis Set: (AUG-CC-PVTZ AUX)
    Blend: AUG-CC-PVTZ-JKFIT

    Orbital Energies [Eh]
    ---------------------

    Doubly Occupied:

       1A    -20.561994     2A    -20.551915     3A    -15.545975
       4A    -11.284625     5A    -11.273790     6A    -11.256355
       7A    -11.226139     8A    -11.218637     9A    -11.217601
      10A     -1.362657    11A     -1.349404    12A     -1.192155
      13A     -1.085531    14A     -0.996189    15A     -0.984810
      16A     -0.838088    17A     -0.824284    18A     -0.769964
      19A     -0.695715    20A     -0.677615    21A     -0.654557
      22A     -0.642447    23A     -0.623929    24A     -0.610832
      25A     -0.591460    26A     -0.563677    27A     -0.547888
      28A     -0.533806    29A     -0.528249    30A     -0.500665
      31A     -0.491341    32A     -0.476869    33A     -0.455987
      34A     -0.444638    35A     -0.412490    36A     -0.394666

  @DF-RHF Final Energy:  -439.10751821086404

   => Energetics <=

    Nuclear Repulsion Energy =            506.2960339270153440
    One-Electron Energy =               -1604.0332115551188963
    Two-Electron Energy =                 658.6296594172396226
    Total Energy =                       -439.1075182108639865
  Basis Set: (AUG-CC-PVTZ AUX)
    Blend: AUG-CC-PVTZ-RI
    Molecular point group: c1

    Geometry (in Angstrom), charge = 0, multiplicity = 1:

       Center              X                  Y                   Z               Mass
    ------------   -----------------  -----------------  -----------------  -----------------
         O           -0.115682250411     2.059543369233    -0.903165733460    15.994914619570
         O           -2.384450250411    -1.378353630767    -0.111554733460    15.994914619570
         N            2.491375749589    -1.276479630767     0.076353266540    14.003074004430
         C            1.303421749589    -0.483781630767    -0.268962733460    12.000000000000
         C            1.245971749589     0.739834369233     0.640372266540    12.000000000000
         C            0.058276749589    -1.341842630767    -0.066561733460    12.000000000000
         C           -0.036151250411     1.543895369233     0.435248266540    12.000000000000
         C           -1.227487250411    -0.554076630767    -0.291787733460    12.000000000000
         C           -1.273407650411     0.713205769233     0.643071666540    12.000000000000
         H            1.310580749589    -0.132029630767    -1.313827733460     1.007825032230
         H            1.311985749589     0.400875369233     1.682264266540     1.007825032230
         H            2.119511749589     1.385516369233     0.463409266540     1.007825032230
         H            0.071073749589    -2.210921630767    -0.736452733460     1.007825032230
         H            0.075922749589    -1.726176630767     0.964278266540     1.007825032230
         H           -0.068122250411     2.375884369233     1.156275266540     1.007825032230
         H           -1.284327250411    -0.228248630767    -1.334275733460     1.007825032230
         H           -1.324762250411     0.342112369233     1.660829266540     1.007825032230
         H           -2.172694250411     1.257399369233     0.401426266540     1.007825032230
         H            3.329919749589    -0.726855630767    -0.116694733460     1.007825032230
         H            2.542754749589    -2.085833630767    -0.543785733460     1.007825032230
         H            0.662471749589     2.628080369233    -1.040501733460     1.007825032230
         H           -2.352354250411    -1.704229630767     0.805652266540     1.007825032230

  Basis Set: AUG-CC-PVTZ
    Blend: AUG-CC-PVTZ
  Basis Set: (AUG-CC-PVTZ AUX)
    Blend: AUG-CC-PVTZ-JKFIT
	 Reference Energy          =    -439.1075182108640433 [Eh]
	 Singles Energy            =      -0.0000000000000000 [Eh]
	 Same-Spin Energy          =      -0.4513837555817209 [Eh]
	 Opposite-Spin Energy      =      -1.4732640218533148 [Eh]
	 Correlation Energy        =      -1.9246477774350357 [Eh]
	 Total Energy              =    -441.0321659882990843 [Eh]

	 ================> DF-SCS-MP2 Energies <==================
	-----------------------------------------------------------
	 SCS Same-Spin Scale       =       0.3333333333333333 [-]
	 SCS Opposite-Spin Scale   =       1.2000000000000000 [-]
	 SCS Same-Spin Energy      =      -0.1504612518605736 [Eh]
	 SCS Opposite-Spin Energy  =      -1.7679168262239777 [Eh]
	 SCS Correlation Energy    =      -1.9183780780845514 [Eh]
	 SCS Total Energy          =    -441.0258962889486156 [Eh]
	-----------------------------------------------------------

  Dipole Moment: [D]
     X:     2.5185      Y:     1.0979      Z:     0.7428     Total:     2.8460

*** Psi4 exiting successfully. Buy a developer a beer!
