                               Psi4 1.4a3.dev225

  ==> Input File <==

--------------------------------------------------------------------------
#psi4
#
memory 32 gb

molecule  {
0 1
  O       -0.1447520     2.0657680    -0.9147710
  O       -2.4135200    -1.3721290    -0.1231600
  N        2.4623060    -1.2702550     0.0647480
  C        1.2743520    -0.4775570    -0.2805680
  C        1.2169020     0.7460590     0.6287670
  C        0.0292070    -1.3356180    -0.0781670
  C       -0.0652210     1.5501200     0.4236430
  C       -1.2565570    -0.5478520    -0.3033930
  C       -1.3010200     0.6792110     0.6017970
  H        1.2815110    -0.1258050    -1.3254330
  H        1.2829160     0.4071000     1.6706590
  H        2.0904420     1.3917410     0.4518040
  H        0.0420040    -2.2046970    -0.7480580
  H        0.0468530    -1.7199520     0.9526730
  H       -0.0971920     2.3821090     1.1446700
  H       -1.3133970    -0.2220240    -1.3458810
  H       -1.3538320     0.3483370     1.6492240
  H       -2.2017640     1.2636240     0.3898210
  H        3.3008500    -0.7206310    -0.1283000
  H        2.5136850    -2.0796090    -0.5553910
  H        0.4735277     2.5174972    -1.0238909
  H       -2.3814240    -1.6980050     0.7940470
units angstrom
no_reorient  #important for SAPT in psi4, default
symmetry c1  #important for SAPT in psi4, default
}

set PROPERTIES_ORIGIN ["COM"]
properties('MP2/aug-cc-pvtz', properties = ['dipole'])
--------------------------------------------------------------------------

    Molecular point group: c1
  Charge       = 0
  Multiplicity = 1
  Basis Set: AUG-CC-PVTZ
    Blend: AUG-CC-PVTZ
  Basis Set: (AUG-CC-PVTZ AUX)
    Blend: AUG-CC-PVTZ-JKFIT

    Orbital Energies [Eh]
    ---------------------

    Doubly Occupied:

       1A    -20.552218     2A    -20.539653     3A    -15.546676
       4A    -11.288147     5A    -11.272570     6A    -11.257424
       7A    -11.227155     8A    -11.220591     9A    -11.218317
      10A     -1.422373    11A     -1.351162    12A     -1.193541
      13A     -1.094813    14A     -1.001215    15A     -0.987951
      16A     -0.849260    17A     -0.824809    18A     -0.786881
      19A     -0.715387    20A     -0.683269    21A     -0.655853
      22A     -0.643935    23A     -0.629052    24A     -0.613382
      25A     -0.596980    26A     -0.565908    27A     -0.551369
      28A     -0.532630    29A     -0.529628    30A     -0.505338
      31A     -0.492460    32A     -0.476775    33A     -0.457667
      34A     -0.445723    35A     -0.421639    36A     -0.396467

  @DF-RHF Final Energy:  -439.06387584640407

   => Energetics <=

    Nuclear Repulsion Energy =            508.4000885687233335
    One-Electron Energy =               -1607.8314871053339630
    Two-Electron Energy =                 660.3675226902066697
    Total Energy =                       -439.0638758464040166
  Basis Set: (AUG-CC-PVTZ AUX)
    Blend: AUG-CC-PVTZ-RI
    Molecular point group: c1

    Geometry (in Angstrom), charge = 0, multiplicity = 1:

       Center              X                  Y                   Z               Mass
    ------------   -----------------  -----------------  -----------------  -----------------
         O           -0.114586579879     2.064122920897    -0.900666806452    15.994914619570
         O           -2.383354579879    -1.373774079103    -0.109055806452    15.994914619570
         N            2.492471420121    -1.271900079103     0.078852193548    14.003074004430
         C            1.304517420121    -0.479202079103    -0.266463806452    12.000000000000
         C            1.247067420121     0.744413920897     0.642871193548    12.000000000000
         C            0.059372420121    -1.337263079103    -0.064062806452    12.000000000000
         C           -0.035055579879     1.548474920897     0.437747193548    12.000000000000
         C           -1.226391579879    -0.549497079103    -0.289288806452    12.000000000000
         C           -1.270854579879     0.677565920897     0.615901193548    12.000000000000
         H            1.311676420121    -0.127450079103    -1.311328806452     1.007825032230
         H            1.313081420121     0.405454920897     1.684763193548     1.007825032230
         H            2.120607420121     1.390095920897     0.465908193548     1.007825032230
         H            0.072169420121    -2.206342079103    -0.733953806452     1.007825032230
         H            0.077018420121    -1.721597079103     0.966777193548     1.007825032230
         H           -0.067026579879     2.380463920897     1.158774193548     1.007825032230
         H           -1.283231579879    -0.223669079103    -1.331776806452     1.007825032230
         H           -1.323666579879     0.346691920897     1.663328193548     1.007825032230
         H           -2.171598579879     1.261978920897     0.403925193548     1.007825032230
         H            3.331015420121    -0.722276079103    -0.114195806452     1.007825032230
         H            2.543850420121    -2.081254079103    -0.541286806452     1.007825032230
         H            0.503693120121     2.515852120897    -1.009786706452     1.007825032230
         H           -2.351258579879    -1.699650079103     0.808151193548     1.007825032230

  Basis Set: AUG-CC-PVTZ
    Blend: AUG-CC-PVTZ
  Basis Set: (AUG-CC-PVTZ AUX)
    Blend: AUG-CC-PVTZ-JKFIT
	 Reference Energy          =    -439.0638758464040734 [Eh]
	 Singles Energy            =      -0.0000000000000000 [Eh]
	 Same-Spin Energy          =      -0.4490985739719380 [Eh]
	 Opposite-Spin Energy      =      -1.4674851560651345 [Eh]
	 Correlation Energy        =      -1.9165837300370725 [Eh]
	 Total Energy              =    -440.9804595764411488 [Eh]

	 ================> DF-SCS-MP2 Energies <==================
	-----------------------------------------------------------
	 SCS Same-Spin Scale       =       0.3333333333333333 [-]
	 SCS Opposite-Spin Scale   =       1.2000000000000000 [-]
	 SCS Same-Spin Energy      =      -0.1496995246573126 [Eh]
	 SCS Opposite-Spin Energy  =      -1.7609821872781615 [Eh]
	 SCS Correlation Energy    =      -1.9106817119354742 [Eh]
	 SCS Total Energy          =    -440.9745575583395407 [Eh]
	-----------------------------------------------------------

  Dipole Moment: [D]
     X:     2.4498      Y:     1.0120      Z:     0.8143     Total:     2.7728

*** Psi4 exiting successfully. Buy a developer a beer!
