                               Psi4 1.4a3.dev225

  ==> Input File <==

--------------------------------------------------------------------------
#psi4
#
memory 32 gb

molecule  {
0 1
  O       -0.1447520     2.0657680    -0.9147710
  O       -2.4135200    -1.3721290    -0.1231600
  N        2.4623060    -1.2702550     0.0647480
  C        1.2743520    -0.4775570    -0.2805680
  C        1.2169020     0.7460590     0.6287670
  C        0.0292070    -1.3356180    -0.0781670
  C       -0.0652210     1.5501200     0.4236430
  C       -1.2565570    -0.5478520    -0.3033930
  C       -1.3010200     0.6792110     0.6017970
  H        1.2815110    -0.1258050    -1.3254330
  H        1.2829160     0.4071000     1.6706590
  H        2.0904420     1.3917410     0.4518040
  H        0.0420040    -2.2046970    -0.7480580
  H        0.0468530    -1.7199520     0.9526730
  H       -0.0971920     2.3821090     1.1446700
  H       -1.3133970    -0.2220240    -1.3458810
  H       -1.3538320     0.3483370     1.6492240
  H       -2.2017640     1.2636240     0.3898210
  H        3.3008500    -0.7206310    -0.1283000
  H        2.5162013    -2.1192477    -0.5857627
  H        0.6334020     2.6343050    -1.0521070
  H       -2.3814240    -1.6980050     0.7940470
units angstrom
no_reorient  #important for SAPT in psi4, default
symmetry c1  #important for SAPT in psi4, default
}

set PROPERTIES_ORIGIN ["COM"]
properties('MP2/aug-cc-pvtz', properties = ['dipole'])
--------------------------------------------------------------------------

    Molecular point group: c1
  Charge       = 0
  Multiplicity = 1
  Basis Set: AUG-CC-PVTZ
    Blend: AUG-CC-PVTZ
  Basis Set: (AUG-CC-PVTZ AUX)
    Blend: AUG-CC-PVTZ-JKFIT

    Orbital Energies [Eh]
    ---------------------

    Doubly Occupied:

       1A    -20.561967     2A    -20.551617     3A    -15.551558
       4A    -11.286115     5A    -11.271884     6A    -11.256610
       7A    -11.226096     8A    -11.219901     9A    -11.217548
      10A     -1.362746    11A     -1.350078    12A     -1.187811
      13A     -1.085799    14A     -0.996109    15A     -0.984275
      16A     -0.840269    17A     -0.822108    18A     -0.769489
      19A     -0.696056    20A     -0.677523    21A     -0.649225
      22A     -0.640030    23A     -0.625425    24A     -0.611683
      25A     -0.590921    26A     -0.562478    27A     -0.547152
      28A     -0.530422    29A     -0.526643    30A     -0.499869
      31A     -0.490333    32A     -0.475427    33A     -0.453663
      34A     -0.443963    35A     -0.420294    36A     -0.394904

  @DF-RHF Final Energy:  -439.10600521354968

   => Energetics <=

    Nuclear Repulsion Energy =            506.6265989387399031
    One-Electron Energy =               -1604.7092309105446475
    Two-Electron Energy =                 658.9766267582551791
    Total Energy =                       -439.1060052135496790
  Basis Set: (AUG-CC-PVTZ AUX)
    Blend: AUG-CC-PVTZ-RI
    Molecular point group: c1

    Geometry (in Angstrom), charge = 0, multiplicity = 1:

       Center              X                  Y                   Z               Mass
    ------------   -----------------  -----------------  -----------------  -----------------
         O           -0.115835001064     2.063529662794    -0.900216397065    15.994914619570
         O           -2.384603001064    -1.374367337206    -0.108605397065    15.994914619570
         N            2.491222998936    -1.272493337206     0.079302602935    14.003074004430
         C            1.303268998936    -0.479795337206    -0.266013397065    12.000000000000
         C            1.245818998936     0.743820662794     0.643321602935    12.000000000000
         C            0.058123998936    -1.337856337206    -0.063612397065    12.000000000000
         C           -0.036304001064     1.547881662794     0.438197602935    12.000000000000
         C           -1.227640001064    -0.550090337206    -0.288838397065    12.000000000000
         C           -1.272103001064     0.676972662794     0.616351602935    12.000000000000
         H            1.310427998936    -0.128043337206    -1.310878397065     1.007825032230
         H            1.311832998936     0.404861662794     1.685213602935     1.007825032230
         H            2.119358998936     1.389502662794     0.466358602935     1.007825032230
         H            0.070920998936    -2.206935337206    -0.733503397065     1.007825032230
         H            0.075769998936    -1.722190337206     0.967227602935     1.007825032230
         H           -0.068275001064     2.379870662794     1.159224602935     1.007825032230
         H           -1.284480001064    -0.224262337206    -1.331326397065     1.007825032230
         H           -1.324915001064     0.346098662794     1.663778602935     1.007825032230
         H           -2.172847001064     1.261385662794     0.404375602935     1.007825032230
         H            3.329766998936    -0.722869337206    -0.113745397065     1.007825032230
         H            2.545118298936    -2.121486037206    -0.571208097065     1.007825032230
         H            0.662318998936     2.632066662794    -1.037552397065     1.007825032230
         H           -2.352507001064    -1.700243337206     0.808601602935     1.007825032230

  Basis Set: AUG-CC-PVTZ
    Blend: AUG-CC-PVTZ
  Basis Set: (AUG-CC-PVTZ AUX)
    Blend: AUG-CC-PVTZ-JKFIT
	 Reference Energy          =    -439.1060052135496790 [Eh]
	 Singles Energy            =      -0.0000000000000000 [Eh]
	 Same-Spin Energy          =      -0.4517820802284647 [Eh]
	 Opposite-Spin Energy      =      -1.4741996407449183 [Eh]
	 Correlation Energy        =      -1.9259817209733829 [Eh]
	 Total Energy              =    -441.0319869345230472 [Eh]

	 ================> DF-SCS-MP2 Energies <==================
	-----------------------------------------------------------
	 SCS Same-Spin Scale       =       0.3333333333333333 [-]
	 SCS Opposite-Spin Scale   =       1.2000000000000000 [-]
	 SCS Same-Spin Energy      =      -0.1505940267428215 [Eh]
	 SCS Opposite-Spin Energy  =      -1.7690395688939018 [Eh]
	 SCS Correlation Energy    =      -1.9196335956367234 [Eh]
	 SCS Total Energy          =    -441.0256388091863755 [Eh]
	-----------------------------------------------------------

  Dipole Moment: [D]
     X:     2.5281      Y:     1.1279      Z:     0.7456     Total:     2.8670

*** Psi4 exiting successfully. Buy a developer a beer!
