                               Psi4 1.4a3.dev225

  ==> Input File <==

--------------------------------------------------------------------------
#psi4
#
memory 32 gb

molecule  {
0 1
  O       -0.1447520     2.0657680    -0.9147710
  O       -2.4135200    -1.3721290    -0.1231600
  N        2.4623060    -1.2702550     0.0647480
  C        1.2743520    -0.4775570    -0.2805680
  C        1.2169020     0.7460590     0.6287670
  C       -0.0115999    -1.3637391    -0.0715337
  C       -0.0652210     1.5501200     0.4236430
  C       -1.2565570    -0.5478520    -0.3033930
  C       -1.3010200     0.6792110     0.6017970
  H        1.2815110    -0.1258050    -1.3254330
  H        1.2829160     0.4071000     1.6706590
  H        2.0904420     1.3917410     0.4518040
  H        0.0420040    -2.2046970    -0.7480580
  H        0.0468530    -1.7199520     0.9526730
  H       -0.0971920     2.3821090     1.1446700
  H       -1.3133970    -0.2220240    -1.3458810
  H       -1.3538320     0.3483370     1.6492240
  H       -2.2017640     1.2636240     0.3898210
  H        3.3008500    -0.7206310    -0.1283000
  H        2.5136850    -2.0796090    -0.5553910
  H        0.6334020     2.6343050    -1.0521070
  H       -2.3814240    -1.6980050     0.7940470
units angstrom
no_reorient  #important for SAPT in psi4, default
symmetry c1  #important for SAPT in psi4, default
}

set PROPERTIES_ORIGIN ["COM"]
properties('MP2/aug-cc-pvtz', properties = ['dipole'])
--------------------------------------------------------------------------

    Molecular point group: c1
  Charge       = 0
  Multiplicity = 1
  Basis Set: AUG-CC-PVTZ
    Blend: AUG-CC-PVTZ
  Basis Set: (AUG-CC-PVTZ AUX)
    Blend: AUG-CC-PVTZ-JKFIT

    Orbital Energies [Eh]
    ---------------------

    Doubly Occupied:

       1A    -20.561809     2A    -20.549509     3A    -15.546038
       4A    -11.285846     5A    -11.270808     6A    -11.258263
       7A    -11.225617     8A    -11.220334     9A    -11.216466
      10A     -1.362561    11A     -1.349633    12A     -1.189734
      13A     -1.086601    14A     -0.997237    15A     -0.983315
      16A     -0.840464    17A     -0.822436    18A     -0.769852
      19A     -0.695279    20A     -0.677393    21A     -0.654141
      22A     -0.642225    23A     -0.625832    24A     -0.612073
      25A     -0.593020    26A     -0.562119    27A     -0.549190
      28A     -0.531258    29A     -0.528070    30A     -0.498777
      31A     -0.492930    32A     -0.473952    33A     -0.453062
      34A     -0.440165    35A     -0.422216    36A     -0.394091

  @DF-RHF Final Energy:  -439.10779161857556

   => Energetics <=

    Nuclear Repulsion Energy =            506.4507139110787080
    One-Electron Energy =               -1604.3523707867730081
    Two-Electron Energy =                 658.7938652571186822
    Total Energy =                       -439.1077916185755612
  Basis Set: (AUG-CC-PVTZ AUX)
    Blend: AUG-CC-PVTZ-RI
    Molecular point group: c1

    Geometry (in Angstrom), charge = 0, multiplicity = 1:

       Center              X                  Y                   Z               Mass
    ------------   -----------------  -----------------  -----------------  -----------------
         O           -0.112080317938     2.065799048877    -0.901057079560    15.994914619570
         O           -2.380848317938    -1.372097951123    -0.109446079560    15.994914619570
         N            2.494977682062    -1.270223951123     0.078461920440    14.003074004430
         C            1.307023682062    -0.477525951123    -0.266854079560    12.000000000000
         C            1.249573682062     0.746090048877     0.642480920440    12.000000000000
         C            0.021071782062    -1.363708051123    -0.057819779560    12.000000000000
         C           -0.032549317938     1.550151048877     0.437356920440    12.000000000000
         C           -1.223885317938    -0.547820951123    -0.289679079560    12.000000000000
         C           -1.268348317938     0.679242048877     0.615510920440    12.000000000000
         H            1.314182682062    -0.125773951123    -1.311719079560     1.007825032230
         H            1.315587682062     0.407131048877     1.684372920440     1.007825032230
         H            2.123113682062     1.391772048877     0.465517920440     1.007825032230
         H            0.074675682062    -2.204665951123    -0.734344079560     1.007825032230
         H            0.079524682062    -1.719920951123     0.966386920440     1.007825032230
         H           -0.064520317938     2.382140048877     1.158383920440     1.007825032230
         H           -1.280725317938    -0.221992951123    -1.332167079560     1.007825032230
         H           -1.321160317938     0.348368048877     1.662937920440     1.007825032230
         H           -2.169092317938     1.263655048877     0.403534920440     1.007825032230
         H            3.333521682062    -0.720599951123    -0.114586079560     1.007825032230
         H            2.546356682062    -2.079577951123    -0.541677079560     1.007825032230
         H            0.666073682062     2.634336048877    -1.038393079560     1.007825032230
         H           -2.348752317938    -1.697973951123     0.807760920440     1.007825032230

  Basis Set: AUG-CC-PVTZ
    Blend: AUG-CC-PVTZ
  Basis Set: (AUG-CC-PVTZ AUX)
    Blend: AUG-CC-PVTZ-JKFIT
	 Reference Energy          =    -439.1077916185755612 [Eh]
	 Singles Energy            =      -0.0000000000000000 [Eh]
	 Same-Spin Energy          =      -0.4513253728449136 [Eh]
	 Opposite-Spin Energy      =      -1.4731389080618085 [Eh]
	 Correlation Energy        =      -1.9244642809067221 [Eh]
	 Total Energy              =    -441.0322558994822657 [Eh]

	 ================> DF-SCS-MP2 Energies <==================
	-----------------------------------------------------------
	 SCS Same-Spin Scale       =       0.3333333333333333 [-]
	 SCS Opposite-Spin Scale   =       1.2000000000000000 [-]
	 SCS Same-Spin Energy      =      -0.1504417909483045 [Eh]
	 SCS Opposite-Spin Energy  =      -1.7677666896741702 [Eh]
	 SCS Correlation Energy    =      -1.9182084806224746 [Eh]
	 SCS Total Energy          =    -441.0260000991980291 [Eh]
	-----------------------------------------------------------

  Dipole Moment: [D]
     X:     2.5665      Y:     1.1250      Z:     0.7435     Total:     2.8992

*** Psi4 exiting successfully. Buy a developer a beer!
