                               Psi4 1.4a3.dev225

  ==> Input File <==

--------------------------------------------------------------------------
#psi4
#
memory 32 gb

molecule  {
0 1
  O       -0.1447520     2.0657680    -0.9147710
  O       -2.4135200    -1.3721290    -0.1231600
  N        2.4623060    -1.2702550     0.0647480
  C        1.2743520    -0.4775570    -0.2805680
  C        1.2169020     0.7460590     0.6287670
  C        0.0292070    -1.3356180    -0.0781670
  C       -0.0652210     1.5501200     0.4236430
  C       -1.2565570    -0.5478520    -0.3033930
  C       -1.3010200     0.6792110     0.6017970
  H        1.2815110    -0.1258050    -1.3254330
  H        1.2829160     0.4071000     1.6706590
  H        2.0904420     1.3917410     0.4518040
  H        0.0420040    -2.2046970    -0.7480580
  H        0.0468530    -1.7199520     0.9526730
  H       -0.0971920     2.3821090     1.1446700
  H       -1.3133970    -0.2220240    -1.3458810
  H       -1.3538320     0.3483370     1.6492240
  H       -2.2017640     1.2636240     0.3898210
  H        3.3008500    -0.7206310    -0.1283000
  H        2.5136850    -2.0796090    -0.5553910
  H        0.6334020     2.6343050    -1.0521070
  H       -2.3797762    -1.7147354     0.8411361
units angstrom
no_reorient  #important for SAPT in psi4, default
symmetry c1  #important for SAPT in psi4, default
}

set PROPERTIES_ORIGIN ["COM"]
properties('MP2/aug-cc-pvtz', properties = ['dipole'])
--------------------------------------------------------------------------

    Molecular point group: c1
  Charge       = 0
  Multiplicity = 1
  Basis Set: AUG-CC-PVTZ
    Blend: AUG-CC-PVTZ
  Basis Set: (AUG-CC-PVTZ AUX)
    Blend: AUG-CC-PVTZ-JKFIT

    Orbital Energies [Eh]
    ---------------------

    Doubly Occupied:

       1A    -20.561765     2A    -20.556204     3A    -15.545947
       4A    -11.285742     5A    -11.271666     6A    -11.256303
       7A    -11.225691     8A    -11.219619     9A    -11.217436
      10A     -1.362337    11A     -1.340475    12A     -1.192145
      13A     -1.086486    14A     -0.995069    15A     -0.985516
      16A     -0.838491    17A     -0.821845    18A     -0.768429
      19A     -0.693765    20A     -0.676049    21A     -0.654473
      22A     -0.641389    23A     -0.625246    24A     -0.606396
      25A     -0.591451    26A     -0.562972    27A     -0.548126
      28A     -0.528955    29A     -0.526570    30A     -0.499485
      31A     -0.490082    32A     -0.475388    33A     -0.453234
      34A     -0.443322    35A     -0.419810    36A     -0.395270

  @DF-RHF Final Energy:  -439.10436117992731

   => Energetics <=

    Nuclear Repulsion Energy =            506.6049504007511359
    One-Electron Energy =               -1604.6923243898327200
    Two-Electron Energy =                 658.9830128091543884
    Total Energy =                       -439.1043611799273094
  Basis Set: (AUG-CC-PVTZ AUX)
    Blend: AUG-CC-PVTZ-RI
    Molecular point group: c1

    Geometry (in Angstrom), charge = 0, multiplicity = 1:

       Center              X                  Y                   Z               Mass
    ------------   -----------------  -----------------  -----------------  -----------------
         O           -0.115828324238     2.063353549109    -0.900811897689    15.994914619570
         O           -2.384596324238    -1.374543450891    -0.109200897689    15.994914619570
         N            2.491229675762    -1.272669450891     0.078707102311    14.003074004430
         C            1.303275675762    -0.479971450891    -0.266608897689    12.000000000000
         C            1.245825675762     0.743644549109     0.642726102311    12.000000000000
         C            0.058130675762    -1.338032450891    -0.064207897689    12.000000000000
         C           -0.036297324238     1.547705549109     0.437602102311    12.000000000000
         C           -1.227633324238    -0.550266450891    -0.289433897689    12.000000000000
         C           -1.272096324238     0.676796549109     0.615756102311    12.000000000000
         H            1.310434675762    -0.128219450891    -1.311473897689     1.007825032230
         H            1.311839675762     0.404685549109     1.684618102311     1.007825032230
         H            2.119365675762     1.389326549109     0.465763102311     1.007825032230
         H            0.070927675762    -2.207111450891    -0.734098897689     1.007825032230
         H            0.075776675762    -1.722366450891     0.966632102311     1.007825032230
         H           -0.068268324238     2.379694549109     1.158629102311     1.007825032230
         H           -1.284473324238    -0.224438450891    -1.331921897689     1.007825032230
         H           -1.324908324238     0.345922549109     1.663183102311     1.007825032230
         H           -2.172840324238     1.261209549109     0.403780102311     1.007825032230
         H            3.329773675762    -0.723045450891    -0.114340897689     1.007825032230
         H            2.542608675762    -2.082023450891    -0.541431897689     1.007825032230
         H            0.662325675762     2.631890549109    -1.038147897689     1.007825032230
         H           -2.350852524238    -1.717149850891     0.855095202311     1.007825032230

  Basis Set: AUG-CC-PVTZ
    Blend: AUG-CC-PVTZ
  Basis Set: (AUG-CC-PVTZ AUX)
    Blend: AUG-CC-PVTZ-JKFIT
	 Reference Energy          =    -439.1043611799273094 [Eh]
	 Singles Energy            =      -0.0000000000000000 [Eh]
	 Same-Spin Energy          =      -0.4521009100347031 [Eh]
	 Opposite-Spin Energy      =      -1.4748830710880387 [Eh]
	 Correlation Energy        =      -1.9269839811227418 [Eh]
	 Total Energy              =    -441.0313451610500692 [Eh]

	 ================> DF-SCS-MP2 Energies <==================
	-----------------------------------------------------------
	 SCS Same-Spin Scale       =       0.3333333333333333 [-]
	 SCS Opposite-Spin Scale   =       1.2000000000000000 [-]
	 SCS Same-Spin Energy      =      -0.1507003033449010 [Eh]
	 SCS Opposite-Spin Energy  =      -1.7698596853056465 [Eh]
	 SCS Correlation Energy    =      -1.9205599886505476 [Eh]
	 SCS Total Energy          =    -441.0249211685778619 [Eh]
	-----------------------------------------------------------

  Dipole Moment: [D]
     X:     2.5277      Y:     1.1126      Z:     0.7677     Total:     2.8665

*** Psi4 exiting successfully. Buy a developer a beer!
