                               Psi4 1.4a3.dev225

  ==> Input File <==

--------------------------------------------------------------------------
#psi4
#
memory 32 gb

molecule  {
0 1
  O       -0.1447520     2.0657680    -0.9147710
  O       -2.4135200    -1.3721290    -0.1231600
  N        2.4623060    -1.2702550     0.0647480
  C        1.2743520    -0.4775570    -0.2805680
  C        1.2169020     0.7460590     0.6287670
  C        0.0292070    -1.3356180    -0.0781670
  C       -0.0652210     1.5501200     0.4236430
  C       -1.2565570    -0.5478520    -0.3033930
  C       -1.3010200     0.6792110     0.6017970
  H        1.2813811    -0.1321859    -1.3064787
  H        1.2829160     0.4071000     1.6706590
  H        2.0904420     1.3917410     0.4518040
  H        0.0420040    -2.2046970    -0.7480580
  H        0.0468530    -1.7199520     0.9526730
  H       -0.0971920     2.3821090     1.1446700
  H       -1.3133970    -0.2220240    -1.3458810
  H       -1.3538320     0.3483370     1.6492240
  H       -2.2017640     1.2636240     0.3898210
  H        3.3008500    -0.7206310    -0.1283000
  H        2.5136850    -2.0796090    -0.5553910
  H        0.6334020     2.6343050    -1.0521070
  H       -2.3814240    -1.6980050     0.7940470
units angstrom
no_reorient  #important for SAPT in psi4, default
symmetry c1  #important for SAPT in psi4, default
}

set PROPERTIES_ORIGIN ["COM"]
properties('MP2/aug-cc-pvtz', properties = ['dipole'])
--------------------------------------------------------------------------

    Molecular point group: c1
  Charge       = 0
  Multiplicity = 1
  Basis Set: AUG-CC-PVTZ
    Blend: AUG-CC-PVTZ
  Basis Set: (AUG-CC-PVTZ AUX)
    Blend: AUG-CC-PVTZ-JKFIT

    Orbital Energies [Eh]
    ---------------------

    Doubly Occupied:

       1A    -20.562006     2A    -20.551615     3A    -15.545765
       4A    -11.285910     5A    -11.271928     6A    -11.254006
       7A    -11.225610     8A    -11.219846     9A    -11.217463
      10A     -1.362758    11A     -1.350080    12A     -1.192479
      13A     -1.087332    14A     -0.995999    15A     -0.986249
      16A     -0.840326    17A     -0.824299    18A     -0.770726
      19A     -0.696205    20A     -0.678923    21A     -0.654786
      22A     -0.641923    23A     -0.625784    24A     -0.611670
      25A     -0.592418    26A     -0.563614    27A     -0.548748
      28A     -0.530339    29A     -0.526771    30A     -0.500086
      31A     -0.490757    32A     -0.475792    33A     -0.453590
      34A     -0.444033    35A     -0.420380    36A     -0.396127

  @DF-RHF Final Energy:  -439.10963436206026

   => Energetics <=

    Nuclear Repulsion Energy =            506.9877701655178726
    One-Electron Energy =               -1605.4021239147591587
    Two-Electron Energy =                 659.3047193871810805
    Total Energy =                       -439.1096343620603193
  Basis Set: (AUG-CC-PVTZ AUX)
    Blend: AUG-CC-PVTZ-RI
    Molecular point group: c1

    Geometry (in Angstrom), charge = 0, multiplicity = 1:

       Center              X                  Y                   Z               Mass
    ------------   -----------------  -----------------  -----------------  -----------------
         O           -0.115814657694     2.063273984558    -0.900595603887    15.994914619570
         O           -2.384582657694    -1.374623015442    -0.108984603887    15.994914619570
         N            2.491243342306    -1.272749015442     0.078923396113    14.003074004430
         C            1.303289342306    -0.480051015442    -0.266392603887    12.000000000000
         C            1.245839342306     0.743564984558     0.642942396113    12.000000000000
         C            0.058144342306    -1.338112015442    -0.063991603887    12.000000000000
         C           -0.036283657694     1.547625984558     0.437818396113    12.000000000000
         C           -1.227619657694    -0.550346015442    -0.289217603887    12.000000000000
         C           -1.272082657694     0.676716984558     0.615972396113    12.000000000000
         H            1.310318442306    -0.134679915442    -1.292303303887     1.007825032230
         H            1.311853342306     0.404605984558     1.684834396113     1.007825032230
         H            2.119379342306     1.389246984558     0.465979396113     1.007825032230
         H            0.070941342306    -2.207191015442    -0.733882603887     1.007825032230
         H            0.075790342306    -1.722446015442     0.966848396113     1.007825032230
         H           -0.068254657694     2.379614984558     1.158845396113     1.007825032230
         H           -1.284459657694    -0.224518015442    -1.331705603887     1.007825032230
         H           -1.324894657694     0.345842984558     1.663399396113     1.007825032230
         H           -2.172826657694     1.261129984558     0.403996396113     1.007825032230
         H            3.329787342306    -0.723125015442    -0.114124603887     1.007825032230
         H            2.542622342306    -2.082103015442    -0.541215603887     1.007825032230
         H            0.662339342306     2.631810984558    -1.037931603887     1.007825032230
         H           -2.352486657694    -1.700499015442     0.808222396113     1.007825032230

  Basis Set: AUG-CC-PVTZ
    Blend: AUG-CC-PVTZ
  Basis Set: (AUG-CC-PVTZ AUX)
    Blend: AUG-CC-PVTZ-JKFIT
	 Reference Energy          =    -439.1096343620602624 [Eh]
	 Singles Energy            =      -0.0000000000000000 [Eh]
	 Same-Spin Energy          =      -0.4514859774250440 [Eh]
	 Opposite-Spin Energy      =      -1.4731260086506777 [Eh]
	 Correlation Energy        =      -1.9246119860757216 [Eh]
	 Total Energy              =    -441.0342463481359800 [Eh]

	 ================> DF-SCS-MP2 Energies <==================
	-----------------------------------------------------------
	 SCS Same-Spin Scale       =       0.3333333333333333 [-]
	 SCS Opposite-Spin Scale   =       1.2000000000000000 [-]
	 SCS Same-Spin Energy      =      -0.1504953258083480 [Eh]
	 SCS Opposite-Spin Energy  =      -1.7677512103808131 [Eh]
	 SCS Correlation Energy    =      -1.9182465361891610 [Eh]
	 SCS Total Energy          =    -441.0278808982494070 [Eh]
	-----------------------------------------------------------

  Dipole Moment: [D]
     X:     2.5337      Y:     1.1340      Z:     0.7321     Total:     2.8709

*** Psi4 exiting successfully. Buy a developer a beer!
