                               Psi4 1.4a3.dev225

  ==> Input File <==

--------------------------------------------------------------------------
#psi4
#
memory 32 gb

molecule  {
0 1
  O       -0.1447520     2.0657680    -0.9147710
  O       -2.4135200    -1.3721290    -0.1231600
  N        2.4623060    -1.2702550     0.0647480
  C        1.2743520    -0.4775570    -0.2805680
  C        1.2169020     0.7460590     0.6287670
  C        0.0700139    -1.3074969    -0.0848003
  C       -0.0652210     1.5501200     0.4236430
  C       -1.2565570    -0.5478520    -0.3033930
  C       -1.3010200     0.6792110     0.6017970
  H        1.2815110    -0.1258050    -1.3254330
  H        1.2829160     0.4071000     1.6706590
  H        2.0904420     1.3917410     0.4518040
  H        0.0420040    -2.2046970    -0.7480580
  H        0.0468530    -1.7199520     0.9526730
  H       -0.0971920     2.3821090     1.1446700
  H       -1.3133970    -0.2220240    -1.3458810
  H       -1.3538320     0.3483370     1.6492240
  H       -2.2017640     1.2636240     0.3898210
  H        3.3008500    -0.7206310    -0.1283000
  H        2.5136850    -2.0796090    -0.5553910
  H        0.6334020     2.6343050    -1.0521070
  H       -2.3814240    -1.6980050     0.7940470
units angstrom
no_reorient  #important for SAPT in psi4, default
symmetry c1  #important for SAPT in psi4, default
}

set PROPERTIES_ORIGIN ["COM"]
properties('MP2/aug-cc-pvtz', properties = ['dipole'])
--------------------------------------------------------------------------

    Molecular point group: c1
  Charge       = 0
  Multiplicity = 1
  Basis Set: AUG-CC-PVTZ
    Blend: AUG-CC-PVTZ
  Basis Set: (AUG-CC-PVTZ AUX)
    Blend: AUG-CC-PVTZ-JKFIT

    Orbital Energies [Eh]
    ---------------------

    Doubly Occupied:

       1A    -20.561984     2A    -20.553853     3A    -15.546094
       4A    -11.286044     5A    -11.273327     6A    -11.254348
       7A    -11.226101     8A    -11.219455     9A    -11.219414
      10A     -1.362802    11A     -1.350766    12A     -1.195445
      13A     -1.088265    14A     -0.995691    15A     -0.988481
      16A     -0.841229    17A     -0.823239    18A     -0.769225
      19A     -0.696940    20A     -0.678975    21A     -0.655540
      22A     -0.641247    23A     -0.625950    24A     -0.611252
      25A     -0.591392    26A     -0.566032    27A     -0.548396
      28A     -0.529898    29A     -0.525092    30A     -0.501709
      31A     -0.486849    32A     -0.479159    33A     -0.454142
      34A     -0.444454    35A     -0.417958    36A     -0.396190

  @DF-RHF Final Energy:  -439.10622704705884

   => Energetics <=

    Nuclear Repulsion Energy =            507.3395702948475900
    One-Electron Energy =               -1606.0777217306695093
    Two-Electron Energy =                 659.6319243887630819
    Total Energy =                       -439.1062270470588373
  Basis Set: (AUG-CC-PVTZ AUX)
    Blend: AUG-CC-PVTZ-RI
    Molecular point group: c1

    Geometry (in Angstrom), charge = 0, multiplicity = 1:

       Center              X                  Y                   Z               Mass
    ------------   -----------------  -----------------  -----------------  -----------------
         O           -0.119550994731     2.060650810487    -0.899842695709    15.994914619570
         O           -2.388318994731    -1.377246189513    -0.108231695709    15.994914619570
         N            2.487507005269    -1.275372189513     0.079676304291    14.003074004430
         C            1.299553005269    -0.482674189513    -0.265639695709    12.000000000000
         C            1.242103005269     0.740941810487     0.643695304291    12.000000000000
         C            0.095214905269    -1.312614089513    -0.069871995709    12.000000000000
         C           -0.040019994731     1.545002810487     0.438571304291    12.000000000000
         C           -1.231355994731    -0.552969189513    -0.288464695709    12.000000000000
         C           -1.275818994731     0.674093810487     0.616725304291    12.000000000000
         H            1.306712005269    -0.130922189513    -1.310504695709     1.007825032230
         H            1.308117005269     0.401982810487     1.685587304291     1.007825032230
         H            2.115643005269     1.386623810487     0.466732304291     1.007825032230
         H            0.067205005269    -2.209814189513    -0.733129695709     1.007825032230
         H            0.072054005269    -1.725069189513     0.967601304291     1.007825032230
         H           -0.071990994731     2.376991810487     1.159598304291     1.007825032230
         H           -1.288195994731    -0.227141189513    -1.330952695709     1.007825032230
         H           -1.328630994731     0.343219810487     1.664152304291     1.007825032230
         H           -2.176562994731     1.258506810487     0.404749304291     1.007825032230
         H            3.326051005269    -0.725748189513    -0.113371695709     1.007825032230
         H            2.538886005269    -2.084726189513    -0.540462695709     1.007825032230
         H            0.658603005269     2.629187810487    -1.037178695709     1.007825032230
         H           -2.356222994731    -1.703122189513     0.808975304291     1.007825032230

  Basis Set: AUG-CC-PVTZ
    Blend: AUG-CC-PVTZ
  Basis Set: (AUG-CC-PVTZ AUX)
    Blend: AUG-CC-PVTZ-JKFIT
	 Reference Energy          =    -439.1062270470588373 [Eh]
	 Singles Energy            =      -0.0000000000000000 [Eh]
	 Same-Spin Energy          =      -0.4519451594032278 [Eh]
	 Opposite-Spin Energy      =      -1.4738243852393602 [Eh]
	 Correlation Energy        =      -1.9257695446425880 [Eh]
	 Total Energy              =    -441.0319965917014429 [Eh]

	 ================> DF-SCS-MP2 Energies <==================
	-----------------------------------------------------------
	 SCS Same-Spin Scale       =       0.3333333333333333 [-]
	 SCS Opposite-Spin Scale   =       1.2000000000000000 [-]
	 SCS Same-Spin Energy      =      -0.1506483864677426 [Eh]
	 SCS Opposite-Spin Energy  =      -1.7685892622872321 [Eh]
	 SCS Correlation Energy    =      -1.9192376487549747 [Eh]
	 SCS Total Energy          =    -441.0254646958138096 [Eh]
	-----------------------------------------------------------

  Dipole Moment: [D]
     X:     2.5061      Y:     1.1356      Z:     0.7461     Total:     2.8508

*** Psi4 exiting successfully. Buy a developer a beer!
