                               Psi4 1.4a3.dev225

  ==> Input File <==

--------------------------------------------------------------------------
#psi4
#
memory 32 gb

molecule  {
0 1
  O       -0.1447520     2.0657680    -0.9147710
  O       -2.4135200    -1.3721290    -0.1231600
  N        2.4623060    -1.2702550     0.0647480
  C        1.2743520    -0.4775570    -0.2805680
  C        1.2169020     0.7460590     0.6287670
  C        0.0292070    -1.3356180    -0.0781670
  C       -0.0652210     1.5501200     0.4236430
  C       -1.2565570    -0.5478520    -0.3033930
  C       -1.3010200     0.6792110     0.6017970
  H        1.2815110    -0.1258050    -1.3254330
  H        1.2829160     0.4071000     1.6706590
  H        2.0904420     1.3917410     0.4518040
  H        0.0396717    -2.0463036    -0.6259675
  H        0.0468530    -1.7199520     0.9526730
  H       -0.0971920     2.3821090     1.1446700
  H       -1.3133970    -0.2220240    -1.3458810
  H       -1.3538320     0.3483370     1.6492240
  H       -2.2017640     1.2636240     0.3898210
  H        3.3008500    -0.7206310    -0.1283000
  H        2.5136850    -2.0796090    -0.5553910
  H        0.6334020     2.6343050    -1.0521070
  H       -2.3814240    -1.6980050     0.7940470
units angstrom
no_reorient  #important for SAPT in psi4, default
symmetry c1  #important for SAPT in psi4, default
}

set PROPERTIES_ORIGIN ["COM"]
properties('MP2/aug-cc-pvtz', properties = ['dipole'])
--------------------------------------------------------------------------

    Molecular point group: c1
  Charge       = 0
  Multiplicity = 1
  Basis Set: AUG-CC-PVTZ
    Blend: AUG-CC-PVTZ
  Basis Set: (AUG-CC-PVTZ AUX)
    Blend: AUG-CC-PVTZ-JKFIT

    Orbital Energies [Eh]
    ---------------------

    Doubly Occupied:

       1A    -20.561144     2A    -20.551633     3A    -15.546289
       4A    -11.284938     5A    -11.270506     6A    -11.255192
       7A    -11.224514     8A    -11.218382     9A    -11.192696
      10A     -1.361915    11A     -1.350087    12A     -1.193095
      13A     -1.088209    14A     -1.008311    15A     -0.985995
      16A     -0.850556    17A     -0.824148    18A     -0.770252
      19A     -0.697071    20A     -0.680049    21A     -0.660890
      22A     -0.652980    23A     -0.625644    24A     -0.611104
      25A     -0.591843    26A     -0.567681    27A     -0.552901
      28A     -0.531283    29A     -0.526747    30A     -0.502330
      31A     -0.493656    32A     -0.475393    33A     -0.452980
      34A     -0.444003    35A     -0.420946    36A     -0.395381

  @DF-RHF Final Energy:  -439.07674870919180

   => Energetics <=

    Nuclear Repulsion Energy =            508.0946219622642843
    One-Electron Energy =               -1607.5012590184585406
    Two-Electron Energy =                 660.3298883470024521
    Total Energy =                       -439.0767487091918611
  Basis Set: (AUG-CC-PVTZ AUX)
    Blend: AUG-CC-PVTZ-RI
    Molecular point group: c1

    Geometry (in Angstrom), charge = 0, multiplicity = 1:

       Center              X                  Y                   Z               Mass
    ------------   -----------------  -----------------  -----------------  -----------------
         O           -0.115797726155     2.062007238042    -0.901388491018    15.994914619570
         O           -2.384565726155    -1.375889761958    -0.109777491018    15.994914619570
         N            2.491260273845    -1.274015761958     0.078130508982    14.003074004430
         C            1.303306273845    -0.481317761958    -0.267185491018    12.000000000000
         C            1.245856273845     0.742298238042     0.642149508982    12.000000000000
         C            0.058161273845    -1.339378761958    -0.064784491018    12.000000000000
         C           -0.036266726155     1.546359238042     0.437025508982    12.000000000000
         C           -1.227602726155    -0.551612761958    -0.290010491018    12.000000000000
         C           -1.272065726155     0.675450238042     0.615179508982    12.000000000000
         H            1.310465273845    -0.129565761958    -1.312050491018     1.007825032230
         H            1.311870273845     0.403339238042     1.684041508982     1.007825032230
         H            2.119396273845     1.387980238042     0.465186508982     1.007825032230
         H            0.068625973845    -2.050064361958    -0.612584991018     1.007825032230
         H            0.075807273845    -1.723712761958     0.966055508982     1.007825032230
         H           -0.068237726155     2.378348238042     1.158052508982     1.007825032230
         H           -1.284442726155    -0.225784761958    -1.332498491018     1.007825032230
         H           -1.324877726155     0.344576238042     1.662606508982     1.007825032230
         H           -2.172809726155     1.259863238042     0.403203508982     1.007825032230
         H            3.329804273845    -0.724391761958    -0.114917491018     1.007825032230
         H            2.542639273845    -2.083369761958    -0.542008491018     1.007825032230
         H            0.662356273845     2.630544238042    -1.038724491018     1.007825032230
         H           -2.352469726155    -1.701765761958     0.807429508982     1.007825032230

  Basis Set: AUG-CC-PVTZ
    Blend: AUG-CC-PVTZ
  Basis Set: (AUG-CC-PVTZ AUX)
    Blend: AUG-CC-PVTZ-JKFIT
	 Reference Energy          =    -439.0767487091918042 [Eh]
	 Singles Energy            =      -0.0000000000000000 [Eh]
	 Same-Spin Energy          =      -0.4514491673165420 [Eh]
	 Opposite-Spin Energy      =      -1.4725063302064694 [Eh]
	 Correlation Energy        =      -1.9239554975230113 [Eh]
	 Total Energy              =    -441.0007042067148291 [Eh]

	 ================> DF-SCS-MP2 Energies <==================
	-----------------------------------------------------------
	 SCS Same-Spin Scale       =       0.3333333333333333 [-]
	 SCS Opposite-Spin Scale   =       1.2000000000000000 [-]
	 SCS Same-Spin Energy      =      -0.1504830557721807 [Eh]
	 SCS Opposite-Spin Energy  =      -1.7670075962477632 [Eh]
	 SCS Correlation Energy    =      -1.9174906520199437 [Eh]
	 SCS Total Energy          =    -440.9942393612117257 [Eh]
	-----------------------------------------------------------

  Dipole Moment: [D]
     X:     2.5528      Y:     1.0244      Z:     0.7028     Total:     2.8390

*** Psi4 exiting successfully. Buy a developer a beer!
