                               Psi4 1.4a3.dev225

  ==> Input File <==

--------------------------------------------------------------------------
#psi4
#
memory 32 gb

molecule  {
0 1
  O       -0.1447520     2.0657680    -0.9147710
  O       -2.4135200    -1.3721290    -0.1231600
  N        2.4623060    -1.2702550     0.0647480
  C        1.2743520    -0.4775570    -0.2805680
  C        1.2169020     0.7460590     0.6287670
  C        0.0292070    -1.3356180    -0.0781670
  C       -0.0652210     1.5501200     0.4236430
  C       -1.2565570    -0.5478520    -0.3033930
  C       -1.3010200     0.6792110     0.6017970
  H        1.2815110    -0.1258050    -1.3254330
  H        1.2829160     0.4071000     1.6706590
  H        2.0904420     1.3917410     0.4518040
  H        0.0420040    -2.2046970    -0.7480580
  H        0.0468530    -1.7199520     0.9526730
  H       -0.0971920     2.3821090     1.1446700
  H       -1.3133970    -0.2220240    -1.3458810
  H       -1.3538320     0.3483370     1.6492240
  H       -2.2017640     1.2636240     0.3898210
  H        3.3008500    -0.7206310    -0.1283000
  H        2.5136850    -2.0796090    -0.5553910
  H        0.6334020     2.6343050    -1.0521070
  H       -2.3847196    -1.6645443     0.6998689
units angstrom
no_reorient  #important for SAPT in psi4, default
symmetry c1  #important for SAPT in psi4, default
}

set PROPERTIES_ORIGIN ["COM"]
properties('MP2/aug-cc-pvtz', properties = ['dipole'])
--------------------------------------------------------------------------

    Molecular point group: c1
  Charge       = 0
  Multiplicity = 1
  Basis Set: AUG-CC-PVTZ
    Blend: AUG-CC-PVTZ
  Basis Set: (AUG-CC-PVTZ AUX)
    Blend: AUG-CC-PVTZ-JKFIT

    Orbital Energies [Eh]
    ---------------------

    Doubly Occupied:

       1A    -20.562152     2A    -20.541192     3A    -15.546308
       4A    -11.286337     5A    -11.272653     6A    -11.256897
       7A    -11.226104     8A    -11.220401     9A    -11.218182
      10A     -1.376441    11A     -1.362096    12A     -1.192750
      13A     -1.089474    14A     -0.998643    15A     -0.986884
      16A     -0.846022    17A     -0.825749    18A     -0.772095
      19A     -0.702508    20A     -0.681198    21A     -0.655295
      22A     -0.642177    23A     -0.627341    24A     -0.620490
      25A     -0.593221    26A     -0.564510    27A     -0.550029
      28A     -0.533027    29A     -0.527104    30A     -0.500578
      31A     -0.490996    32A     -0.476664    33A     -0.454499
      34A     -0.445795    35A     -0.421669    36A     -0.395777

  @DF-RHF Final Energy:  -439.10464669392405

   => Energetics <=

    Nuclear Repulsion Energy =            507.5164483208918114
    One-Electron Energy =               -1606.3156728610852042
    Two-Electron Energy =                 659.6945778462693397
    Total Energy =                       -439.1046466939239963
  Basis Set: (AUG-CC-PVTZ AUX)
    Blend: AUG-CC-PVTZ-RI
    Molecular point group: c1

    Geometry (in Angstrom), charge = 0, multiplicity = 1:

       Center              X                  Y                   Z               Mass
    ------------   -----------------  -----------------  -----------------  -----------------
         O           -0.115790320528     2.062967691599    -0.899725868293    15.994914619570
         O           -2.384558320528    -1.374929308401    -0.108114868293    15.994914619570
         N            2.491267679472    -1.273055308401     0.079793131707    14.003074004430
         C            1.303313679472    -0.480357308401    -0.265522868293    12.000000000000
         C            1.245863679472     0.743258691599     0.643812131707    12.000000000000
         C            0.058168679472    -1.338418308401    -0.063121868293    12.000000000000
         C           -0.036259320528     1.547319691599     0.438688131707    12.000000000000
         C           -1.227595320528    -0.550652308401    -0.288347868293    12.000000000000
         C           -1.272058320528     0.676410691599     0.616842131707    12.000000000000
         H            1.310472679472    -0.128605308401    -1.310387868293     1.007825032230
         H            1.311877679472     0.404299691599     1.685704131707     1.007825032230
         H            2.119403679472     1.388940691599     0.466849131707     1.007825032230
         H            0.070965679472    -2.207497308401    -0.733012868293     1.007825032230
         H            0.075814679472    -1.722752308401     0.967718131707     1.007825032230
         H           -0.068230320528     2.379308691599     1.159715131707     1.007825032230
         H           -1.284435320528    -0.224824308401    -1.330835868293     1.007825032230
         H           -1.324870320528     0.345536691599     1.664269131707     1.007825032230
         H           -2.172802320528     1.260823691599     0.404866131707     1.007825032230
         H            3.329811679472    -0.723431308401    -0.113254868293     1.007825032230
         H            2.542646679472    -2.082409308401    -0.540345868293     1.007825032230
         H            0.662363679472     2.631504691599    -1.037061868293     1.007825032230
         H           -2.355757920528    -1.667344608401     0.714914031707     1.007825032230

  Basis Set: AUG-CC-PVTZ
    Blend: AUG-CC-PVTZ
  Basis Set: (AUG-CC-PVTZ AUX)
    Blend: AUG-CC-PVTZ-JKFIT
	 Reference Energy          =    -439.1046466939240531 [Eh]
	 Singles Energy            =      -0.0000000000000000 [Eh]
	 Same-Spin Energy          =      -0.4503081811789449 [Eh]
	 Opposite-Spin Energy      =      -1.4702763096115816 [Eh]
	 Correlation Energy        =      -1.9205844907905265 [Eh]
	 Total Energy              =    -441.0252311847145847 [Eh]

	 ================> DF-SCS-MP2 Energies <==================
	-----------------------------------------------------------
	 SCS Same-Spin Scale       =       0.3333333333333333 [-]
	 SCS Opposite-Spin Scale   =       1.2000000000000000 [-]
	 SCS Same-Spin Energy      =      -0.1501027270596483 [Eh]
	 SCS Opposite-Spin Energy  =      -1.7643315715338979 [Eh]
	 SCS Correlation Energy    =      -1.9144342985935461 [Eh]
	 SCS Total Energy          =    -441.0190809925176154 [Eh]
	-----------------------------------------------------------

  Dipole Moment: [D]
     X:     2.5634      Y:     1.1629      Z:     0.6947     Total:     2.8993

*** Psi4 exiting successfully. Buy a developer a beer!
