                               Psi4 1.4a3.dev225

  ==> Input File <==

--------------------------------------------------------------------------
#psi4
#
memory 32 gb

molecule  {
0 1
  O       -0.1447520     2.0657680    -0.9147710
  O       -2.4135200    -1.3721290    -0.1231600
  N        2.4623060    -1.2702550     0.0647480
  C        1.2743520    -0.4775570    -0.2805680
  C        1.2169020     0.7460590     0.6287670
  C        0.0292070    -1.3356180    -0.0781670
  C       -0.0652210     1.5501200     0.4236430
  C       -1.2565570    -0.5478520    -0.3033930
  C       -1.3010200     0.6792110     0.6017970
  H        1.2815110    -0.1258050    -1.3254330
  H        1.2829160     0.4071000     1.6706590
  H        2.0904420     1.3917410     0.4518040
  H        0.0420040    -2.2046970    -0.7480580
  H        0.0468530    -1.7199520     0.9526730
  H       -0.0971920     2.3821090     1.1446700
  H       -1.3133970    -0.2220240    -1.3458810
  H       -1.3538320     0.3483370     1.6492240
  H       -2.2017640     1.2636240     0.3898210
  H        3.3008500    -0.7206310    -0.1283000
  H        2.5086524    -2.0003316    -0.4946475
  H        0.6334020     2.6343050    -1.0521070
  H       -2.3814240    -1.6980050     0.7940470
units angstrom
no_reorient  #important for SAPT in psi4, default
symmetry c1  #important for SAPT in psi4, default
}

set PROPERTIES_ORIGIN ["COM"]
properties('MP2/aug-cc-pvtz', properties = ['dipole'])
--------------------------------------------------------------------------

    Molecular point group: c1
  Charge       = 0
  Multiplicity = 1
  Basis Set: AUG-CC-PVTZ
    Blend: AUG-CC-PVTZ
  Basis Set: (AUG-CC-PVTZ AUX)
    Blend: AUG-CC-PVTZ-JKFIT

    Orbital Energies [Eh]
    ---------------------

    Doubly Occupied:

       1A    -20.561794     2A    -20.551714     3A    -15.534207
       4A    -11.285667     5A    -11.272059     6A    -11.256415
       7A    -11.225473     8A    -11.219842     9A    -11.217922
      10A     -1.362574    11A     -1.350168    12A     -1.205010
      13A     -1.091098    14A     -0.996077    15A     -0.989974
      16A     -0.840782    17A     -0.825981    18A     -0.769862
      19A     -0.696061    20A     -0.681632    21A     -0.667969
      22A     -0.642576    23A     -0.626328    24A     -0.611738
      25A     -0.593794    26A     -0.565550    27A     -0.550703
      28A     -0.530387    29A     -0.526928    30A     -0.499944
      31A     -0.490513    32A     -0.476526    33A     -0.453625
      34A     -0.444455    35A     -0.420637    36A     -0.396643

  @DF-RHF Final Energy:  -439.10321413820992

   => Energetics <=

    Nuclear Repulsion Energy =            507.4596990099452682
    One-Electron Energy =               -1606.2605721319437180
    Two-Electron Energy =                 659.6976589837884148
    Total Energy =                       -439.1032141382099780
  Basis Set: (AUG-CC-PVTZ AUX)
    Blend: AUG-CC-PVTZ-RI
    Molecular point group: c1

    Geometry (in Angstrom), charge = 0, multiplicity = 1:

       Center              X                  Y                   Z               Mass
    ------------   -----------------  -----------------  -----------------  -----------------
         O           -0.115776966876     2.062615463459    -0.900916869543    15.994914619570
         O           -2.384544966876    -1.375281536541    -0.109305869543    15.994914619570
         N            2.491281033124    -1.273407536541     0.078602130457    14.003074004430
         C            1.303327033124    -0.480709536541    -0.266713869543    12.000000000000
         C            1.245877033124     0.742906463459     0.642621130457    12.000000000000
         C            0.058182033124    -1.338770536541    -0.064312869543    12.000000000000
         C           -0.036245966876     1.546967463459     0.437497130457    12.000000000000
         C           -1.227581966876    -0.551004536541    -0.289538869543    12.000000000000
         C           -1.272044966876     0.676058463459     0.615651130457    12.000000000000
         H            1.310486033124    -0.128957536541    -1.311578869543     1.007825032230
         H            1.311891033124     0.403947463459     1.684513130457     1.007825032230
         H            2.119417033124     1.388588463459     0.465658130457     1.007825032230
         H            0.070979033124    -2.207849536541    -0.734203869543     1.007825032230
         H            0.075828033124    -1.723104536541     0.966527130457     1.007825032230
         H           -0.068216966876     2.378956463459     1.158524130457     1.007825032230
         H           -1.284421966876    -0.225176536541    -1.332026869543     1.007825032230
         H           -1.324856966876     0.345184463459     1.663078130457     1.007825032230
         H           -2.172788966876     1.260471463459     0.403675130457     1.007825032230
         H            3.329825033124    -0.723783536541    -0.114445869543     1.007825032230
         H            2.537627433124    -2.003484136541    -0.480793369543     1.007825032230
         H            0.662377033124     2.631152463459    -1.038252869543     1.007825032230
         H           -2.352448966876    -1.701157536541     0.807901130457     1.007825032230

  Basis Set: AUG-CC-PVTZ
    Blend: AUG-CC-PVTZ
  Basis Set: (AUG-CC-PVTZ AUX)
    Blend: AUG-CC-PVTZ-JKFIT
	 Reference Energy          =    -439.1032141382099212 [Eh]
	 Singles Energy            =      -0.0000000000000000 [Eh]
	 Same-Spin Energy          =      -0.4509878194893455 [Eh]
	 Opposite-Spin Energy      =      -1.4716567025764618 [Eh]
	 Correlation Energy        =      -1.9226445220658073 [Eh]
	 Total Energy              =    -441.0258586602757305 [Eh]

	 ================> DF-SCS-MP2 Energies <==================
	-----------------------------------------------------------
	 SCS Same-Spin Scale       =       0.3333333333333333 [-]
	 SCS Opposite-Spin Scale   =       1.2000000000000000 [-]
	 SCS Same-Spin Energy      =      -0.1503292731631151 [Eh]
	 SCS Opposite-Spin Energy  =      -1.7659880430917541 [Eh]
	 SCS Correlation Energy    =      -1.9163173162548692 [Eh]
	 SCS Total Energy          =    -441.0195314544648113 [Eh]
	-----------------------------------------------------------

  Dipole Moment: [D]
     X:     2.5510      Y:     1.1377      Z:     0.7480     Total:     2.8916

*** Psi4 exiting successfully. Buy a developer a beer!
