                               Psi4 1.4a3.dev225

  ==> Input File <==

--------------------------------------------------------------------------
#psi4
#
memory 32 gb

molecule  {
0 1
  O       -0.1447520     2.0657680    -0.9147710
  O       -2.4135200    -1.3721290    -0.1231600
  N        2.4623060    -1.2702550     0.0647480
  C        1.2743520    -0.4775570    -0.2805680
  C        1.2169020     0.7460590     0.6287670
  C        0.0292070    -1.3356180    -0.0781670
  C       -0.0652210     1.5501200     0.4236430
  C       -1.2565570    -0.5478520    -0.3033930
  C       -1.3010200     0.6792110     0.6017970
  H        1.2811863    -0.1417574    -1.2780472
  H        1.2829160     0.4071000     1.6706590
  H        2.0904420     1.3917410     0.4518040
  H        0.0420040    -2.2046970    -0.7480580
  H        0.0468530    -1.7199520     0.9526730
  H       -0.0971920     2.3821090     1.1446700
  H       -1.3133970    -0.2220240    -1.3458810
  H       -1.3538320     0.3483370     1.6492240
  H       -2.2017640     1.2636240     0.3898210
  H        3.3008500    -0.7206310    -0.1283000
  H        2.5136850    -2.0796090    -0.5553910
  H        0.6334020     2.6343050    -1.0521070
  H       -2.3814240    -1.6980050     0.7940470
units angstrom
no_reorient  #important for SAPT in psi4, default
symmetry c1  #important for SAPT in psi4, default
}

set PROPERTIES_ORIGIN ["COM"]
properties('MP2/aug-cc-pvtz', properties = ['dipole'])
--------------------------------------------------------------------------

    Molecular point group: c1
  Charge       = 0
  Multiplicity = 1
  Basis Set: AUG-CC-PVTZ
    Blend: AUG-CC-PVTZ
  Basis Set: (AUG-CC-PVTZ AUX)
    Blend: AUG-CC-PVTZ-JKFIT

    Orbital Energies [Eh]
    ---------------------

    Doubly Occupied:

       1A    -20.562190     2A    -20.551585     3A    -15.545363
       4A    -11.285892     5A    -11.271930     6A    -11.250242
       7A    -11.225322     8A    -11.219830     9A    -11.217184
      10A     -1.362903    11A     -1.350059    12A     -1.192778
      13A     -1.087312    14A     -0.995910    15A     -0.986746
      16A     -0.840264    17A     -0.826212    18A     -0.772527
      19A     -0.696544    20A     -0.680284    21A     -0.654872
      22A     -0.642321    23A     -0.625726    24A     -0.611661
      25A     -0.593043    26A     -0.563790    27A     -0.548838
      28A     -0.530277    29A     -0.526816    30A     -0.500440
      31A     -0.491312    32A     -0.475744    33A     -0.453555
      34A     -0.443912    35A     -0.420417    36A     -0.397118

  @DF-RHF Final Energy:  -439.10887408596710

   => Energetics <=

    Nuclear Repulsion Energy =            507.1457837150556998
    One-Electron Energy =               -1605.7074755023340913
    Two-Electron Energy =                 659.4528177013114600
    Total Energy =                       -439.1088740859670452
  Basis Set: (AUG-CC-PVTZ AUX)
    Blend: AUG-CC-PVTZ-RI
    Molecular point group: c1

    Geometry (in Angstrom), charge = 0, multiplicity = 1:

       Center              X                  Y                   Z               Mass
    ------------   -----------------  -----------------  -----------------  -----------------
         O           -0.115813160117     2.063347568025    -0.900814178650    15.994914619570
         O           -2.384581160117    -1.374549431975    -0.109203178650    15.994914619570
         N            2.491244839883    -1.272675431975     0.078704821350    14.003074004430
         C            1.303290839883    -0.479977431975    -0.266611178650    12.000000000000
         C            1.245840839883     0.743638568025     0.642723821350    12.000000000000
         C            0.058145839883    -1.338038431975    -0.064210178650    12.000000000000
         C           -0.036282160117     1.547699568025     0.437599821350    12.000000000000
         C           -1.227618160117    -0.550272431975    -0.289436178650    12.000000000000
         C           -1.272081160117     0.676790568025     0.615753821350    12.000000000000
         H            1.310125139883    -0.144177831975    -1.264090378650     1.007825032230
         H            1.311854839883     0.404679568025     1.684615821350     1.007825032230
         H            2.119380839883     1.389320568025     0.465760821350     1.007825032230
         H            0.070942839883    -2.207117431975    -0.734101178650     1.007825032230
         H            0.075791839883    -1.722372431975     0.966629821350     1.007825032230
         H           -0.068253160117     2.379688568025     1.158626821350     1.007825032230
         H           -1.284458160117    -0.224444431975    -1.331924178650     1.007825032230
         H           -1.324893160117     0.345916568025     1.663180821350     1.007825032230
         H           -2.172825160117     1.261203568025     0.403777821350     1.007825032230
         H            3.329788839883    -0.723051431975    -0.114343178650     1.007825032230
         H            2.542623839883    -2.082029431975    -0.541434178650     1.007825032230
         H            0.662340839883     2.631884568025    -1.038150178650     1.007825032230
         H           -2.352485160117    -1.700425431975     0.808003821350     1.007825032230

  Basis Set: AUG-CC-PVTZ
    Blend: AUG-CC-PVTZ
  Basis Set: (AUG-CC-PVTZ AUX)
    Blend: AUG-CC-PVTZ-JKFIT
	 Reference Energy          =    -439.1088740859671020 [Eh]
	 Singles Energy            =      -0.0000000000000000 [Eh]
	 Same-Spin Energy          =      -0.4514450175128271 [Eh]
	 Opposite-Spin Energy      =      -1.4729231967814422 [Eh]
	 Correlation Energy        =      -1.9243682142942693 [Eh]
	 Total Energy              =    -441.0332423002613496 [Eh]

	 ================> DF-SCS-MP2 Energies <==================
	-----------------------------------------------------------
	 SCS Same-Spin Scale       =       0.3333333333333333 [-]
	 SCS Opposite-Spin Scale   =       1.2000000000000000 [-]
	 SCS Same-Spin Energy      =      -0.1504816725042757 [Eh]
	 SCS Opposite-Spin Energy  =      -1.7675078361377305 [Eh]
	 SCS Correlation Energy    =      -1.9179895086420062 [Eh]
	 SCS Total Energy          =    -441.0268635946090967 [Eh]
	-----------------------------------------------------------

  Dipole Moment: [D]
     X:     2.5283      Y:     1.1433      Z:     0.7146     Total:     2.8653

*** Psi4 exiting successfully. Buy a developer a beer!
