                               Psi4 1.4a3.dev225

  ==> Input File <==

--------------------------------------------------------------------------
#psi4
#
memory 32 gb

molecule  {
0 1
  O       -0.1447520     2.0657680    -0.9147710
  O       -2.4135200    -1.3721290    -0.1231600
  N        2.4920786    -1.1640357     0.1719107
  C        1.2743520    -0.4775570    -0.2805680
  C        1.2169020     0.7460590     0.6287670
  C        0.0292070    -1.3356180    -0.0781670
  C       -0.0652210     1.5501200     0.4236430
  C       -1.2565570    -0.5478520    -0.3033930
  C       -1.3010200     0.6792110     0.6017970
  H        1.2815110    -0.1258050    -1.3254330
  H        1.2829160     0.4071000     1.6706590
  H        2.0904420     1.3917410     0.4518040
  H        0.0420040    -2.2046970    -0.7480580
  H        0.0468530    -1.7199520     0.9526730
  H       -0.0971920     2.3821090     1.1446700
  H       -1.3133970    -0.2220240    -1.3458810
  H       -1.3538320     0.3483370     1.6492240
  H       -2.2017640     1.2636240     0.3898210
  H        3.3008500    -0.7206310    -0.1283000
  H        2.5136850    -2.0796090    -0.5553910
  H        0.6334020     2.6343050    -1.0521070
  H       -2.3814240    -1.6980050     0.7940470
units angstrom
no_reorient  #important for SAPT in psi4, default
symmetry c1  #important for SAPT in psi4, default
}

set PROPERTIES_ORIGIN ["COM"]
properties('MP2/aug-cc-pvtz', properties = ['dipole'])
--------------------------------------------------------------------------

    Molecular point group: c1
  Charge       = 0
  Multiplicity = 1
  Basis Set: AUG-CC-PVTZ
    Blend: AUG-CC-PVTZ
  Basis Set: (AUG-CC-PVTZ AUX)
    Blend: AUG-CC-PVTZ-JKFIT

    Orbital Energies [Eh]
    ---------------------

    Doubly Occupied:

       1A    -20.561269     2A    -20.552940     3A    -15.559925
       4A    -11.283549     5A    -11.273668     6A    -11.258091
       7A    -11.222730     8A    -11.220387     9A    -11.219775
      10A     -1.362053    11A     -1.351235    12A     -1.193173
      13A     -1.086073    14A     -0.996884    15A     -0.984108
      16A     -0.840514    17A     -0.823602    18A     -0.770165
      19A     -0.696915    20A     -0.681928    21A     -0.649250
      22A     -0.632775    23A     -0.622617    24A     -0.612847
      25A     -0.588802    26A     -0.566785    27A     -0.536287
      28A     -0.530216    29A     -0.525931    30A     -0.499214
      31A     -0.489345    32A     -0.471402    33A     -0.452699
      34A     -0.445706    35A     -0.422706    36A     -0.403352

  @DF-RHF Final Energy:  -439.08513662400304

   => Energetics <=

    Nuclear Repulsion Energy =            507.0189517803235049
    One-Electron Energy =               -1605.4303385962205084
    Two-Electron Energy =                 659.3262501918940188
    Total Energy =                       -439.0851366240029847
  Basis Set: (AUG-CC-PVTZ AUX)
    Blend: AUG-CC-PVTZ-RI
    Molecular point group: c1

    Geometry (in Angstrom), charge = 0, multiplicity = 1:

       Center              X                  Y                   Z               Mass
    ------------   -----------------  -----------------  -----------------  -----------------
         O           -0.118995862308     2.051878952095    -0.911896635941    15.994914619570
         O           -2.387763862308    -1.386018047905    -0.120285635941    15.994914619570
         N            2.517834737692    -1.177924747905     0.174785064059    14.003074004430
         C            1.300108137692    -0.491446047905    -0.277693635941    12.000000000000
         C            1.242658137692     0.732169952095     0.631641364059    12.000000000000
         C            0.054963137692    -1.349507047905    -0.075292635941    12.000000000000
         C           -0.039464862308     1.536230952095     0.426517364059    12.000000000000
         C           -1.230800862308    -0.561741047905    -0.300518635941    12.000000000000
         C           -1.275263862308     0.665321952095     0.604671364059    12.000000000000
         H            1.307267137692    -0.139694047905    -1.322558635941     1.007825032230
         H            1.308672137692     0.393210952095     1.673533364059     1.007825032230
         H            2.116198137692     1.377851952095     0.454678364059     1.007825032230
         H            0.067760137692    -2.218586047905    -0.745183635941     1.007825032230
         H            0.072609137692    -1.733841047905     0.955547364059     1.007825032230
         H           -0.071435862308     2.368219952095     1.147544364059     1.007825032230
         H           -1.287640862308    -0.235913047905    -1.343006635941     1.007825032230
         H           -1.328075862308     0.334447952095     1.652098364059     1.007825032230
         H           -2.176007862308     1.249734952095     0.392695364059     1.007825032230
         H            3.326606137692    -0.734520047905    -0.125425635941     1.007825032230
         H            2.539441137692    -2.093498047905    -0.552516635941     1.007825032230
         H            0.659158137692     2.620415952095    -1.049232635941     1.007825032230
         H           -2.355667862308    -1.711894047905     0.796921364059     1.007825032230

  Basis Set: AUG-CC-PVTZ
    Blend: AUG-CC-PVTZ
  Basis Set: (AUG-CC-PVTZ AUX)
    Blend: AUG-CC-PVTZ-JKFIT
	 Reference Energy          =    -439.0851366240030416 [Eh]
	 Singles Energy            =      -0.0000000000000000 [Eh]
	 Same-Spin Energy          =      -0.4525634985417938 [Eh]
	 Opposite-Spin Energy      =      -1.4765500371306759 [Eh]
	 Correlation Energy        =      -1.9291135356724696 [Eh]
	 Total Energy              =    -441.0142501596754983 [Eh]

	 ================> DF-SCS-MP2 Energies <==================
	-----------------------------------------------------------
	 SCS Same-Spin Scale       =       0.3333333333333333 [-]
	 SCS Opposite-Spin Scale   =       1.2000000000000000 [-]
	 SCS Same-Spin Energy      =      -0.1508544995139313 [Eh]
	 SCS Opposite-Spin Energy  =      -1.7718600445568111 [Eh]
	 SCS Correlation Energy    =      -1.9227145440707423 [Eh]
	 SCS Total Energy          =    -441.0078511680737847 [Eh]
	-----------------------------------------------------------

  Dipole Moment: [D]
     X:     2.4717      Y:     1.0392      Z:     0.6006     Total:     2.7477

*** Psi4 exiting successfully. Buy a developer a beer!
