                               Psi4 1.4a3.dev225

  ==> Input File <==

--------------------------------------------------------------------------
#psi4
#
memory 32 gb

molecule  {
0 1
  O       -0.1447520     2.0657680    -0.9147710
  O       -2.4135200    -1.3721290    -0.1231600
  N        2.4623060    -1.2702550     0.0647480
  C        1.2743520    -0.4775570    -0.2805680
  C        1.2169020     0.7460590     0.6287670
  C       -0.0173933    -1.3521314     0.0735674
  C       -0.0652210     1.5501200     0.4236430
  C       -1.2565570    -0.5478520    -0.3033930
  C       -1.3010200     0.6792110     0.6017970
  H        1.2815110    -0.1258050    -1.3254330
  H        1.2829160     0.4071000     1.6706590
  H        2.0904420     1.3917410     0.4518040
  H        0.0420040    -2.2046970    -0.7480580
  H        0.0468530    -1.7199520     0.9526730
  H       -0.0971920     2.3821090     1.1446700
  H       -1.3133970    -0.2220240    -1.3458810
  H       -1.3538320     0.3483370     1.6492240
  H       -2.2017640     1.2636240     0.3898210
  H        3.3008500    -0.7206310    -0.1283000
  H        2.5136850    -2.0796090    -0.5553910
  H        0.6334020     2.6343050    -1.0521070
  H       -2.3814240    -1.6980050     0.7940470
units angstrom
no_reorient  #important for SAPT in psi4, default
symmetry c1  #important for SAPT in psi4, default
}

set PROPERTIES_ORIGIN ["COM"]
properties('MP2/aug-cc-pvtz', properties = ['dipole'])
--------------------------------------------------------------------------

    Molecular point group: c1
  Charge       = 0
  Multiplicity = 1
  Basis Set: AUG-CC-PVTZ
    Blend: AUG-CC-PVTZ
  Basis Set: (AUG-CC-PVTZ AUX)
    Blend: AUG-CC-PVTZ-JKFIT

    Orbital Energies [Eh]
    ---------------------

    Doubly Occupied:

       1A    -20.562118     2A    -20.549054     3A    -15.545537
       4A    -11.285664     5A    -11.273680     6A    -11.260112
       7A    -11.224463     8A    -11.218701     9A    -11.216852
      10A     -1.362798    11A     -1.349736    12A     -1.189124
      13A     -1.087291    14A     -0.995119    15A     -0.982640
      16A     -0.845285    17A     -0.818680    18A     -0.777698
      19A     -0.694860    20A     -0.682474    21A     -0.654054
      22A     -0.632801    23A     -0.624965    24A     -0.618209
      25A     -0.596844    26A     -0.561633    27A     -0.549011
      28A     -0.535296    29A     -0.529896    30A     -0.499566
      31A     -0.496974    32A     -0.472731    33A     -0.452018
      34A     -0.430461    35A     -0.413464    36A     -0.394990

  @DF-RHF Final Energy:  -439.07856325431931

   => Energetics <=

    Nuclear Repulsion Energy =            506.5405725165630884
    One-Electron Energy =               -1604.4686759061014527
    Two-Electron Energy =                 658.8495401352190584
    Total Energy =                       -439.0785632543193060
  Basis Set: (AUG-CC-PVTZ AUX)
    Blend: AUG-CC-PVTZ-RI
    Molecular point group: c1

    Geometry (in Angstrom), charge = 0, multiplicity = 1:

       Center              X                  Y                   Z               Mass
    ------------   -----------------  -----------------  -----------------  -----------------
         O           -0.111550007881     2.064736515641    -0.914339188963    15.994914619570
         O           -2.380318007881    -1.373160484359    -0.122728188963    15.994914619570
         N            2.495507992119    -1.271286484359     0.065179811037    14.003074004430
         C            1.307553992119    -0.478588484359    -0.280136188963    12.000000000000
         C            1.250103992119     0.745027515641     0.629198811037    12.000000000000
         C            0.015808692119    -1.353162884359     0.073999211037    12.000000000000
         C           -0.032019007881     1.549088515641     0.424074811037    12.000000000000
         C           -1.223355007881    -0.548883484359    -0.302961188963    12.000000000000
         C           -1.267818007881     0.678179515641     0.602228811037    12.000000000000
         H            1.314712992119    -0.126836484359    -1.325001188963     1.007825032230
         H            1.316117992119     0.406068515641     1.671090811037     1.007825032230
         H            2.123643992119     1.390709515641     0.452235811037     1.007825032230
         H            0.075205992119    -2.205728484359    -0.747626188963     1.007825032230
         H            0.080054992119    -1.720983484359     0.953104811037     1.007825032230
         H           -0.063990007881     2.381077515641     1.145101811037     1.007825032230
         H           -1.280195007881    -0.223055484359    -1.345449188963     1.007825032230
         H           -1.320630007881     0.347305515641     1.649655811037     1.007825032230
         H           -2.168562007881     1.262592515641     0.390252811037     1.007825032230
         H            3.334051992119    -0.721662484359    -0.127868188963     1.007825032230
         H            2.546886992119    -2.080640484359    -0.554959188963     1.007825032230
         H            0.666603992119     2.633273515641    -1.051675188963     1.007825032230
         H           -2.348222007881    -1.699036484359     0.794478811037     1.007825032230

  Basis Set: AUG-CC-PVTZ
    Blend: AUG-CC-PVTZ
  Basis Set: (AUG-CC-PVTZ AUX)
    Blend: AUG-CC-PVTZ-JKFIT
	 Reference Energy          =    -439.0785632543193060 [Eh]
	 Singles Energy            =      -0.0000000000000000 [Eh]
	 Same-Spin Energy          =      -0.4516902382233771 [Eh]
	 Opposite-Spin Energy      =      -1.4745678114822591 [Eh]
	 Correlation Energy        =      -1.9262580497056363 [Eh]
	 Total Energy              =    -441.0048213040249152 [Eh]

	 ================> DF-SCS-MP2 Energies <==================
	-----------------------------------------------------------
	 SCS Same-Spin Scale       =       0.3333333333333333 [-]
	 SCS Opposite-Spin Scale   =       1.2000000000000000 [-]
	 SCS Same-Spin Energy      =      -0.1505634127411257 [Eh]
	 SCS Opposite-Spin Energy  =      -1.7694813737787110 [Eh]
	 SCS Correlation Energy    =      -1.9200447865198367 [Eh]
	 SCS Total Energy          =    -440.9986080408391445 [Eh]
	-----------------------------------------------------------

  Dipole Moment: [D]
     X:     2.5456      Y:     1.1578      Z:     0.8053     Total:     2.9102

*** Psi4 exiting successfully. Buy a developer a beer!
