                               Psi4 1.4a3.dev225

  ==> Input File <==

--------------------------------------------------------------------------
#psi4
#
memory 32 gb

molecule  {
0 1
  O       -0.1447520     2.0657680    -0.9147710
  O       -2.4135200    -1.3721290    -0.1231600
  N        2.4623060    -1.2702550     0.0647480
  C        1.2743520    -0.4775570    -0.2805680
  C        1.2169020     0.7460590     0.6287670
  C        0.0292070    -1.3356180    -0.0781670
  C       -0.0652210     1.5501200     0.4236430
  C       -1.2565570    -0.5478520    -0.3033930
  C       -1.3010200     0.6792110     0.6017970
  H        1.2815110    -0.1258050    -1.3254330
  H        1.2829160     0.4071000     1.6706590
  H        2.0904420     1.3917410     0.4518040
  H        0.0420040    -2.2046970    -0.7480580
  H        0.0468530    -1.7199520     0.9526730
  H       -0.0971920     2.3821090     1.1446700
  H       -1.3133970    -0.2220240    -1.3458810
  H       -1.3442273     0.4085116     1.4587331
  H       -2.2017640     1.2636240     0.3898210
  H        3.3008500    -0.7206310    -0.1283000
  H        2.5136850    -2.0796090    -0.5553910
  H        0.6334020     2.6343050    -1.0521070
  H       -2.3814240    -1.6980050     0.7940470
units angstrom
no_reorient  #important for SAPT in psi4, default
symmetry c1  #important for SAPT in psi4, default
}

set PROPERTIES_ORIGIN ["COM"]
properties('MP2/aug-cc-pvtz', properties = ['dipole'])
--------------------------------------------------------------------------

    Molecular point group: c1
  Charge       = 0
  Multiplicity = 1
  Basis Set: AUG-CC-PVTZ
    Blend: AUG-CC-PVTZ
  Basis Set: (AUG-CC-PVTZ AUX)
    Blend: AUG-CC-PVTZ-JKFIT

    Orbital Energies [Eh]
    ---------------------

    Doubly Occupied:

       1A    -20.560316     2A    -20.551792     3A    -15.545952
       4A    -11.284328     5A    -11.270050     6A    -11.256338
       7A    -11.225833     8A    -11.217647     9A    -11.193957
      10A     -1.361144    11A     -1.350134    12A     -1.192307
      13A     -1.093139    14A     -0.996953    15A     -0.994886
      16A     -0.839391    17A     -0.833496    18A     -0.778658
      19A     -0.698129    20A     -0.678000    21A     -0.654868
      22A     -0.641536    23A     -0.625555    24A     -0.617540
      25A     -0.594857    26A     -0.564278    27A     -0.549586
      28A     -0.543601    29A     -0.528456    30A     -0.501121
      31A     -0.489879    32A     -0.477071    33A     -0.452402
      34A     -0.444207    35A     -0.419314    36A     -0.395235

  @DF-RHF Final Energy:  -439.07702047499606

   => Energetics <=

    Nuclear Repulsion Energy =            508.0316942292114391
    One-Electron Energy =               -1607.3735158750416758
    Two-Electron Energy =                 660.2648011708342892
    Total Energy =                       -439.0770204749960612
  Basis Set: (AUG-CC-PVTZ AUX)
    Blend: AUG-CC-PVTZ-RI
    Molecular point group: c1

    Geometry (in Angstrom), charge = 0, multiplicity = 1:

       Center              X                  Y                   Z               Mass
    ------------   -----------------  -----------------  -----------------  -----------------
         O           -0.115889495036     2.062762321345    -0.898985437875    15.994914619570
         O           -2.384657495036    -1.375134678655    -0.107374437875    15.994914619570
         N            2.491168504964    -1.273260678655     0.080533562125    14.003074004430
         C            1.303214504964    -0.480562678655    -0.264782437875    12.000000000000
         C            1.245764504964     0.743053321345     0.644552562125    12.000000000000
         C            0.058069504964    -1.338623678655    -0.062381437875    12.000000000000
         C           -0.036358495036     1.547114321345     0.439428562125    12.000000000000
         C           -1.227694495036    -0.550857678655    -0.287607437875    12.000000000000
         C           -1.272157495036     0.676205321345     0.617582562125    12.000000000000
         H            1.310373504964    -0.128810678655    -1.309647437875     1.007825032230
         H            1.311778504964     0.404094321345     1.686444562125     1.007825032230
         H            2.119304504964     1.388735321345     0.467589562125     1.007825032230
         H            0.070866504964    -2.207702678655    -0.732272437875     1.007825032230
         H            0.075715504964    -1.722957678655     0.968458562125     1.007825032230
         H           -0.068329495036     2.379103321345     1.160455562125     1.007825032230
         H           -1.284534495036    -0.225029678655    -1.330095437875     1.007825032230
         H           -1.315364795036     0.405505921345     1.474518662125     1.007825032230
         H           -2.172901495036     1.260618321345     0.405606562125     1.007825032230
         H            3.329712504964    -0.723636678655    -0.112514437875     1.007825032230
         H            2.542547504964    -2.082614678655    -0.539605437875     1.007825032230
         H            0.662264504964     2.631299321345    -1.036321437875     1.007825032230
         H           -2.352561495036    -1.701010678655     0.809832562125     1.007825032230

  Basis Set: AUG-CC-PVTZ
    Blend: AUG-CC-PVTZ
  Basis Set: (AUG-CC-PVTZ AUX)
    Blend: AUG-CC-PVTZ-JKFIT
	 Reference Energy          =    -439.0770204749960612 [Eh]
	 Singles Energy            =      -0.0000000000000000 [Eh]
	 Same-Spin Energy          =      -0.4515165140818451 [Eh]
	 Opposite-Spin Energy      =      -1.4726279465645367 [Eh]
	 Correlation Energy        =      -1.9241444606463818 [Eh]
	 Total Energy              =    -441.0011649356424641 [Eh]

	 ================> DF-SCS-MP2 Energies <==================
	-----------------------------------------------------------
	 SCS Same-Spin Scale       =       0.3333333333333333 [-]
	 SCS Opposite-Spin Scale   =       1.2000000000000000 [-]
	 SCS Same-Spin Energy      =      -0.1505055046939484 [Eh]
	 SCS Opposite-Spin Energy  =      -1.7671535358774439 [Eh]
	 SCS Correlation Energy    =      -1.9176590405713922 [Eh]
	 SCS Total Energy          =    -440.9946795155674408 [Eh]
	-----------------------------------------------------------

  Dipole Moment: [D]
     X:     2.5200      Y:     1.0958      Z:     0.8357     Total:     2.8722

*** Psi4 exiting successfully. Buy a developer a beer!
