                               Psi4 1.4a3.dev225

  ==> Input File <==

--------------------------------------------------------------------------
#psi4
#
memory 32 gb

molecule  {
0 1
  O       -0.1447520     2.0657680    -0.9147710
  O       -2.4135200    -1.3721290    -0.1231600
  N        2.4623060    -1.2702550     0.0647480
  C        1.2743520    -0.4775570    -0.2805680
  C        1.2169020     0.7460590     0.6287670
  C        0.0292070    -1.3356180    -0.0781670
  C       -0.0652210     1.5501200     0.4236430
  C       -1.2969552    -0.5766336    -0.2970997
  C       -1.3010200     0.6792110     0.6017970
  H        1.2815110    -0.1258050    -1.3254330
  H        1.2829160     0.4071000     1.6706590
  H        2.0904420     1.3917410     0.4518040
  H        0.0420040    -2.2046970    -0.7480580
  H        0.0468530    -1.7199520     0.9526730
  H       -0.0971920     2.3821090     1.1446700
  H       -1.3133970    -0.2220240    -1.3458810
  H       -1.3538320     0.3483370     1.6492240
  H       -2.2017640     1.2636240     0.3898210
  H        3.3008500    -0.7206310    -0.1283000
  H        2.5136850    -2.0796090    -0.5553910
  H        0.6334020     2.6343050    -1.0521070
  H       -2.3814240    -1.6980050     0.7940470
units angstrom
no_reorient  #important for SAPT in psi4, default
symmetry c1  #important for SAPT in psi4, default
}

set PROPERTIES_ORIGIN ["COM"]
properties('MP2/aug-cc-pvtz', properties = ['dipole'])
--------------------------------------------------------------------------

    Molecular point group: c1
  Charge       = 0
  Multiplicity = 1
  Basis Set: AUG-CC-PVTZ
    Blend: AUG-CC-PVTZ
  Basis Set: (AUG-CC-PVTZ AUX)
    Blend: AUG-CC-PVTZ-JKFIT

    Orbital Energies [Eh]
    ---------------------

    Doubly Occupied:

       1A    -20.560814     2A    -20.557986     3A    -15.545442
       4A    -11.285328     5A    -11.272660     6A    -11.255867
       7A    -11.224777     8A    -11.218524     9A    -11.216465
      10A     -1.372619    11A     -1.360506    12A     -1.191254
      13A     -1.082829    14A     -0.992537    15A     -0.983138
      16A     -0.840925    17A     -0.823034    18A     -0.769760
      19A     -0.698032    20A     -0.678197    21A     -0.654602
      22A     -0.640455    23A     -0.629438    24A     -0.615627
      25A     -0.596547    26A     -0.564805    27A     -0.551527
      28A     -0.533720    29A     -0.524730    30A     -0.496116
      31A     -0.490511    32A     -0.471949    33A     -0.453774
      34A     -0.441182    35A     -0.413769    36A     -0.394219

  @DF-RHF Final Energy:  -439.10810012563172

   => Energetics <=

    Nuclear Repulsion Energy =            506.6231943198905583
    One-Electron Energy =               -1604.6552640650611465
    Two-Electron Energy =                 658.9239696195389797
    Total Energy =                       -439.1081001256317222
  Basis Set: (AUG-CC-PVTZ AUX)
    Blend: AUG-CC-PVTZ-RI
    Molecular point group: c1

    Geometry (in Angstrom), charge = 0, multiplicity = 1:

       Center              X                  Y                   Z               Mass
    ------------   -----------------  -----------------  -----------------  -----------------
         O           -0.112117729082     2.065859509020    -0.901025957003    15.994914619570
         O           -2.380885729082    -1.372037490980    -0.109414957003    15.994914619570
         N            2.494940270918    -1.270163490980     0.078493042997    14.003074004430
         C            1.306986270918    -0.477465490980    -0.266822957003    12.000000000000
         C            1.249536270918     0.746150509020     0.642512042997    12.000000000000
         C            0.061841270918    -1.335526490980    -0.064421957003    12.000000000000
         C           -0.032586729082     1.550211509020     0.437388042997    12.000000000000
         C           -1.264320929082    -0.576542090980    -0.283354657003    12.000000000000
         C           -1.268385729082     0.679302509020     0.615542042997    12.000000000000
         H            1.314145270918    -0.125713490980    -1.311687957003     1.007825032230
         H            1.315550270918     0.407191509020     1.684404042997     1.007825032230
         H            2.123076270918     1.391832509020     0.465549042997     1.007825032230
         H            0.074638270918    -2.204605490980    -0.734312957003     1.007825032230
         H            0.079487270918    -1.719860490980     0.966418042997     1.007825032230
         H           -0.064557729082     2.382200509020     1.158415042997     1.007825032230
         H           -1.280762729082    -0.221932490980    -1.332135957003     1.007825032230
         H           -1.321197729082     0.348428509020     1.662969042997     1.007825032230
         H           -2.169129729082     1.263715509020     0.403566042997     1.007825032230
         H            3.333484270918    -0.720539490980    -0.114554957003     1.007825032230
         H            2.546319270918    -2.079517490980    -0.541645957003     1.007825032230
         H            0.666036270918     2.634396509020    -1.038361957003     1.007825032230
         H           -2.348789729082    -1.697913490980     0.807792042997     1.007825032230

  Basis Set: AUG-CC-PVTZ
    Blend: AUG-CC-PVTZ
  Basis Set: (AUG-CC-PVTZ AUX)
    Blend: AUG-CC-PVTZ-JKFIT
	 Reference Energy          =    -439.1081001256317222 [Eh]
	 Singles Energy            =      -0.0000000000000000 [Eh]
	 Same-Spin Energy          =      -0.4513566265477435 [Eh]
	 Opposite-Spin Energy      =      -1.4725896424590204 [Eh]
	 Correlation Energy        =      -1.9239462690067639 [Eh]
	 Total Energy              =    -441.0320463946384848 [Eh]

	 ================> DF-SCS-MP2 Energies <==================
	-----------------------------------------------------------
	 SCS Same-Spin Scale       =       0.3333333333333333 [-]
	 SCS Opposite-Spin Scale   =       1.2000000000000000 [-]
	 SCS Same-Spin Energy      =      -0.1504522088492478 [Eh]
	 SCS Opposite-Spin Energy  =      -1.7671075709508244 [Eh]
	 SCS Correlation Energy    =      -1.9175597798000723 [Eh]
	 SCS Total Energy          =    -441.0256599054317803 [Eh]
	-----------------------------------------------------------

  Dipole Moment: [D]
     X:     2.3652      Y:     1.0121      Z:     0.7500     Total:     2.6797

*** Psi4 exiting successfully. Buy a developer a beer!
