                               Psi4 1.4a3.dev225

  ==> Input File <==

--------------------------------------------------------------------------
#psi4
#
memory 32 gb

molecule  {
0 1
  O       -0.1447520     2.0657680    -0.9147710
  O       -2.4135200    -1.3721290    -0.1231600
  N        2.4352007    -1.3363110    -0.0088700
  C        1.2743520    -0.4775570    -0.2805680
  C        1.2169020     0.7460590     0.6287670
  C        0.0292070    -1.3356180    -0.0781670
  C       -0.0652210     1.5501200     0.4236430
  C       -1.2565570    -0.5478520    -0.3033930
  C       -1.3010200     0.6792110     0.6017970
  H        1.2815110    -0.1258050    -1.3254330
  H        1.2829160     0.4071000     1.6706590
  H        2.0904420     1.3917410     0.4518040
  H        0.0420040    -2.2046970    -0.7480580
  H        0.0468530    -1.7199520     0.9526730
  H       -0.0971920     2.3821090     1.1446700
  H       -1.3133970    -0.2220240    -1.3458810
  H       -1.3538320     0.3483370     1.6492240
  H       -2.2017640     1.2636240     0.3898210
  H        3.3008500    -0.7206310    -0.1283000
  H        2.5136850    -2.0796090    -0.5553910
  H        0.6334020     2.6343050    -1.0521070
  H       -2.3814240    -1.6980050     0.7940470
units angstrom
no_reorient  #important for SAPT in psi4, default
symmetry c1  #important for SAPT in psi4, default
}

set PROPERTIES_ORIGIN ["COM"]
properties('MP2/aug-cc-pvtz', properties = ['dipole'])
--------------------------------------------------------------------------

    Molecular point group: c1
  Charge       = 0
  Multiplicity = 1
  Basis Set: AUG-CC-PVTZ
    Blend: AUG-CC-PVTZ
  Basis Set: (AUG-CC-PVTZ AUX)
    Blend: AUG-CC-PVTZ-JKFIT

    Orbital Energies [Eh]
    ---------------------

    Doubly Occupied:

       1A    -20.562587     2A    -20.550902     3A    -15.538058
       4A    -11.287851     5A    -11.270863     6A    -11.257020
       7A    -11.228730     8A    -11.220157     9A    -11.216139
      10A     -1.363378    11A     -1.349462    12A     -1.195462
      13A     -1.089713    14A     -0.996143    15A     -0.988924
      16A     -0.840672    17A     -0.826028    18A     -0.770223
      19A     -0.696063    20A     -0.682407    21A     -0.665323
      22A     -0.641857    23A     -0.622966    24A     -0.610812
      25A     -0.593834    26A     -0.567648    27A     -0.547391
      28A     -0.530710    29A     -0.526520    30A     -0.500445
      31A     -0.491427    32A     -0.477354    33A     -0.454756
      34A     -0.441746    35A     -0.420274    36A     -0.389117

  @DF-RHF Final Energy:  -439.09920334011235

   => Energetics <=

    Nuclear Repulsion Energy =            506.9268234605512475
    One-Electron Energy =               -1605.2261302629440252
    Two-Electron Energy =                 659.2001034622803672
    Total Energy =                       -439.0992033401123535
  Basis Set: (AUG-CC-PVTZ AUX)
    Blend: AUG-CC-PVTZ-RI
    Molecular point group: c1

    Geometry (in Angstrom), charge = 0, multiplicity = 1:

       Center              X                  Y                   Z               Mass
    ------------   -----------------  -----------------  -----------------  -----------------
         O           -0.112920362106     2.070280802725    -0.892586267953    15.994914619570
         O           -2.381688362106    -1.367616197275    -0.100975267953    15.994914619570
         N            2.467032337894    -1.331798197275     0.013314732047    14.003074004430
         C            1.306183637894    -0.473044197275    -0.258383267953    12.000000000000
         C            1.248733637894     0.750571802725     0.650951732047    12.000000000000
         C            0.061038637894    -1.331105197275    -0.055982267953    12.000000000000
         C           -0.033389362106     1.554632802725     0.445827732047    12.000000000000
         C           -1.224725362106    -0.543339197275    -0.281208267953    12.000000000000
         C           -1.269188362106     0.683723802725     0.623981732047    12.000000000000
         H            1.313342637894    -0.121292197275    -1.303248267953     1.007825032230
         H            1.314747637894     0.411612802725     1.692843732047     1.007825032230
         H            2.122273637894     1.396253802725     0.473988732047     1.007825032230
         H            0.073835637894    -2.200184197275    -0.725873267953     1.007825032230
         H            0.078684637894    -1.715439197275     0.974857732047     1.007825032230
         H           -0.065360362106     2.386621802725     1.166854732047     1.007825032230
         H           -1.281565362106    -0.217511197275    -1.323696267953     1.007825032230
         H           -1.322000362106     0.352849802725     1.671408732047     1.007825032230
         H           -2.169932362106     1.268136802725     0.412005732047     1.007825032230
         H            3.332681637894    -0.716118197275    -0.106115267953     1.007825032230
         H            2.545516637894    -2.075096197275    -0.533206267953     1.007825032230
         H            0.665233637894     2.638817802725    -1.029922267953     1.007825032230
         H           -2.349592362106    -1.693492197275     0.816231732047     1.007825032230

  Basis Set: AUG-CC-PVTZ
    Blend: AUG-CC-PVTZ
  Basis Set: (AUG-CC-PVTZ AUX)
    Blend: AUG-CC-PVTZ-JKFIT
	 Reference Energy          =    -439.0992033401123535 [Eh]
	 Singles Energy            =      -0.0000000000000000 [Eh]
	 Same-Spin Energy          =      -0.4512043366612684 [Eh]
	 Opposite-Spin Energy      =      -1.4724611356681450 [Eh]
	 Correlation Energy        =      -1.9236654723294133 [Eh]
	 Total Energy              =    -441.0228688124417431 [Eh]

	 ================> DF-SCS-MP2 Energies <==================
	-----------------------------------------------------------
	 SCS Same-Spin Scale       =       0.3333333333333333 [-]
	 SCS Opposite-Spin Scale   =       1.2000000000000000 [-]
	 SCS Same-Spin Energy      =      -0.1504014455537561 [Eh]
	 SCS Opposite-Spin Energy  =      -1.7669533628017740 [Eh]
	 SCS Correlation Energy    =      -1.9173548083555301 [Eh]
	 SCS Total Energy          =    -441.0165581484678796 [Eh]
	-----------------------------------------------------------

  Dipole Moment: [D]
     X:     2.5587      Y:     1.2274      Z:     0.8703     Total:     2.9684

*** Psi4 exiting successfully. Buy a developer a beer!
