                               Psi4 1.4a3.dev225

  ==> Input File <==

--------------------------------------------------------------------------
#psi4
#
memory 32 gb

molecule  {
0 1
  O       -0.1447520     2.0657680    -0.9147710
  O       -2.4135200    -1.3721290    -0.1231600
  N        2.4623060    -1.2702550     0.0647480
  C        1.2743520    -0.4775570    -0.2805680
  C        1.2169020     0.7460590     0.6287670
  C        0.0292070    -1.3356180    -0.0781670
  C       -0.0652210     1.5501200     0.4236430
  C       -1.2638467    -0.5654985    -0.3219274
  C       -1.3010200     0.6792110     0.6017970
  H        1.2815110    -0.1258050    -1.3254330
  H        1.2829160     0.4071000     1.6706590
  H        2.0904420     1.3917410     0.4518040
  H        0.0420040    -2.2046970    -0.7480580
  H        0.0468530    -1.7199520     0.9526730
  H       -0.0971920     2.3821090     1.1446700
  H       -1.3133970    -0.2220240    -1.3458810
  H       -1.3538320     0.3483370     1.6492240
  H       -2.2017640     1.2636240     0.3898210
  H        3.3008500    -0.7206310    -0.1283000
  H        2.5136850    -2.0796090    -0.5553910
  H        0.6334020     2.6343050    -1.0521070
  H       -2.3814240    -1.6980050     0.7940470
units angstrom
no_reorient  #important for SAPT in psi4, default
symmetry c1  #important for SAPT in psi4, default
}

set PROPERTIES_ORIGIN ["COM"]
properties('MP2/aug-cc-pvtz', properties = ['dipole'])
--------------------------------------------------------------------------

    Molecular point group: c1
  Charge       = 0
  Multiplicity = 1
  Basis Set: AUG-CC-PVTZ
    Blend: AUG-CC-PVTZ
  Basis Set: (AUG-CC-PVTZ AUX)
    Blend: AUG-CC-PVTZ-JKFIT

    Orbital Energies [Eh]
    ---------------------

    Doubly Occupied:

       1A    -20.561397     2A    -20.552869     3A    -15.545994
       4A    -11.285045     5A    -11.271840     6A    -11.256477
       7A    -11.225340     8A    -11.219478     9A    -11.217393
      10A     -1.362378    11A     -1.354738    12A     -1.192121
      13A     -1.084744    14A     -0.995979    15A     -0.983208
      16A     -0.840577    17A     -0.823561    18A     -0.769944
      19A     -0.696126    20A     -0.677852    21A     -0.654799
      22A     -0.640852    23A     -0.625757    24A     -0.614479
      25A     -0.592973    26A     -0.563894    27A     -0.548800
      28A     -0.530027    29A     -0.526163    30A     -0.498388
      31A     -0.490352    32A     -0.477737    33A     -0.452812
      34A     -0.445826    35A     -0.415356    36A     -0.395014

  @DF-RHF Final Energy:  -439.10942743728037

   => Energetics <=

    Nuclear Repulsion Energy =            506.6547794599305803
    One-Electron Energy =               -1604.7478328011661688
    Two-Electron Energy =                 658.9836259039552715
    Total Energy =                       -439.1094274372803739
  Basis Set: (AUG-CC-PVTZ AUX)
    Blend: AUG-CC-PVTZ-RI
    Molecular point group: c1

    Geometry (in Angstrom), charge = 0, multiplicity = 1:

       Center              X                  Y                   Z               Mass
    ------------   -----------------  -----------------  -----------------  -----------------
         O           -0.115148379568     2.064840236138    -0.898753305537    15.994914619570
         O           -2.383916379568    -1.373056763862    -0.107142305537    15.994914619570
         N            2.491909620432    -1.271182763862     0.080765694463    14.003074004430
         C            1.303955620432    -0.478484763862    -0.264550305537    12.000000000000
         C            1.246505620432     0.745131236138     0.644784694463    12.000000000000
         C            0.058810620432    -1.336545763862    -0.062149305537    12.000000000000
         C           -0.035617379568     1.549192236138     0.439660694463    12.000000000000
         C           -1.234243079568    -0.566426263862    -0.305909705537    12.000000000000
         C           -1.271416379568     0.678283236138     0.617814694463    12.000000000000
         H            1.311114620432    -0.126732763862    -1.309415305537     1.007825032230
         H            1.312519620432     0.406172236138     1.686676694463     1.007825032230
         H            2.120045620432     1.390813236138     0.467821694463     1.007825032230
         H            0.071607620432    -2.205624763862    -0.732040305537     1.007825032230
         H            0.076456620432    -1.720879763862     0.968690694463     1.007825032230
         H           -0.067588379568     2.381181236138     1.160687694463     1.007825032230
         H           -1.283793379568    -0.222951763862    -1.329863305537     1.007825032230
         H           -1.324228379568     0.347409236138     1.665241694463     1.007825032230
         H           -2.172160379568     1.262696236138     0.405838694463     1.007825032230
         H            3.330453620432    -0.721558763862    -0.112282305537     1.007825032230
         H            2.543288620432    -2.080536763862    -0.539373305537     1.007825032230
         H            0.663005620432     2.633377236138    -1.036089305537     1.007825032230
         H           -2.351820379568    -1.698932763862     0.810064694463     1.007825032230

  Basis Set: AUG-CC-PVTZ
    Blend: AUG-CC-PVTZ
  Basis Set: (AUG-CC-PVTZ AUX)
    Blend: AUG-CC-PVTZ-JKFIT
	 Reference Energy          =    -439.1094274372803739 [Eh]
	 Singles Energy            =      -0.0000000000000000 [Eh]
	 Same-Spin Energy          =      -0.4513221985165583 [Eh]
	 Opposite-Spin Energy      =      -1.4728900197571506 [Eh]
	 Correlation Energy        =      -1.9242122182737089 [Eh]
	 Total Energy              =    -441.0336396555540546 [Eh]

	 ================> DF-SCS-MP2 Energies <==================
	-----------------------------------------------------------
	 SCS Same-Spin Scale       =       0.3333333333333333 [-]
	 SCS Opposite-Spin Scale   =       1.2000000000000000 [-]
	 SCS Same-Spin Energy      =      -0.1504407328388528 [Eh]
	 SCS Opposite-Spin Energy  =      -1.7674680237085807 [Eh]
	 SCS Correlation Energy    =      -1.9179087565474335 [Eh]
	 SCS Total Energy          =    -441.0273361938278072 [Eh]
	-----------------------------------------------------------

  Dipole Moment: [D]
     X:     2.4964      Y:     1.0736      Z:     0.7253     Total:     2.8126

*** Psi4 exiting successfully. Buy a developer a beer!
