                               Psi4 1.4a3.dev225

  ==> Input File <==

--------------------------------------------------------------------------
#psi4
#
memory 32 gb

molecule  {
0 1
  O       -0.1447520     2.0657680    -0.9147710
  O       -2.4135200    -1.3721290    -0.1231600
  N        2.4623060    -1.2702550     0.0647480
  C        1.2743520    -0.4775570    -0.2805680
  C        1.2169020     0.7460590     0.6287670
  C        0.0292070    -1.3356180    -0.0781670
  C       -0.0652210     1.5501200     0.4236430
  C       -1.2046798    -0.4471950    -0.1909451
  C       -1.3010200     0.6792110     0.6017970
  H        1.2815110    -0.1258050    -1.3254330
  H        1.2829160     0.4071000     1.6706590
  H        2.0904420     1.3917410     0.4518040
  H        0.0420040    -2.2046970    -0.7480580
  H        0.0468530    -1.7199520     0.9526730
  H       -0.0971920     2.3821090     1.1446700
  H       -1.3133970    -0.2220240    -1.3458810
  H       -1.3538320     0.3483370     1.6492240
  H       -2.2017640     1.2636240     0.3898210
  H        3.3008500    -0.7206310    -0.1283000
  H        2.5136850    -2.0796090    -0.5553910
  H        0.6334020     2.6343050    -1.0521070
  H       -2.3814240    -1.6980050     0.7940470
units angstrom
no_reorient  #important for SAPT in psi4, default
symmetry c1  #important for SAPT in psi4, default
}

set PROPERTIES_ORIGIN ["COM"]
properties('MP2/aug-cc-pvtz', properties = ['dipole'])
--------------------------------------------------------------------------

    Molecular point group: c1
  Charge       = 0
  Multiplicity = 1
  Basis Set: AUG-CC-PVTZ
    Blend: AUG-CC-PVTZ
  Basis Set: (AUG-CC-PVTZ AUX)
    Blend: AUG-CC-PVTZ-JKFIT

    Orbital Energies [Eh]
    ---------------------

    Doubly Occupied:

       1A    -20.564733     2A    -20.543509     3A    -15.546724
       4A    -11.291650     5A    -11.276000     6A    -11.257073
       7A    -11.228966     8A    -11.221561     9A    -11.219771
      10A     -1.366062    11A     -1.321050    12A     -1.194212
      13A     -1.108799    14A     -1.005644    15A     -0.995764
      16A     -0.848031    17A     -0.816372    18A     -0.765700
      19A     -0.695539    20A     -0.681746    21A     -0.655208
      22A     -0.646483    23A     -0.630215    24A     -0.599948
      25A     -0.588621    26A     -0.564635    27A     -0.549536
      28A     -0.534673    29A     -0.528561    30A     -0.506409
      31A     -0.491126    32A     -0.458739    33A     -0.454670
      34A     -0.440050    35A     -0.429344    36A     -0.396699

  @DF-RHF Final Energy:  -439.07675982866721

   => Energetics <=

    Nuclear Repulsion Energy =            508.3660260330520373
    One-Electron Energy =               -1608.0379243696329468
    Two-Electron Energy =                 660.5951385079135889
    Total Energy =                       -439.0767598286672637
  Basis Set: (AUG-CC-PVTZ AUX)
    Blend: AUG-CC-PVTZ-RI
    Molecular point group: c1

    Geometry (in Angstrom), charge = 0, multiplicity = 1:

       Center              X                  Y                   Z               Mass
    ------------   -----------------  -----------------  -----------------  -----------------
         O           -0.120564336020     2.054011096802    -0.910743023316    15.994914619570
         O           -2.389332336020    -1.383885903198    -0.119132023316    15.994914619570
         N            2.486493663980    -1.282011903198     0.068775976684    14.003074004430
         C            1.298539663980    -0.489313903198    -0.276540023316    12.000000000000
         C            1.241089663980     0.734302096802     0.632794976684    12.000000000000
         C            0.053394663980    -1.347374903198    -0.074139023316    12.000000000000
         C           -0.041033336020     1.538363096802     0.427670976684    12.000000000000
         C           -1.180492136020    -0.458951903198    -0.186917123316    12.000000000000
         C           -1.276832336020     0.667454096802     0.605824976684    12.000000000000
         H            1.305698663980    -0.137561903198    -1.321405023316     1.007825032230
         H            1.307103663980     0.395343096802     1.674686976684     1.007825032230
         H            2.114629663980     1.379984096802     0.455831976684     1.007825032230
         H            0.066191663980    -2.216453903198    -0.744030023316     1.007825032230
         H            0.071040663980    -1.731708903198     0.956700976684     1.007825032230
         H           -0.073004336020     2.370352096802     1.148697976684     1.007825032230
         H           -1.289209336020    -0.233780903198    -1.341853023316     1.007825032230
         H           -1.329644336020     0.336580096802     1.653251976684     1.007825032230
         H           -2.177576336020     1.251867096802     0.393848976684     1.007825032230
         H            3.325037663980    -0.732387903198    -0.124272023316     1.007825032230
         H            2.537872663980    -2.091365903198    -0.551363023316     1.007825032230
         H            0.657589663980     2.622548096802    -1.048079023316     1.007825032230
         H           -2.357236336020    -1.709761903198     0.798074976684     1.007825032230

  Basis Set: AUG-CC-PVTZ
    Blend: AUG-CC-PVTZ
  Basis Set: (AUG-CC-PVTZ AUX)
    Blend: AUG-CC-PVTZ-JKFIT
	 Reference Energy          =    -439.0767598286672069 [Eh]
	 Singles Energy            =      -0.0000000000000000 [Eh]
	 Same-Spin Energy          =      -0.4541195051277202 [Eh]
	 Opposite-Spin Energy      =      -1.4781793753357988 [Eh]
	 Correlation Energy        =      -1.9322988804635191 [Eh]
	 Total Energy              =    -441.0090587091307270 [Eh]

	 ================> DF-SCS-MP2 Energies <==================
	-----------------------------------------------------------
	 SCS Same-Spin Scale       =       0.3333333333333333 [-]
	 SCS Opposite-Spin Scale   =       1.2000000000000000 [-]
	 SCS Same-Spin Energy      =      -0.1513731683759067 [Eh]
	 SCS Opposite-Spin Energy  =      -1.7738152504029585 [Eh]
	 SCS Correlation Energy    =      -1.9251884187788653 [Eh]
	 SCS Total Energy          =    -441.0019482474460801 [Eh]
	-----------------------------------------------------------

  Dipole Moment: [D]
     X:     2.8009      Y:     1.4313      Z:     0.8631     Total:     3.2617

*** Psi4 exiting successfully. Buy a developer a beer!
