                               Psi4 1.4a3.dev225

  ==> Input File <==

--------------------------------------------------------------------------
#psi4
#
memory 32 gb

molecule  {
0 1
  O       -0.1447520     2.0657680    -0.9147710
  O       -2.4135200    -1.3721290    -0.1231600
  N        2.4623060    -1.2702550     0.0647480
  C        1.2743520    -0.4775570    -0.2805680
  C        1.2131362     0.8262651     0.6883724
  C        0.0292070    -1.3356180    -0.0781670
  C       -0.0652210     1.5501200     0.4236430
  C       -1.2565570    -0.5478520    -0.3033930
  C       -1.3010200     0.6792110     0.6017970
  H        1.2815110    -0.1258050    -1.3254330
  H        1.2829160     0.4071000     1.6706590
  H        2.0904420     1.3917410     0.4518040
  H        0.0420040    -2.2046970    -0.7480580
  H        0.0468530    -1.7199520     0.9526730
  H       -0.0971920     2.3821090     1.1446700
  H       -1.3133970    -0.2220240    -1.3458810
  H       -1.3538320     0.3483370     1.6492240
  H       -2.2017640     1.2636240     0.3898210
  H        3.3008500    -0.7206310    -0.1283000
  H        2.5136850    -2.0796090    -0.5553910
  H        0.6334020     2.6343050    -1.0521070
  H       -2.3814240    -1.6980050     0.7940470
units angstrom
no_reorient  #important for SAPT in psi4, default
symmetry c1  #important for SAPT in psi4, default
}

set PROPERTIES_ORIGIN ["COM"]
properties('MP2/aug-cc-pvtz', properties = ['dipole'])
--------------------------------------------------------------------------

    Molecular point group: c1
  Charge       = 0
  Multiplicity = 1
  Basis Set: AUG-CC-PVTZ
    Blend: AUG-CC-PVTZ
  Basis Set: (AUG-CC-PVTZ AUX)
    Blend: AUG-CC-PVTZ-JKFIT

    Orbital Energies [Eh]
    ---------------------

    Doubly Occupied:

       1A    -20.562912     2A    -20.551401     3A    -15.546001
       4A    -11.284126     5A    -11.271592     6A    -11.259957
       7A    -11.224455     8A    -11.220605     9A    -11.217274
      10A     -1.363355    11A     -1.349915    12A     -1.187579
      13A     -1.086900    14A     -1.000875    15A     -0.980093
      16A     -0.839543    17A     -0.821578    18A     -0.770489
      19A     -0.695946    20A     -0.678443    21A     -0.653018
      22A     -0.642525    23A     -0.628259    24A     -0.612280
      25A     -0.593644    26A     -0.562516    27A     -0.548639
      28A     -0.532573    29A     -0.526979    30A     -0.503385
      31A     -0.491245    32A     -0.467602    33A     -0.462382
      34A     -0.439434    35A     -0.417374    36A     -0.389283

  @DF-RHF Final Energy:  -439.10157634849497

   => Energetics <=

    Nuclear Repulsion Energy =            505.7454293722840930
    One-Electron Energy =               -1602.9256506970843930
    Two-Electron Energy =                 658.0786449763052133
    Total Energy =                       -439.1015763484949730
  Basis Set: (AUG-CC-PVTZ AUX)
    Blend: AUG-CC-PVTZ-RI
    Molecular point group: c1

    Geometry (in Angstrom), charge = 0, multiplicity = 1:

       Center              X                  Y                   Z               Mass
    ------------   -----------------  -----------------  -----------------  -----------------
         O           -0.115470946559     2.055883109428    -0.905905983031    15.994914619570
         O           -2.384238946559    -1.382013890572    -0.114294983031    15.994914619570
         N            2.491587053441    -1.280139890572     0.073613016969    14.003074004430
         C            1.303633053441    -0.487441890572    -0.271702983031    12.000000000000
         C            1.242417253441     0.816380209428     0.697237416969    12.000000000000
         C            0.058488053441    -1.345502890572    -0.069301983031    12.000000000000
         C           -0.035939946559     1.540235109428     0.432508016969    12.000000000000
         C           -1.227275946559    -0.557736890572    -0.294527983031    12.000000000000
         C           -1.271738946559     0.669326109428     0.610662016969    12.000000000000
         H            1.310792053441    -0.135689890572    -1.316567983031     1.007825032230
         H            1.312197053441     0.397215109428     1.679524016969     1.007825032230
         H            2.119723053441     1.381856109428     0.460669016969     1.007825032230
         H            0.071285053441    -2.214581890572    -0.739192983031     1.007825032230
         H            0.076134053441    -1.729836890572     0.961538016969     1.007825032230
         H           -0.067910946559     2.372224109428     1.153535016969     1.007825032230
         H           -1.284115946559    -0.231908890572    -1.337015983031     1.007825032230
         H           -1.324550946559     0.338452109428     1.658089016969     1.007825032230
         H           -2.172482946559     1.253739109428     0.398686016969     1.007825032230
         H            3.330131053441    -0.730515890572    -0.119434983031     1.007825032230
         H            2.542966053441    -2.089493890572    -0.546525983031     1.007825032230
         H            0.662683053441     2.624420109428    -1.043241983031     1.007825032230
         H           -2.352142946559    -1.707889890572     0.802912016969     1.007825032230

  Basis Set: AUG-CC-PVTZ
    Blend: AUG-CC-PVTZ
  Basis Set: (AUG-CC-PVTZ AUX)
    Blend: AUG-CC-PVTZ-JKFIT
	 Reference Energy          =    -439.1015763484949730 [Eh]
	 Singles Energy            =      -0.0000000000000000 [Eh]
	 Same-Spin Energy          =      -0.4514051198457106 [Eh]
	 Opposite-Spin Energy      =      -1.4735064350568217 [Eh]
	 Correlation Energy        =      -1.9249115549025322 [Eh]
	 Total Energy              =    -441.0264879033974807 [Eh]

	 ================> DF-SCS-MP2 Energies <==================
	-----------------------------------------------------------
	 SCS Same-Spin Scale       =       0.3333333333333333 [-]
	 SCS Opposite-Spin Scale   =       1.2000000000000000 [-]
	 SCS Same-Spin Energy      =      -0.1504683732819035 [Eh]
	 SCS Opposite-Spin Energy  =      -1.7682077220681860 [Eh]
	 SCS Correlation Energy    =      -1.9186760953500894 [Eh]
	 SCS Total Energy          =    -441.0202524438450382 [Eh]
	-----------------------------------------------------------

  Dipole Moment: [D]
     X:     2.5748      Y:     1.1110      Z:     0.7360     Total:     2.8993

*** Psi4 exiting successfully. Buy a developer a beer!
