                               Psi4 1.4a3.dev225

  ==> Input File <==

--------------------------------------------------------------------------
#psi4
#
memory 32 gb

molecule  {
0 1
  O       -0.1447520     2.0657680    -0.9147710
  O       -2.4135200    -1.3721290    -0.1231600
  N        2.4623060    -1.2702550     0.0647480
  C        1.2743520    -0.4775570    -0.2805680
  C        1.2169020     0.7460590     0.6287670
  C        0.0292070    -1.3356180    -0.0781670
  C       -0.0586256     1.5536689     0.3980620
  C       -1.2565570    -0.5478520    -0.3033930
  C       -1.3010200     0.6792110     0.6017970
  H        1.2815110    -0.1258050    -1.3254330
  H        1.2829160     0.4071000     1.6706590
  H        2.0904420     1.3917410     0.4518040
  H        0.0420040    -2.2046970    -0.7480580
  H        0.0468530    -1.7199520     0.9526730
  H       -0.0971920     2.3821090     1.1446700
  H       -1.3133970    -0.2220240    -1.3458810
  H       -1.3538320     0.3483370     1.6492240
  H       -2.2017640     1.2636240     0.3898210
  H        3.3008500    -0.7206310    -0.1283000
  H        2.5136850    -2.0796090    -0.5553910
  H        0.6334020     2.6343050    -1.0521070
  H       -2.3814240    -1.6980050     0.7940470
units angstrom
no_reorient  #important for SAPT in psi4, default
symmetry c1  #important for SAPT in psi4, default
}

set PROPERTIES_ORIGIN ["COM"]
properties('MP2/aug-cc-pvtz', properties = ['dipole'])
--------------------------------------------------------------------------

    Molecular point group: c1
  Charge       = 0
  Multiplicity = 1
  Basis Set: AUG-CC-PVTZ
    Blend: AUG-CC-PVTZ
  Basis Set: (AUG-CC-PVTZ AUX)
    Blend: AUG-CC-PVTZ-JKFIT

    Orbital Energies [Eh]
    ---------------------

    Doubly Occupied:

       1A    -20.565147     2A    -20.551145     3A    -15.545860
       4A    -11.286141     5A    -11.271370     6A    -11.256178
       7A    -11.225189     8A    -11.219414     9A    -11.217425
      10A     -1.372778    11A     -1.349913    12A     -1.192151
      13A     -1.086056    14A     -0.995111    15A     -0.984765
      16A     -0.839433    17A     -0.822386    18A     -0.771512
      19A     -0.697520    20A     -0.679880    21A     -0.654310
      22A     -0.641175    23A     -0.627460    24A     -0.612126
      25A     -0.593071    26A     -0.564027    27A     -0.548761
      28A     -0.530680    29A     -0.529847    30A     -0.498926
      31A     -0.490973    32A     -0.475801    33A     -0.451381
      34A     -0.442777    35A     -0.418242    36A     -0.394831

  @DF-RHF Final Energy:  -439.10914252741657

   => Energetics <=

    Nuclear Repulsion Energy =            507.1070014732939057
    One-Electron Energy =               -1605.6247642423984416
    Two-Electron Energy =                 659.4086202416880269
    Total Energy =                       -439.1091425274165658
  Basis Set: (AUG-CC-PVTZ AUX)
    Blend: AUG-CC-PVTZ-RI
    Molecular point group: c1

    Geometry (in Angstrom), charge = 0, multiplicity = 1:

       Center              X                  Y                   Z               Mass
    ------------   -----------------  -----------------  -----------------  -----------------
         O           -0.116419379011     2.062900074267    -0.898108281398    15.994914619570
         O           -2.385187379011    -1.374996925733    -0.106497281398    15.994914619570
         N            2.490638620989    -1.273122925733     0.081410718602    14.003074004430
         C            1.302684620989    -0.480424925733    -0.263905281398    12.000000000000
         C            1.245234620989     0.743191074267     0.645429718602    12.000000000000
         C            0.057539620989    -1.338485925733    -0.061504281398    12.000000000000
         C           -0.030292979011     1.550800974267     0.414724718602    12.000000000000
         C           -1.228224379011    -0.550719925733    -0.286730281398    12.000000000000
         C           -1.272687379011     0.676343074267     0.618459718602    12.000000000000
         H            1.309843620989    -0.128672925733    -1.308770281398     1.007825032230
         H            1.311248620989     0.404232074267     1.687321718602     1.007825032230
         H            2.118774620989     1.388873074267     0.468466718602     1.007825032230
         H            0.070336620989    -2.207564925733    -0.731395281398     1.007825032230
         H            0.075185620989    -1.722819925733     0.969335718602     1.007825032230
         H           -0.068859379011     2.379241074267     1.161332718602     1.007825032230
         H           -1.285064379011    -0.224891925733    -1.329218281398     1.007825032230
         H           -1.325499379011     0.345469074267     1.665886718602     1.007825032230
         H           -2.173431379011     1.260756074267     0.406483718602     1.007825032230
         H            3.329182620989    -0.723498925733    -0.111637281398     1.007825032230
         H            2.542017620989    -2.082476925733    -0.538728281398     1.007825032230
         H            0.661734620989     2.631437074267    -1.035444281398     1.007825032230
         H           -2.353091379011    -1.700872925733     0.810709718602     1.007825032230

  Basis Set: AUG-CC-PVTZ
    Blend: AUG-CC-PVTZ
  Basis Set: (AUG-CC-PVTZ AUX)
    Blend: AUG-CC-PVTZ-JKFIT
	 Reference Energy          =    -439.1091425274165658 [Eh]
	 Singles Energy            =      -0.0000000000000000 [Eh]
	 Same-Spin Energy          =      -0.4515013026829837 [Eh]
	 Opposite-Spin Energy      =      -1.4729709686086916 [Eh]
	 Correlation Energy        =      -1.9244722712916753 [Eh]
	 Total Energy              =    -441.0336147987082427 [Eh]

	 ================> DF-SCS-MP2 Energies <==================
	-----------------------------------------------------------
	 SCS Same-Spin Scale       =       0.3333333333333333 [-]
	 SCS Opposite-Spin Scale   =       1.2000000000000000 [-]
	 SCS Same-Spin Energy      =      -0.1505004342276612 [Eh]
	 SCS Opposite-Spin Energy  =      -1.7675651623304298 [Eh]
	 SCS Correlation Energy    =      -1.9180655965580911 [Eh]
	 SCS Total Energy          =    -441.0272081239746740 [Eh]
	-----------------------------------------------------------

  Dipole Moment: [D]
     X:     2.5471      Y:     1.1640      Z:     0.6641     Total:     2.8781

*** Psi4 exiting successfully. Buy a developer a beer!
