                               Psi4 1.4a3.dev225

  ==> Input File <==

--------------------------------------------------------------------------
#psi4
#
memory 32 gb

molecule  {
0 1
  O       -0.1447520     2.0657680    -0.9147710
  O       -2.4135200    -1.3721290    -0.1231600
  N        2.4623060    -1.2702550     0.0647480
  C        1.2743520    -0.4775570    -0.2805680
  C        1.2169020     0.7460590     0.6287670
  C        0.0292070    -1.3356180    -0.0781670
  C       -0.0652210     1.5501200     0.4236430
  C       -1.2565570    -0.5478520    -0.3033930
  C       -1.3010200     0.6792110     0.6017970
  H        1.2815110    -0.1258050    -1.3254330
  H        1.2829160     0.4071000     1.6706590
  H        2.0904420     1.3917410     0.4518040
  H        0.0420040    -2.2046970    -0.7480580
  H        0.0468530    -1.7199520     0.9526730
  H       -0.0971920     2.3821090     1.1446700
  H       -1.3133970    -0.2220240    -1.3458810
  H       -1.3538320     0.3483370     1.6492240
  H       -2.2017640     1.2636240     0.3898210
  H        3.4651039    -0.6129707    -0.1661142
  H        2.5136850    -2.0796090    -0.5553910
  H        0.6334020     2.6343050    -1.0521070
  H       -2.3814240    -1.6980050     0.7940470
units angstrom
no_reorient  #important for SAPT in psi4, default
symmetry c1  #important for SAPT in psi4, default
}

set PROPERTIES_ORIGIN ["COM"]
properties('MP2/aug-cc-pvtz', properties = ['dipole'])
--------------------------------------------------------------------------

    Molecular point group: c1
  Charge       = 0
  Multiplicity = 1
  Basis Set: AUG-CC-PVTZ
    Blend: AUG-CC-PVTZ
  Basis Set: (AUG-CC-PVTZ AUX)
    Blend: AUG-CC-PVTZ-JKFIT

    Orbital Energies [Eh]
    ---------------------

    Doubly Occupied:

       1A    -20.561892     2A    -20.552430     3A    -15.566744
       4A    -11.285880     5A    -11.273000     6A    -11.257467
       7A    -11.225474     8A    -11.220219     9A    -11.219309
      10A     -1.362707    11A     -1.350835    12A     -1.179510
      13A     -1.082517    14A     -0.996313    15A     -0.980766
      16A     -0.840502    17A     -0.820081    18A     -0.769394
      19A     -0.694145    20A     -0.677850    21A     -0.643524
      22A     -0.641986    23A     -0.617999    24A     -0.607485
      25A     -0.587093    26A     -0.559303    27A     -0.542249
      28A     -0.530257    29A     -0.525649    30A     -0.500034
      31A     -0.490237    32A     -0.475781    33A     -0.453695
      34A     -0.442695    35A     -0.420761    36A     -0.393743

  @DF-RHF Final Energy:  -439.08164969617434

   => Energetics <=

    Nuclear Repulsion Energy =            505.9352980343223862
    One-Electron Energy =               -1603.3348440790935001
    Two-Electron Energy =                 658.3178963485968325
    Total Energy =                       -439.0816496961742814
  Basis Set: (AUG-CC-PVTZ AUX)
    Blend: AUG-CC-PVTZ-RI
    Molecular point group: c1

    Geometry (in Angstrom), charge = 0, multiplicity = 1:

       Center              X                  Y                   Z               Mass
    ------------   -----------------  -----------------  -----------------  -----------------
         O           -0.117078402137     2.062397262322    -0.900159180855    15.994914619570
         O           -2.385846402137    -1.375499737678    -0.108548180855    15.994914619570
         N            2.489979597863    -1.273625737678     0.079359819145    14.003074004430
         C            1.302025597863    -0.480927737678    -0.265956180855    12.000000000000
         C            1.244575597863     0.742688262322     0.643378819145    12.000000000000
         C            0.056880597863    -1.338988737678    -0.063555180855    12.000000000000
         C           -0.037547402137     1.546749262322     0.438254819145    12.000000000000
         C           -1.228883402137    -0.551222737678    -0.288781180855    12.000000000000
         C           -1.273346402137     0.675840262322     0.616408819145    12.000000000000
         H            1.309184597863    -0.129175737678    -1.310821180855     1.007825032230
         H            1.310589597863     0.403729262322     1.685270819145     1.007825032230
         H            2.118115597863     1.388370262322     0.466415819145     1.007825032230
         H            0.069677597863    -2.208067737678    -0.733446180855     1.007825032230
         H            0.074526597863    -1.723322737678     0.967284819145     1.007825032230
         H           -0.069518402137     2.378738262322     1.159281819145     1.007825032230
         H           -1.285723402137    -0.225394737678    -1.331269180855     1.007825032230
         H           -1.326158402137     0.344966262322     1.663835819145     1.007825032230
         H           -2.174090402137     1.260253262322     0.404432819145     1.007825032230
         H            3.492777497863    -0.616341437678    -0.151502380855     1.007825032230
         H            2.541358597863    -2.082979737678    -0.540779180855     1.007825032230
         H            0.661075597863     2.630934262322    -1.037495180855     1.007825032230
         H           -2.353750402137    -1.701375737678     0.808658819145     1.007825032230

  Basis Set: AUG-CC-PVTZ
    Blend: AUG-CC-PVTZ
  Basis Set: (AUG-CC-PVTZ AUX)
    Blend: AUG-CC-PVTZ-JKFIT
	 Reference Energy          =    -439.0816496961743383 [Eh]
	 Singles Energy            =      -0.0000000000000000 [Eh]
	 Same-Spin Energy          =      -0.4524960397157058 [Eh]
	 Opposite-Spin Energy      =      -1.4772791833677412 [Eh]
	 Correlation Energy        =      -1.9297752230834471 [Eh]
	 Total Energy              =    -441.0114249192577631 [Eh]

	 ================> DF-SCS-MP2 Energies <==================
	-----------------------------------------------------------
	 SCS Same-Spin Scale       =       0.3333333333333333 [-]
	 SCS Opposite-Spin Scale   =       1.2000000000000000 [-]
	 SCS Same-Spin Energy      =      -0.1508320132385686 [Eh]
	 SCS Opposite-Spin Energy  =      -1.7727350200412895 [Eh]
	 SCS Correlation Energy    =      -1.9235670332798580 [Eh]
	 SCS Total Energy          =    -441.0052167294542187 [Eh]
	-----------------------------------------------------------

  Dipole Moment: [D]
     X:     2.4753      Y:     1.1427      Z:     0.7577     Total:     2.8297

*** Psi4 exiting successfully. Buy a developer a beer!
