                               Psi4 1.4a3.dev225

  ==> Input File <==

--------------------------------------------------------------------------
#psi4
#
memory 32 gb

molecule  {
0 1
  O       -0.1447520     2.0657680    -0.9147710
  O       -2.4135200    -1.3721290    -0.1231600
  N        2.4494692    -1.3037863     0.0281271
  C        1.2743520    -0.4775570    -0.2805680
  C        1.2169020     0.7460590     0.6287670
  C        0.0292070    -1.3356180    -0.0781670
  C       -0.0652210     1.5501200     0.4236430
  C       -1.2565570    -0.5478520    -0.3033930
  C       -1.3010200     0.6792110     0.6017970
  H        1.2815110    -0.1258050    -1.3254330
  H        1.2829160     0.4071000     1.6706590
  H        2.0904420     1.3917410     0.4518040
  H        0.0420040    -2.2046970    -0.7480580
  H        0.0468530    -1.7199520     0.9526730
  H       -0.0971920     2.3821090     1.1446700
  H       -1.3133970    -0.2220240    -1.3458810
  H       -1.3538320     0.3483370     1.6492240
  H       -2.2017640     1.2636240     0.3898210
  H        3.3008500    -0.7206310    -0.1283000
  H        2.5136850    -2.0796090    -0.5553910
  H        0.6334020     2.6343050    -1.0521070
  H       -2.3814240    -1.6980050     0.7940470
units angstrom
no_reorient  #important for SAPT in psi4, default
symmetry c1  #important for SAPT in psi4, default
}

set PROPERTIES_ORIGIN ["COM"]
properties('MP2/aug-cc-pvtz', properties = ['dipole'])
--------------------------------------------------------------------------

    Molecular point group: c1
  Charge       = 0
  Multiplicity = 1
  Basis Set: AUG-CC-PVTZ
    Blend: AUG-CC-PVTZ
  Basis Set: (AUG-CC-PVTZ AUX)
    Blend: AUG-CC-PVTZ-JKFIT

    Orbital Energies [Eh]
    ---------------------

    Doubly Occupied:

       1A    -20.562202     2A    -20.551252     3A    -15.541943
       4A    -11.286855     5A    -11.271380     6A    -11.256568
       7A    -11.227195     8A    -11.219983     9A    -11.216860
      10A     -1.362986    11A     -1.349761    12A     -1.193456
      13A     -1.088352    14A     -0.996031    15A     -0.987233
      16A     -0.840477    17A     -0.824193    18A     -0.769743
      19A     -0.695828    20A     -0.678953    21A     -0.661112
      22A     -0.641963    23A     -0.624522    24A     -0.611270
      25A     -0.592894    26A     -0.564963    27A     -0.549114
      28A     -0.530529    29A     -0.526654    30A     -0.500134
      31A     -0.490856    32A     -0.476696    33A     -0.454156
      34A     -0.443013    35A     -0.420281    36A     -0.392219

  @DF-RHF Final Energy:  -439.10777923404845

   => Energetics <=

    Nuclear Repulsion Energy =            506.8914329763910587
    One-Electron Energy =               -1605.1951697344904915
    Two-Electron Energy =                 659.1959575240508684
    Total Energy =                       -439.1077792340485075
  Basis Set: (AUG-CC-PVTZ AUX)
    Blend: AUG-CC-PVTZ-RI
    Molecular point group: c1

    Geometry (in Angstrom), charge = 0, multiplicity = 1:

       Center              X                  Y                   Z               Mass
    ------------   -----------------  -----------------  -----------------  -----------------
         O           -0.114444473837     2.066806626966    -0.896538169984    15.994914619570
         O           -2.383212473837    -1.371090373034    -0.104927169984    15.994914619570
         N            2.479776726163    -1.302747673034     0.046359930016    14.003074004430
         C            1.304659526163    -0.476518373034    -0.262335169984    12.000000000000
         C            1.247209526163     0.747097626966     0.646999830016    12.000000000000
         C            0.059514526163    -1.334579373034    -0.059934169984    12.000000000000
         C           -0.034913473837     1.551158626966     0.441875830016    12.000000000000
         C           -1.226249473837    -0.546813373034    -0.285160169984    12.000000000000
         C           -1.270712473837     0.680249626966     0.620029830016    12.000000000000
         H            1.311818526163    -0.124766373034    -1.307200169984     1.007825032230
         H            1.313223526163     0.408138626966     1.688891830016     1.007825032230
         H            2.120749526163     1.392779626966     0.470036830016     1.007825032230
         H            0.072311526163    -2.203658373034    -0.729825169984     1.007825032230
         H            0.077160526163    -1.718913373034     0.970905830016     1.007825032230
         H           -0.066884473837     2.383147626966     1.162902830016     1.007825032230
         H           -1.283089473837    -0.220985373034    -1.327648169984     1.007825032230
         H           -1.323524473837     0.349375626966     1.667456830016     1.007825032230
         H           -2.171456473837     1.264662626966     0.408053830016     1.007825032230
         H            3.331157526163    -0.719592373034    -0.110067169984     1.007825032230
         H            2.543992526163    -2.078570373034    -0.537158169984     1.007825032230
         H            0.663709526163     2.635343626966    -1.033874169984     1.007825032230
         H           -2.351116473837    -1.696966373034     0.812279830016     1.007825032230

  Basis Set: AUG-CC-PVTZ
    Blend: AUG-CC-PVTZ
  Basis Set: (AUG-CC-PVTZ AUX)
    Blend: AUG-CC-PVTZ-JKFIT
	 Reference Energy          =    -439.1077792340484507 [Eh]
	 Singles Energy            =      -0.0000000000000000 [Eh]
	 Same-Spin Energy          =      -0.4513184258336048 [Eh]
	 Opposite-Spin Energy      =      -1.4727221558361978 [Eh]
	 Correlation Energy        =      -1.9240405816698027 [Eh]
	 Total Energy              =    -441.0318198157182792 [Eh]

	 ================> DF-SCS-MP2 Energies <==================
	-----------------------------------------------------------
	 SCS Same-Spin Scale       =       0.3333333333333333 [-]
	 SCS Opposite-Spin Scale   =       1.2000000000000000 [-]
	 SCS Same-Spin Energy      =      -0.1504394752778683 [Eh]
	 SCS Opposite-Spin Energy  =      -1.7672665870034374 [Eh]
	 SCS Correlation Energy    =      -1.9177060622813056 [Eh]
	 SCS Total Energy          =    -441.0254852963297481 [Eh]
	-----------------------------------------------------------

  Dipole Moment: [D]
     X:     2.5510      Y:     1.1735      Z:     0.8049     Total:     2.9211

*** Psi4 exiting successfully. Buy a developer a beer!
