                               Psi4 1.4a3.dev225

  ==> Input File <==

--------------------------------------------------------------------------
#psi4
#
memory 32 gb

molecule  {
0 1
  O       -0.1447520     2.0657680    -0.9147710
  O       -2.4135200    -1.3721290    -0.1231600
  N        2.4623060    -1.2702550     0.0647480
  C        1.2743520    -0.4775570    -0.2805680
  C        1.2169020     0.7460590     0.6287670
  C        0.0292070    -1.3356180    -0.0781670
  C       -0.0652210     1.5501200     0.4236430
  C       -1.2565570    -0.5478520    -0.3033930
  C       -1.3010200     0.6792110     0.6017970
  H        1.2815110    -0.1258050    -1.3254330
  H        1.2829160     0.4071000     1.6706590
  H        2.0904420     1.3917410     0.4518040
  H        0.0420040    -2.2046970    -0.7480580
  H        0.0468530    -1.7199520     0.9526730
  H       -0.0971920     2.3821090     1.1446700
  H       -1.3133970    -0.2220240    -1.3458810
  H       -1.3538320     0.3483370     1.6492240
  H       -2.2182243     1.2743036     0.3859473
  H        3.3008500    -0.7206310    -0.1283000
  H        2.5136850    -2.0796090    -0.5553910
  H        0.6334020     2.6343050    -1.0521070
  H       -2.3814240    -1.6980050     0.7940470
units angstrom
no_reorient  #important for SAPT in psi4, default
symmetry c1  #important for SAPT in psi4, default
}

set PROPERTIES_ORIGIN ["COM"]
properties('MP2/aug-cc-pvtz', properties = ['dipole'])
--------------------------------------------------------------------------

    Molecular point group: c1
  Charge       = 0
  Multiplicity = 1
  Basis Set: AUG-CC-PVTZ
    Blend: AUG-CC-PVTZ
  Basis Set: (AUG-CC-PVTZ AUX)
    Blend: AUG-CC-PVTZ-JKFIT

    Orbital Energies [Eh]
    ---------------------

    Doubly Occupied:

       1A    -20.561873     2A    -20.551643     3A    -15.546145
       4A    -11.286085     5A    -11.272100     6A    -11.256595
       7A    -11.225973     8A    -11.222194     9A    -11.217834
      10A     -1.362649    11A     -1.350104    12A     -1.192432
      13A     -1.087208    14A     -0.996209    15A     -0.985163
      16A     -0.840456    17A     -0.822472    18A     -0.769531
      19A     -0.695899    20A     -0.677717    21A     -0.654796
      22A     -0.640603    23A     -0.625927    24A     -0.611747
      25A     -0.591692    26A     -0.563518    27A     -0.548388
      28A     -0.529216    29A     -0.526772    30A     -0.499853
      31A     -0.490157    32A     -0.475688    33A     -0.453474
      34A     -0.444062    35A     -0.420356    36A     -0.395501

  @DF-RHF Final Energy:  -439.10892886986977

   => Energetics <=

    Nuclear Repulsion Energy =            506.7780789132530685
    One-Electron Energy =               -1604.9899484523023148
    Two-Electron Energy =                 659.1029406691795884
    Total Energy =                       -439.1089288698697146
  Basis Set: (AUG-CC-PVTZ AUX)
    Blend: AUG-CC-PVTZ-RI
    Molecular point group: c1

    Geometry (in Angstrom), charge = 0, multiplicity = 1:

       Center              X                  Y                   Z               Mass
    ------------   -----------------  -----------------  -----------------  -----------------
         O           -0.115689113375     2.063142827400    -0.900420107529    15.994914619570
         O           -2.384457113375    -1.374754172600    -0.108809107529    15.994914619570
         N            2.491368886625    -1.272880172600     0.079098892471    14.003074004430
         C            1.303414886625    -0.480182172600    -0.266217107529    12.000000000000
         C            1.245964886625     0.743433827400     0.643117892471    12.000000000000
         C            0.058269886625    -1.338243172600    -0.063816107529    12.000000000000
         C           -0.036158113375     1.547494827400     0.437993892471    12.000000000000
         C           -1.227494113375    -0.550477172600    -0.289042107529    12.000000000000
         C           -1.271957113375     0.676585827400     0.616147892471    12.000000000000
         H            1.310573886625    -0.128430172600    -1.311082107529     1.007825032230
         H            1.311978886625     0.404474827400     1.685009892471     1.007825032230
         H            2.119504886625     1.389115827400     0.466154892471     1.007825032230
         H            0.071066886625    -2.207322172600    -0.733707107529     1.007825032230
         H            0.075915886625    -1.722577172600     0.967023892471     1.007825032230
         H           -0.068129113375     2.379483827400     1.159020892471     1.007825032230
         H           -1.284334113375    -0.224649172600    -1.331530107529     1.007825032230
         H           -1.324769113375     0.345711827400     1.663574892471     1.007825032230
         H           -2.189161413375     1.271678427400     0.400298192471     1.007825032230
         H            3.329912886625    -0.723256172600    -0.113949107529     1.007825032230
         H            2.542747886625    -2.082234172600    -0.541040107529     1.007825032230
         H            0.662464886625     2.631679827400    -1.037756107529     1.007825032230
         H           -2.352361113375    -1.700630172600     0.808397892471     1.007825032230

  Basis Set: AUG-CC-PVTZ
    Blend: AUG-CC-PVTZ
  Basis Set: (AUG-CC-PVTZ AUX)
    Blend: AUG-CC-PVTZ-JKFIT
	 Reference Energy          =    -439.1089288698697715 [Eh]
	 Singles Energy            =      -0.0000000000000000 [Eh]
	 Same-Spin Energy          =      -0.4515350558296116 [Eh]
	 Opposite-Spin Energy      =      -1.4734273767461596 [Eh]
	 Correlation Energy        =      -1.9249624325757713 [Eh]
	 Total Energy              =    -441.0338913024455678 [Eh]

	 ================> DF-SCS-MP2 Energies <==================
	-----------------------------------------------------------
	 SCS Same-Spin Scale       =       0.3333333333333333 [-]
	 SCS Opposite-Spin Scale   =       1.2000000000000000 [-]
	 SCS Same-Spin Energy      =      -0.1505116852765372 [Eh]
	 SCS Opposite-Spin Energy  =      -1.7681128520953915 [Eh]
	 SCS Correlation Energy    =      -1.9186245373719286 [Eh]
	 SCS Total Energy          =    -441.0275534072417258 [Eh]
	-----------------------------------------------------------

  Dipole Moment: [D]
     X:     2.5480      Y:     1.1212      Z:     0.7436     Total:     2.8814

*** Psi4 exiting successfully. Buy a developer a beer!
