                               Psi4 1.4a3.dev225

  ==> Input File <==

--------------------------------------------------------------------------
#psi4
#
memory 32 gb

molecule  {
0 1
  O       -0.1447520     2.0657680    -0.9147710
  O       -2.4135200    -1.3721290    -0.1231600
  N        2.4623060    -1.2702550     0.0647480
  C        1.2743520    -0.4775570    -0.2805680
  C        1.2169020     0.7460590     0.6287670
  C        0.0292070    -1.3356180    -0.0781670
  C       -0.0652210     1.5501200     0.4236430
  C       -1.2565570    -0.5478520    -0.3033930
  C       -1.2604303     0.7078159     0.5959456
  H        1.2815110    -0.1258050    -1.3254330
  H        1.2829160     0.4071000     1.6706590
  H        2.0904420     1.3917410     0.4518040
  H        0.0420040    -2.2046970    -0.7480580
  H        0.0468530    -1.7199520     0.9526730
  H       -0.0971920     2.3821090     1.1446700
  H       -1.3133970    -0.2220240    -1.3458810
  H       -1.3538320     0.3483370     1.6492240
  H       -2.2017640     1.2636240     0.3898210
  H        3.3008500    -0.7206310    -0.1283000
  H        2.5136850    -2.0796090    -0.5553910
  H        0.6334020     2.6343050    -1.0521070
  H       -2.3814240    -1.6980050     0.7940470
units angstrom
no_reorient  #important for SAPT in psi4, default
symmetry c1  #important for SAPT in psi4, default
}

set PROPERTIES_ORIGIN ["COM"]
properties('MP2/aug-cc-pvtz', properties = ['dipole'])
--------------------------------------------------------------------------

    Molecular point group: c1
  Charge       = 0
  Multiplicity = 1
  Basis Set: AUG-CC-PVTZ
    Blend: AUG-CC-PVTZ
  Basis Set: (AUG-CC-PVTZ AUX)
    Blend: AUG-CC-PVTZ-JKFIT

    Orbital Energies [Eh]
    ---------------------

    Doubly Occupied:

       1A    -20.562040     2A    -20.553762     3A    -15.546092
       4A    -11.283879     5A    -11.273124     6A    -11.256563
       7A    -11.226004     8A    -11.221335     9A    -11.217199
      10A     -1.363941    11A     -1.350730    12A     -1.192479
      13A     -1.090790    14A     -0.998083    15A     -0.986169
      16A     -0.841965    17A     -0.821655    18A     -0.769046
      19A     -0.697848    20A     -0.678570    21A     -0.655367
      22A     -0.640758    23A     -0.627368    24A     -0.611535
      25A     -0.591376    26A     -0.564851    27A     -0.547780
      28A     -0.528174    29A     -0.525240    30A     -0.502497
      31A     -0.490992    32A     -0.474829    33A     -0.457677
      34A     -0.444533    35A     -0.416799    36A     -0.395215

  @DF-RHF Final Energy:  -439.10623506116451

   => Energetics <=

    Nuclear Repulsion Energy =            507.3451087532496899
    One-Electron Energy =               -1606.0901549888965292
    Two-Electron Energy =                 659.6388111744823846
    Total Energy =                       -439.1062350611645115
  Basis Set: (AUG-CC-PVTZ AUX)
    Blend: AUG-CC-PVTZ-RI
    Molecular point group: c1

    Geometry (in Angstrom), charge = 0, multiplicity = 1:

       Center              X                  Y                   Z               Mass
    ------------   -----------------  -----------------  -----------------  -----------------
         O           -0.119531112910     2.060606524920    -0.899914268435    15.994914619570
         O           -2.388299112910    -1.377290475080    -0.108303268435    15.994914619570
         N            2.487526887090    -1.275416475080     0.079604731565    14.003074004430
         C            1.299572887090    -0.482718475080    -0.265711268435    12.000000000000
         C            1.242122887090     0.740897524920     0.643623731565    12.000000000000
         C            0.054427887090    -1.340779475080    -0.063310268435    12.000000000000
         C           -0.040000112910     1.544958524920     0.438499731565    12.000000000000
         C           -1.231336112910    -0.553013475080    -0.288536268435    12.000000000000
         C           -1.235209412910     0.702654424920     0.610802331565    12.000000000000
         H            1.306731887090    -0.130966475080    -1.310576268435     1.007825032230
         H            1.308136887090     0.401938524920     1.685515731565     1.007825032230
         H            2.115662887090     1.386579524920     0.466660731565     1.007825032230
         H            0.067224887090    -2.209858475080    -0.733201268435     1.007825032230
         H            0.072073887090    -1.725113475080     0.967529731565     1.007825032230
         H           -0.071971112910     2.376947524920     1.159526731565     1.007825032230
         H           -1.288176112910    -0.227185475080    -1.331024268435     1.007825032230
         H           -1.328611112910     0.343175524920     1.664080731565     1.007825032230
         H           -2.176543112910     1.258462524920     0.404677731565     1.007825032230
         H            3.326070887090    -0.725792475080    -0.113443268435     1.007825032230
         H            2.538905887090    -2.084770475080    -0.540534268435     1.007825032230
         H            0.658622887090     2.629143524920    -1.037250268435     1.007825032230
         H           -2.356203112910    -1.703166475080     0.808903731565     1.007825032230

  Basis Set: AUG-CC-PVTZ
    Blend: AUG-CC-PVTZ
  Basis Set: (AUG-CC-PVTZ AUX)
    Blend: AUG-CC-PVTZ-JKFIT
	 Reference Energy          =    -439.1062350611645115 [Eh]
	 Singles Energy            =      -0.0000000000000000 [Eh]
	 Same-Spin Energy          =      -0.4519193995767015 [Eh]
	 Opposite-Spin Energy      =      -1.4738028478042848 [Eh]
	 Correlation Energy        =      -1.9257222473809863 [Eh]
	 Total Energy              =    -441.0319573085454863 [Eh]

	 ================> DF-SCS-MP2 Energies <==================
	-----------------------------------------------------------
	 SCS Same-Spin Scale       =       0.3333333333333333 [-]
	 SCS Opposite-Spin Scale   =       1.2000000000000000 [-]
	 SCS Same-Spin Energy      =      -0.1506397998589005 [Eh]
	 SCS Opposite-Spin Energy  =      -1.7685634173651417 [Eh]
	 SCS Correlation Energy    =      -1.9192032172240421 [Eh]
	 SCS Total Energy          =    -441.0254382783885490 [Eh]
	-----------------------------------------------------------

  Dipole Moment: [D]
     X:     2.5223      Y:     1.1037      Z:     0.7434     Total:     2.8518

*** Psi4 exiting successfully. Buy a developer a beer!
