                               Psi4 1.4a3.dev225

  ==> Input File <==

--------------------------------------------------------------------------
#psi4
#
memory 32 gb

molecule  {
0 1
  O       -0.1447520     2.0657680    -0.9147710
  O       -2.4135200    -1.3721290    -0.1231600
  N        2.4623060    -1.2702550     0.0647480
  C        1.2743520    -0.4775570    -0.2805680
  C        1.2169020     0.7460590     0.6287670
  C        0.0292070    -1.3356180    -0.0781670
  C       -0.0652210     1.5501200     0.4236430
  C       -1.2565570    -0.5478520    -0.3033930
  C       -1.3010200     0.6792110     0.6017970
  H        1.2828097    -0.0619956    -1.5149763
  H        1.2829160     0.4071000     1.6706590
  H        2.0904420     1.3917410     0.4518040
  H        0.0420040    -2.2046970    -0.7480580
  H        0.0468530    -1.7199520     0.9526730
  H       -0.0971920     2.3821090     1.1446700
  H       -1.3133970    -0.2220240    -1.3458810
  H       -1.3538320     0.3483370     1.6492240
  H       -2.2017640     1.2636240     0.3898210
  H        3.3008500    -0.7206310    -0.1283000
  H        2.5136850    -2.0796090    -0.5553910
  H        0.6334020     2.6343050    -1.0521070
  H       -2.3814240    -1.6980050     0.7940470
units angstrom
no_reorient  #important for SAPT in psi4, default
symmetry c1  #important for SAPT in psi4, default
}

set PROPERTIES_ORIGIN ["COM"]
properties('MP2/aug-cc-pvtz', properties = ['dipole'])
--------------------------------------------------------------------------

    Molecular point group: c1
  Charge       = 0
  Multiplicity = 1
  Basis Set: AUG-CC-PVTZ
    Blend: AUG-CC-PVTZ
  Basis Set: (AUG-CC-PVTZ AUX)
    Blend: AUG-CC-PVTZ-JKFIT

    Orbital Energies [Eh]
    ---------------------

    Doubly Occupied:

       1A    -20.560430     2A    -20.552053     3A    -15.550024
       4A    -11.286257     5A    -11.279613     6A    -11.272105
       7A    -11.228525     8A    -11.220321     9A    -11.220156
      10A     -1.361546    11A     -1.350416    12A     -1.192815
      13A     -1.088115    14A     -0.997216    15A     -0.984823
      16A     -0.841274    17A     -0.817462    18A     -0.760808
      19A     -0.695478    20A     -0.671200    21A     -0.655020
      22A     -0.637559    23A     -0.626534    24A     -0.611998
      25A     -0.588353    26A     -0.563114    27A     -0.547809
      28A     -0.531068    29A     -0.526629    30A     -0.498643
      31A     -0.485661    32A     -0.476053    33A     -0.454050
      34A     -0.445304    35A     -0.420467    36A     -0.386175

  @DF-RHF Final Energy:  -439.08979566605399

   => Energetics <=

    Nuclear Repulsion Energy =            505.9538201522969416
    One-Electron Energy =               -1603.3170832990906547
    Two-Electron Energy =                 658.2734674807397823
    Total Energy =                       -439.0897956660539876
  Basis Set: (AUG-CC-PVTZ AUX)
    Blend: AUG-CC-PVTZ-RI
    Molecular point group: c1

    Geometry (in Angstrom), charge = 0, multiplicity = 1:

       Center              X                  Y                   Z               Mass
    ------------   -----------------  -----------------  -----------------  -----------------
         O           -0.115825640439     2.062734377848    -0.898992722803    15.994914619570
         O           -2.384593640439    -1.375162622152    -0.107381722803    15.994914619570
         N            2.491232359561    -1.273288622152     0.080526277197    14.003074004430
         C            1.303278359561    -0.480590622152    -0.264789722803    12.000000000000
         C            1.245828359561     0.743025377848     0.644545277197    12.000000000000
         C            0.058133359561    -1.338651622152    -0.062388722803    12.000000000000
         C           -0.036294640439     1.547086377848     0.439421277197    12.000000000000
         C           -1.227630640439    -0.550885622152    -0.287614722803    12.000000000000
         C           -1.272093640439     0.676177377848     0.617575277197    12.000000000000
         H            1.311736059561    -0.065029222152    -1.499198022803     1.007825032230
         H            1.311842359561     0.404066377848     1.686437277197     1.007825032230
         H            2.119368359561     1.388707377848     0.467582277197     1.007825032230
         H            0.070930359561    -2.207730622152    -0.732279722803     1.007825032230
         H            0.075779359561    -1.722985622152     0.968451277197     1.007825032230
         H           -0.068265640439     2.379075377848     1.160448277197     1.007825032230
         H           -1.284470640439    -0.225057622152    -1.330102722803     1.007825032230
         H           -1.324905640439     0.345303377848     1.665002277197     1.007825032230
         H           -2.172837640439     1.260590377848     0.405599277197     1.007825032230
         H            3.329776359561    -0.723664622152    -0.112521722803     1.007825032230
         H            2.542611359561    -2.082642622152    -0.539612722803     1.007825032230
         H            0.662328359561     2.631271377848    -1.036328722803     1.007825032230
         H           -2.352497640439    -1.701038622152     0.809825277197     1.007825032230

  Basis Set: AUG-CC-PVTZ
    Blend: AUG-CC-PVTZ
  Basis Set: (AUG-CC-PVTZ AUX)
    Blend: AUG-CC-PVTZ-JKFIT
	 Reference Energy          =    -439.0897956660539876 [Eh]
	 Singles Energy            =      -0.0000000000000000 [Eh]
	 Same-Spin Energy          =      -0.4518689633959437 [Eh]
	 Opposite-Spin Energy      =      -1.4751919037250216 [Eh]
	 Correlation Energy        =      -1.9270608671209652 [Eh]
	 Total Energy              =    -441.0168565331749733 [Eh]

	 ================> DF-SCS-MP2 Energies <==================
	-----------------------------------------------------------
	 SCS Same-Spin Scale       =       0.3333333333333333 [-]
	 SCS Opposite-Spin Scale   =       1.2000000000000000 [-]
	 SCS Same-Spin Energy      =      -0.1506229877986479 [Eh]
	 SCS Opposite-Spin Energy  =      -1.7702302844700259 [Eh]
	 SCS Correlation Energy    =      -1.9208532722686738 [Eh]
	 SCS Total Energy          =    -441.0106489383226744 [Eh]
	-----------------------------------------------------------

  Dipole Moment: [D]
     X:     2.5772      Y:     1.0392      Z:     0.9337     Total:     2.9315

*** Psi4 exiting successfully. Buy a developer a beer!
