                               Psi4 1.4a3.dev225

  ==> Input File <==

--------------------------------------------------------------------------
#psi4
#
memory 32 gb

molecule  {
0 1
  O       -0.1447520     2.0657680    -0.9147710
  O       -2.4135200    -1.3721290    -0.1231600
  N        2.4623060    -1.2702550     0.0647480
  C        1.2743520    -0.4775570    -0.2805680
  C        1.2169020     0.7460590     0.6287670
  C        0.0292070    -1.3356180    -0.0781670
  C       -0.0652210     1.5501200     0.4236430
  C       -1.2565570    -0.5478520    -0.3033930
  C       -1.3010200     0.6792110     0.6017970
  H        1.2815110    -0.1258050    -1.3254330
  H        1.2829160     0.4071000     1.6706590
  H        2.0904420     1.3917410     0.4518040
  H        0.0420040    -2.2046970    -0.7480580
  H        0.0468530    -1.7199520     0.9526730
  H       -0.1029975     2.5331858     1.2755978
  H       -1.3133970    -0.2220240    -1.3458810
  H       -1.3538320     0.3483370     1.6492240
  H       -2.2017640     1.2636240     0.3898210
  H        3.3008500    -0.7206310    -0.1283000
  H        2.5136850    -2.0796090    -0.5553910
  H        0.6334020     2.6343050    -1.0521070
  H       -2.3814240    -1.6980050     0.7940470
units angstrom
no_reorient  #important for SAPT in psi4, default
symmetry c1  #important for SAPT in psi4, default
}

set PROPERTIES_ORIGIN ["COM"]
properties('MP2/aug-cc-pvtz', properties = ['dipole'])
--------------------------------------------------------------------------

    Molecular point group: c1
  Charge       = 0
  Multiplicity = 1
  Basis Set: AUG-CC-PVTZ
    Blend: AUG-CC-PVTZ
  Basis Set: (AUG-CC-PVTZ AUX)
    Blend: AUG-CC-PVTZ-JKFIT

    Orbital Energies [Eh]
    ---------------------

    Doubly Occupied:

       1A    -20.566757     2A    -20.553349     3A    -15.547611
       4A    -11.309605     5A    -11.273919     6A    -11.258492
       7A    -11.228551     8A    -11.222282     9A    -11.219160
      10A     -1.365784    11A     -1.351782    12A     -1.193991
      13A     -1.088004    14A     -0.994684    15A     -0.987049
      16A     -0.836182    17A     -0.819931    18A     -0.770583
      19A     -0.686580    20A     -0.680249    21A     -0.652918
      22A     -0.639600    23A     -0.627856    24A     -0.606566
      25A     -0.593901    26A     -0.562932    27A     -0.549585
      28A     -0.531789    29A     -0.527102    30A     -0.497346
      31A     -0.492192    32A     -0.477258    33A     -0.455986
      34A     -0.441906    35A     -0.414862    36A     -0.394712

  @DF-RHF Final Energy:  -439.08937972920370

   => Energetics <=

    Nuclear Repulsion Energy =            505.8445397600394813
    One-Electron Energy =               -1603.0257256174706981
    Two-Electron Energy =                 658.0918061282275175
    Total Energy =                       -439.0893797292037561
  Basis Set: (AUG-CC-PVTZ AUX)
    Blend: AUG-CC-PVTZ-RI
    Molecular point group: c1

    Geometry (in Angstrom), charge = 0, multiplicity = 1:

       Center              X                  Y                   Z               Mass
    ------------   -----------------  -----------------  -----------------  -----------------
         O           -0.115771025000     2.062063486362    -0.901456430127    15.994914619570
         O           -2.384539025000    -1.375833513638    -0.109845430127    15.994914619570
         N            2.491286975000    -1.273959513638     0.078062569873    14.003074004430
         C            1.303332975000    -0.481261513638    -0.267253430127    12.000000000000
         C            1.245882975000     0.742354486362     0.642081569873    12.000000000000
         C            0.058187975000    -1.339322513638    -0.064852430127    12.000000000000
         C           -0.036240025000     1.546415486362     0.436957569873    12.000000000000
         C           -1.227576025000    -0.551556513638    -0.290078430127    12.000000000000
         C           -1.272039025000     0.675506486362     0.615111569873    12.000000000000
         H            1.310491975000    -0.129509513638    -1.312118430127     1.007825032230
         H            1.311896975000     0.403395486362     1.683973569873     1.007825032230
         H            2.119422975000     1.388036486362     0.465118569873     1.007825032230
         H            0.070984975000    -2.208401513638    -0.734743430127     1.007825032230
         H            0.075833975000    -1.723656513638     0.965987569873     1.007825032230
         H           -0.074016525000     2.529481286362     1.288912369873     1.007825032230
         H           -1.284416025000    -0.225728513638    -1.332566430127     1.007825032230
         H           -1.324851025000     0.344632486362     1.662538569873     1.007825032230
         H           -2.172783025000     1.259919486362     0.403135569873     1.007825032230
         H            3.329830975000    -0.724335513638    -0.114985430127     1.007825032230
         H            2.542665975000    -2.083313513638    -0.542076430127     1.007825032230
         H            0.662382975000     2.630600486362    -1.038792430127     1.007825032230
         H           -2.352443025000    -1.701709513638     0.807361569873     1.007825032230

  Basis Set: AUG-CC-PVTZ
    Blend: AUG-CC-PVTZ
  Basis Set: (AUG-CC-PVTZ AUX)
    Blend: AUG-CC-PVTZ-JKFIT
	 Reference Energy          =    -439.0893797292036993 [Eh]
	 Singles Energy            =      -0.0000000000000000 [Eh]
	 Same-Spin Energy          =      -0.4518792975693356 [Eh]
	 Opposite-Spin Energy      =      -1.4753522508206827 [Eh]
	 Correlation Energy        =      -1.9272315483900182 [Eh]
	 Total Energy              =    -441.0166112775937108 [Eh]

	 ================> DF-SCS-MP2 Energies <==================
	-----------------------------------------------------------
	 SCS Same-Spin Scale       =       0.3333333333333333 [-]
	 SCS Opposite-Spin Scale   =       1.2000000000000000 [-]
	 SCS Same-Spin Energy      =      -0.1506264325231119 [Eh]
	 SCS Opposite-Spin Energy  =      -1.7704227009848192 [Eh]
	 SCS Correlation Energy    =      -1.9210491335079312 [Eh]
	 SCS Total Energy          =    -441.0104288627116489 [Eh]
	-----------------------------------------------------------

  Dipole Moment: [D]
     X:     2.5466      Y:     0.9341      Z:     0.5574     Total:     2.7692

*** Psi4 exiting successfully. Buy a developer a beer!
