                               Psi4 1.4a3.dev225

  ==> Input File <==

--------------------------------------------------------------------------
#psi4
#
memory 32 gb

molecule  {
0 1
  O       -0.1447520     2.0657680    -0.9147710
  O       -2.4135200    -1.3721290    -0.1231600
  N        2.4623060    -1.2702550     0.0647480
  C        1.2743520    -0.4775570    -0.2805680
  C        1.2169020     0.7460590     0.6287670
  C        0.0292070    -1.3356180    -0.0781670
  C       -0.0652210     1.5501200     0.4236430
  C       -1.2565570    -0.5478520    -0.3033930
  C       -1.3010200     0.6792110     0.6017970
  H        1.2815110    -0.1258050    -1.3254330
  H        1.2817132     0.4132762     1.6516746
  H        2.0904420     1.3917410     0.4518040
  H        0.0420040    -2.2046970    -0.7480580
  H        0.0468530    -1.7199520     0.9526730
  H       -0.0971920     2.3821090     1.1446700
  H       -1.3133970    -0.2220240    -1.3458810
  H       -1.3538320     0.3483370     1.6492240
  H       -2.2017640     1.2636240     0.3898210
  H        3.3008500    -0.7206310    -0.1283000
  H        2.5136850    -2.0796090    -0.5553910
  H        0.6334020     2.6343050    -1.0521070
  H       -2.3814240    -1.6980050     0.7940470
units angstrom
no_reorient  #important for SAPT in psi4, default
symmetry c1  #important for SAPT in psi4, default
}

set PROPERTIES_ORIGIN ["COM"]
properties('MP2/aug-cc-pvtz', properties = ['dipole'])
--------------------------------------------------------------------------

    Molecular point group: c1
  Charge       = 0
  Multiplicity = 1
  Basis Set: AUG-CC-PVTZ
    Blend: AUG-CC-PVTZ
  Basis Set: (AUG-CC-PVTZ AUX)
    Blend: AUG-CC-PVTZ-JKFIT

    Orbital Energies [Eh]
    ---------------------

    Doubly Occupied:

       1A    -20.561680     2A    -20.551629     3A    -15.546036
       4A    -11.285773     5A    -11.271915     6A    -11.256284
       7A    -11.223402     8A    -11.219876     9A    -11.217651
      10A     -1.362485    11A     -1.350081    12A     -1.192368
      13A     -1.087562    14A     -0.996632    15A     -0.986269
      16A     -0.840672    17A     -0.823278    18A     -0.770296
      19A     -0.695943    20A     -0.678679    21A     -0.654918
      22A     -0.641527    23A     -0.625986    24A     -0.612081
      25A     -0.592213    26A     -0.563541    27A     -0.548831
      28A     -0.530553    29A     -0.527314    30A     -0.500351
      31A     -0.491184    32A     -0.475740    33A     -0.453523
      34A     -0.444085    35A     -0.420319    36A     -0.395355

  @DF-RHF Final Energy:  -439.10956183651615

   => Energetics <=

    Nuclear Repulsion Energy =            506.9885737863174882
    One-Electron Energy =               -1605.4042069838662883
    Two-Electron Energy =                 659.3060713610325365
    Total Energy =                       -439.1095618365161499
  Basis Set: (AUG-CC-PVTZ AUX)
    Blend: AUG-CC-PVTZ-RI
    Molecular point group: c1

    Geometry (in Angstrom), charge = 0, multiplicity = 1:

       Center              X                  Y                   Z               Mass
    ------------   -----------------  -----------------  -----------------  -----------------
         O           -0.115806409488     2.063177448492    -0.900303939980    15.994914619570
         O           -2.384574409488    -1.374719551508    -0.108692939980    15.994914619570
         N            2.491251590512    -1.272845551508     0.079215060020    14.003074004430
         C            1.303297590512    -0.480147551508    -0.266100939980    12.000000000000
         C            1.245847590512     0.743468448492     0.643234060020    12.000000000000
         C            0.058152590512    -1.338208551508    -0.063699939980    12.000000000000
         C           -0.036275409488     1.547529448492     0.438110060020    12.000000000000
         C           -1.227611409488    -0.550442551508    -0.288925939980    12.000000000000
         C           -1.272074409488     0.676620448492     0.616264060020    12.000000000000
         H            1.310456590512    -0.128395551508    -1.310965939980     1.007825032230
         H            1.310658790512     0.410685648492     1.666141660020     1.007825032230
         H            2.119387590512     1.389150448492     0.466271060020     1.007825032230
         H            0.070949590512    -2.207287551508    -0.733590939980     1.007825032230
         H            0.075798590512    -1.722542551508     0.967140060020     1.007825032230
         H           -0.068246409488     2.379518448492     1.159137060020     1.007825032230
         H           -1.284451409488    -0.224614551508    -1.331413939980     1.007825032230
         H           -1.324886409488     0.345746448492     1.663691060020     1.007825032230
         H           -2.172818409488     1.261033448492     0.404288060020     1.007825032230
         H            3.329795590512    -0.723221551508    -0.113832939980     1.007825032230
         H            2.542630590512    -2.082199551508    -0.540923939980     1.007825032230
         H            0.662347590512     2.631714448492    -1.037639939980     1.007825032230
         H           -2.352478409488    -1.700595551508     0.808514060020     1.007825032230

  Basis Set: AUG-CC-PVTZ
    Blend: AUG-CC-PVTZ
  Basis Set: (AUG-CC-PVTZ AUX)
    Blend: AUG-CC-PVTZ-JKFIT
	 Reference Energy          =    -439.1095618365161499 [Eh]
	 Singles Energy            =      -0.0000000000000000 [Eh]
	 Same-Spin Energy          =      -0.4514903764631147 [Eh]
	 Opposite-Spin Energy      =      -1.4731273267131200 [Eh]
	 Correlation Energy        =      -1.9246177031762346 [Eh]
	 Total Energy              =    -441.0341795396923885 [Eh]

	 ================> DF-SCS-MP2 Energies <==================
	-----------------------------------------------------------
	 SCS Same-Spin Scale       =       0.3333333333333333 [-]
	 SCS Opposite-Spin Scale   =       1.2000000000000000 [-]
	 SCS Same-Spin Energy      =      -0.1504967921543716 [Eh]
	 SCS Opposite-Spin Energy  =      -1.7677527920557439 [Eh]
	 SCS Correlation Energy    =      -1.9182495842101155 [Eh]
	 SCS Total Energy          =    -441.0278114207262661 [Eh]
	-----------------------------------------------------------

  Dipole Moment: [D]
     X:     2.5385      Y:     1.1263      Z:     0.7548     Total:     2.8779

*** Psi4 exiting successfully. Buy a developer a beer!
