                               Psi4 1.4a3.dev225

  ==> Input File <==

--------------------------------------------------------------------------
#psi4
#
memory 32 gb

molecule  {
0 1
  O       -0.1447520     2.0657680    -0.9147710
  O       -2.4135200    -1.3721290    -0.1231600
  N        2.4623060    -1.2702550     0.0647480
  C        1.2743520    -0.4775570    -0.2805680
  C        1.2169020     0.7460590     0.6287670
  C        0.0292070    -1.3356180    -0.0781670
  C       -0.0652210     1.5501200     0.4236430
  C       -1.2565570    -0.5478520    -0.3033930
  C       -1.3068495     0.8400887     0.7204746
  H        1.2815110    -0.1258050    -1.3254330
  H        1.2829160     0.4071000     1.6706590
  H        2.0904420     1.3917410     0.4518040
  H        0.0420040    -2.2046970    -0.7480580
  H        0.0468530    -1.7199520     0.9526730
  H       -0.0971920     2.3821090     1.1446700
  H       -1.3133970    -0.2220240    -1.3458810
  H       -1.3538320     0.3483370     1.6492240
  H       -2.2017640     1.2636240     0.3898210
  H        3.3008500    -0.7206310    -0.1283000
  H        2.5136850    -2.0796090    -0.5553910
  H        0.6334020     2.6343050    -1.0521070
  H       -2.3814240    -1.6980050     0.7940470
units angstrom
no_reorient  #important for SAPT in psi4, default
symmetry c1  #important for SAPT in psi4, default
}

set PROPERTIES_ORIGIN ["COM"]
properties('MP2/aug-cc-pvtz', properties = ['dipole'])
--------------------------------------------------------------------------

    Molecular point group: c1
  Charge       = 0
  Multiplicity = 1
  Basis Set: AUG-CC-PVTZ
    Blend: AUG-CC-PVTZ
  Basis Set: (AUG-CC-PVTZ AUX)
    Blend: AUG-CC-PVTZ-JKFIT

    Orbital Energies [Eh]
    ---------------------

    Doubly Occupied:

       1A    -20.562699     2A    -20.552935     3A    -15.545910
       4A    -11.282625     5A    -11.277683     6A    -11.256189
       7A    -11.227401     8A    -11.218776     9A    -11.217866
      10A     -1.362977    11A     -1.348090    12A     -1.191900
      13A     -1.082912    14A     -1.000845    15A     -0.979900
      16A     -0.833968    17A     -0.826087    18A     -0.771325
      19A     -0.695341    20A     -0.677026    21A     -0.654497
      22A     -0.646506    23A     -0.620665    24A     -0.609558
      25A     -0.592032    26A     -0.565226    27A     -0.548567
      28A     -0.544008    29A     -0.529408    30A     -0.503125
      31A     -0.492448    32A     -0.477795    33A     -0.460756
      34A     -0.445359    35A     -0.398258    36A     -0.375300

  @DF-RHF Final Energy:  -439.07963722360148

   => Energetics <=

    Nuclear Repulsion Energy =            504.5502554717917860
    One-Electron Energy =               -1600.5078582020216800
    Two-Electron Energy =                 656.8779655066283567
    Total Energy =                       -439.0796372236014804
  Basis Set: (AUG-CC-PVTZ AUX)
    Blend: AUG-CC-PVTZ-RI
    Molecular point group: c1

    Geometry (in Angstrom), charge = 0, multiplicity = 1:

       Center              X                  Y                   Z               Mass
    ------------   -----------------  -----------------  -----------------  -----------------
         O           -0.115282041795     2.048498678731    -0.911313270936    15.994914619570
         O           -2.384050041795    -1.389398321269    -0.119702270936    15.994914619570
         N            2.491775958205    -1.287524321269     0.068205729064    14.003074004430
         C            1.303821958205    -0.494826321269    -0.277110270936    12.000000000000
         C            1.246371958205     0.728789678731     0.632224729064    12.000000000000
         C            0.058676958205    -1.352887321269    -0.074709270936    12.000000000000
         C           -0.035751041795     1.532850678731     0.427100729064    12.000000000000
         C           -1.227087041795    -0.565121321269    -0.299935270936    12.000000000000
         C           -1.277379541795     0.822819378731     0.723932329064    12.000000000000
         H            1.310980958205    -0.143074321269    -1.321975270936     1.007825032230
         H            1.312385958205     0.389830678731     1.674116729064     1.007825032230
         H            2.119911958205     1.374471678731     0.455261729064     1.007825032230
         H            0.071473958205    -2.221966321269    -0.744600270936     1.007825032230
         H            0.076322958205    -1.737221321269     0.956130729064     1.007825032230
         H           -0.067722041795     2.364839678731     1.148127729064     1.007825032230
         H           -1.283927041795    -0.239293321269    -1.342423270936     1.007825032230
         H           -1.324362041795     0.331067678731     1.652681729064     1.007825032230
         H           -2.172294041795     1.246354678731     0.393278729064     1.007825032230
         H            3.330319958205    -0.737900321269    -0.124842270936     1.007825032230
         H            2.543154958205    -2.096878321269    -0.551933270936     1.007825032230
         H            0.662871958205     2.617035678731    -1.048649270936     1.007825032230
         H           -2.351954041795    -1.715274321269     0.797504729064     1.007825032230

  Basis Set: AUG-CC-PVTZ
    Blend: AUG-CC-PVTZ
  Basis Set: (AUG-CC-PVTZ AUX)
    Blend: AUG-CC-PVTZ-JKFIT
	 Reference Energy          =    -439.0796372236014804 [Eh]
	 Singles Energy            =      -0.0000000000000000 [Eh]
	 Same-Spin Energy          =      -0.4522187753444947 [Eh]
	 Opposite-Spin Energy      =      -1.4754824494869789 [Eh]
	 Correlation Energy        =      -1.9277012248314738 [Eh]
	 Total Energy              =    -441.0073384484329608 [Eh]

	 ================> DF-SCS-MP2 Energies <==================
	-----------------------------------------------------------
	 SCS Same-Spin Scale       =       0.3333333333333333 [-]
	 SCS Opposite-Spin Scale   =       1.2000000000000000 [-]
	 SCS Same-Spin Energy      =      -0.1507395917814982 [Eh]
	 SCS Opposite-Spin Energy  =      -1.7705789393843747 [Eh]
	 SCS Correlation Energy    =      -1.9213185311658729 [Eh]
	 SCS Total Energy          =    -441.0009557547673467 [Eh]
	-----------------------------------------------------------

  Dipole Moment: [D]
     X:     2.4820      Y:     0.9874      Z:     0.7078     Total:     2.7634

*** Psi4 exiting successfully. Buy a developer a beer!
