                               Psi4 1.4a3.dev225

  ==> Input File <==

--------------------------------------------------------------------------
#psi4
#
memory 32 gb

molecule  {
0 1
  O       -0.1447520     2.0657680    -0.9147710
  O       -2.4135200    -1.3721290    -0.1231600
  N        2.4623060    -1.2702550     0.0647480
  C        1.2743520    -0.4775570    -0.2805680
  C        1.2169020     0.7460590     0.6287670
  C        0.0292070    -1.3356180    -0.0781670
  C       -0.0714258     1.5463262     0.4492865
  C       -1.2565570    -0.5478520    -0.3033930
  C       -1.3010200     0.6792110     0.6017970
  H        1.2815110    -0.1258050    -1.3254330
  H        1.2829160     0.4071000     1.6706590
  H        2.0904420     1.3917410     0.4518040
  H        0.0420040    -2.2046970    -0.7480580
  H        0.0468530    -1.7199520     0.9526730
  H       -0.0971920     2.3821090     1.1446700
  H       -1.3133970    -0.2220240    -1.3458810
  H       -1.3538320     0.3483370     1.6492240
  H       -2.2017640     1.2636240     0.3898210
  H        3.3008500    -0.7206310    -0.1283000
  H        2.5136850    -2.0796090    -0.5553910
  H        0.6334020     2.6343050    -1.0521070
  H       -2.3814240    -1.6980050     0.7940470
units angstrom
no_reorient  #important for SAPT in psi4, default
symmetry c1  #important for SAPT in psi4, default
}

set PROPERTIES_ORIGIN ["COM"]
properties('MP2/aug-cc-pvtz', properties = ['dipole'])
--------------------------------------------------------------------------

    Molecular point group: c1
  Charge       = 0
  Multiplicity = 1
  Basis Set: AUG-CC-PVTZ
    Blend: AUG-CC-PVTZ
  Basis Set: (AUG-CC-PVTZ AUX)
    Blend: AUG-CC-PVTZ-JKFIT

    Orbital Energies [Eh]
    ---------------------

    Doubly Occupied:

       1A    -20.558538     2A    -20.552141     3A    -15.546272
       4A    -11.285970     5A    -11.272513     6A    -11.256825
       7A    -11.226539     8A    -11.220363     9A    -11.217928
      10A     -1.354300    11A     -1.349020    12A     -1.192536
      13A     -1.088718    14A     -0.997165    15A     -0.987084
      16A     -0.841492    17A     -0.824093    18A     -0.767972
      19A     -0.694808    20A     -0.675955    21A     -0.655297
      22A     -0.642118    23A     -0.624763    24A     -0.611231
      25A     -0.590964    26A     -0.563243    27A     -0.548922
      28A     -0.530689    29A     -0.522731    30A     -0.500537
      31A     -0.489711    32A     -0.475778    33A     -0.455369
      34A     -0.445358    35A     -0.422228    36A     -0.395930

  @DF-RHF Final Energy:  -439.10848117584237

   => Energetics <=

    Nuclear Repulsion Energy =            506.6668533328127637
    One-Electron Energy =               -1604.7804730166103582
    Two-Electron Energy =                 659.0051385079552801
    Total Energy =                       -439.1084811758423712
  Basis Set: (AUG-CC-PVTZ AUX)
    Blend: AUG-CC-PVTZ-RI
    Molecular point group: c1

    Geometry (in Angstrom), charge = 0, multiplicity = 1:

       Center              X                  Y                   Z               Mass
    ------------   -----------------  -----------------  -----------------  -----------------
         O           -0.115247687984     2.063572202492    -0.902797214929    15.994914619570
         O           -2.384015687984    -1.374324797508    -0.111186214929    15.994914619570
         N            2.491810312016    -1.272450797508     0.076721785071    14.003074004430
         C            1.303856312016    -0.479752797508    -0.268594214929    12.000000000000
         C            1.246406312016     0.743863202492     0.640740785071    12.000000000000
         C            0.058711312016    -1.337813797508    -0.066193214929    12.000000000000
         C           -0.041921487984     1.544130402492     0.461260285071    12.000000000000
         C           -1.227052687984    -0.550047797508    -0.291419214929    12.000000000000
         C           -1.271515687984     0.677015202492     0.613770785071    12.000000000000
         H            1.311015312016    -0.128000797508    -1.313459214929     1.007825032230
         H            1.312420312016     0.404904202492     1.682632785071     1.007825032230
         H            2.119946312016     1.389545202492     0.463777785071     1.007825032230
         H            0.071508312016    -2.206892797508    -0.736084214929     1.007825032230
         H            0.076357312016    -1.722147797508     0.964646785071     1.007825032230
         H           -0.067687687984     2.379913202492     1.156643785071     1.007825032230
         H           -1.283892687984    -0.224219797508    -1.333907214929     1.007825032230
         H           -1.324327687984     0.346141202492     1.661197785071     1.007825032230
         H           -2.172259687984     1.261428202492     0.401794785071     1.007825032230
         H            3.330354312016    -0.722826797508    -0.116326214929     1.007825032230
         H            2.543189312016    -2.081804797508    -0.543417214929     1.007825032230
         H            0.662906312016     2.632109202492    -1.040133214929     1.007825032230
         H           -2.351919687984    -1.700200797508     0.806020785071     1.007825032230

  Basis Set: AUG-CC-PVTZ
    Blend: AUG-CC-PVTZ
  Basis Set: (AUG-CC-PVTZ AUX)
    Blend: AUG-CC-PVTZ-JKFIT
	 Reference Energy          =    -439.1084811758423712 [Eh]
	 Singles Energy            =      -0.0000000000000000 [Eh]
	 Same-Spin Energy          =      -0.4515754972905365 [Eh]
	 Opposite-Spin Energy      =      -1.4736659902992919 [Eh]
	 Correlation Energy        =      -1.9252414875898285 [Eh]
	 Total Energy              =    -441.0337226634321723 [Eh]

	 ================> DF-SCS-MP2 Energies <==================
	-----------------------------------------------------------
	 SCS Same-Spin Scale       =       0.3333333333333333 [-]
	 SCS Opposite-Spin Scale   =       1.2000000000000000 [-]
	 SCS Same-Spin Energy      =      -0.1505251657635122 [Eh]
	 SCS Opposite-Spin Energy  =      -1.7683991883591503 [Eh]
	 SCS Correlation Energy    =      -1.9189243541226626 [Eh]
	 SCS Total Energy          =    -441.0274055299650513 [Eh]
	-----------------------------------------------------------

  Dipole Moment: [D]
     X:     2.5283      Y:     1.0882      Z:     0.8236     Total:     2.8731

*** Psi4 exiting successfully. Buy a developer a beer!
