                               Psi4 1.4a3.dev225

  ==> Input File <==

--------------------------------------------------------------------------
#psi4
#
memory 32 gb

molecule  {
0 1
  O       -0.1447520     2.0657680    -0.9147710
  O       -2.4135200    -1.3721290    -0.1231600
  N        2.4623060    -1.2702550     0.0647480
  C        1.2743520    -0.4775570    -0.2805680
  C        1.2169020     0.7460590     0.6287670
  C        0.0292070    -1.3356180    -0.0781670
  C       -0.0652210     1.5501200     0.4236430
  C       -1.2565570    -0.5478520    -0.3033930
  C       -1.3010200     0.6792110     0.6017970
  H        1.2815110    -0.1258050    -1.3254330
  H        1.2829160     0.4071000     1.6706590
  H        2.0904420     1.3917410     0.4518040
  H        0.0414209    -2.1650987    -0.7175354
  H        0.0468530    -1.7199520     0.9526730
  H       -0.0971920     2.3821090     1.1446700
  H       -1.3133970    -0.2220240    -1.3458810
  H       -1.3538320     0.3483370     1.6492240
  H       -2.2017640     1.2636240     0.3898210
  H        3.3008500    -0.7206310    -0.1283000
  H        2.5136850    -2.0796090    -0.5553910
  H        0.6334020     2.6343050    -1.0521070
  H       -2.3814240    -1.6980050     0.7940470
units angstrom
no_reorient  #important for SAPT in psi4, default
symmetry c1  #important for SAPT in psi4, default
}

set PROPERTIES_ORIGIN ["COM"]
properties('MP2/aug-cc-pvtz', properties = ['dipole'])
--------------------------------------------------------------------------

    Molecular point group: c1
  Charge       = 0
  Multiplicity = 1
  Basis Set: AUG-CC-PVTZ
    Blend: AUG-CC-PVTZ
  Basis Set: (AUG-CC-PVTZ AUX)
    Blend: AUG-CC-PVTZ-JKFIT

    Orbital Energies [Eh]
    ---------------------

    Doubly Occupied:

       1A    -20.561647     2A    -20.551611     3A    -15.546105
       4A    -11.285619     5A    -11.271477     6A    -11.256071
       7A    -11.225408     8A    -11.219404     9A    -11.211473
      10A     -1.362422    11A     -1.350060    12A     -1.192430
      13A     -1.087333    14A     -0.998080    15A     -0.986036
      16A     -0.842210    17A     -0.823448    18A     -0.769603
      19A     -0.696068    20A     -0.678131    21A     -0.654918
      22A     -0.645529    23A     -0.625807    24A     -0.611486
      25A     -0.591888    26A     -0.564330    27A     -0.549910
      28A     -0.530580    29A     -0.526811    30A     -0.500341
      31A     -0.491689    32A     -0.475746    33A     -0.453420
      34A     -0.444055    35A     -0.420564    36A     -0.395390

  @DF-RHF Final Energy:  -439.10864564540918

   => Energetics <=

    Nuclear Repulsion Energy =            507.1619892083392074
    One-Electron Energy =               -1605.7470728177490855
    Two-Electron Energy =                 659.4764379640006382
    Total Energy =                       -439.1086456454091831
  Basis Set: (AUG-CC-PVTZ AUX)
    Blend: AUG-CC-PVTZ-RI
    Molecular point group: c1

    Geometry (in Angstrom), charge = 0, multiplicity = 1:

       Center              X                  Y                   Z               Mass
    ------------   -----------------  -----------------  -----------------  -----------------
         O           -0.115811173598     2.062920507157    -0.900684538288    15.994914619570
         O           -2.384579173598    -1.374976492843    -0.109073538288    15.994914619570
         N            2.491246826402    -1.273102492843     0.078834461712    14.003074004430
         C            1.303292826402    -0.480404492843    -0.266481538288    12.000000000000
         C            1.245842826402     0.743211507157     0.642853461712    12.000000000000
         C            0.058147826402    -1.338465492843    -0.064080538288    12.000000000000
         C           -0.036280173598     1.547272507157     0.437729461712    12.000000000000
         C           -1.227616173598    -0.550699492843    -0.289306538288    12.000000000000
         C           -1.272079173598     0.676363507157     0.615883461712    12.000000000000
         H            1.310451826402    -0.128652492843    -1.311346538288     1.007825032230
         H            1.311856826402     0.404252507157     1.684745461712     1.007825032230
         H            2.119382826402     1.388893507157     0.465890461712     1.007825032230
         H            0.070361726402    -2.167946192843    -0.703448938288     1.007825032230
         H            0.075793826402    -1.722799492843     0.966759461712     1.007825032230
         H           -0.068251173598     2.379261507157     1.158756461712     1.007825032230
         H           -1.284456173598    -0.224871492843    -1.331794538288     1.007825032230
         H           -1.324891173598     0.345489507157     1.663310461712     1.007825032230
         H           -2.172823173598     1.260776507157     0.403907461712     1.007825032230
         H            3.329790826402    -0.723478492843    -0.114213538288     1.007825032230
         H            2.542625826402    -2.082456492843    -0.541304538288     1.007825032230
         H            0.662342826402     2.631457507157    -1.038020538288     1.007825032230
         H           -2.352483173598    -1.700852492843     0.808133461712     1.007825032230

  Basis Set: AUG-CC-PVTZ
    Blend: AUG-CC-PVTZ
  Basis Set: (AUG-CC-PVTZ AUX)
    Blend: AUG-CC-PVTZ-JKFIT
	 Reference Energy          =    -439.1086456454091831 [Eh]
	 Singles Energy            =      -0.0000000000000000 [Eh]
	 Same-Spin Energy          =      -0.4514785017488542 [Eh]
	 Opposite-Spin Energy      =      -1.4729547347638869 [Eh]
	 Correlation Energy        =      -1.9244332365127412 [Eh]
	 Total Energy              =    -441.0330788819219379 [Eh]

	 ================> DF-SCS-MP2 Energies <==================
	-----------------------------------------------------------
	 SCS Same-Spin Scale       =       0.3333333333333333 [-]
	 SCS Opposite-Spin Scale   =       1.2000000000000000 [-]
	 SCS Same-Spin Energy      =      -0.1504928339162847 [Eh]
	 SCS Opposite-Spin Energy  =      -1.7675456817166644 [Eh]
	 SCS Correlation Energy    =      -1.9180385156329491 [Eh]
	 SCS Total Energy          =    -441.0266841610421125 [Eh]
	-----------------------------------------------------------

  Dipole Moment: [D]
     X:     2.5418      Y:     1.0950      Z:     0.7308     Total:     2.8625

*** Psi4 exiting successfully. Buy a developer a beer!
