                               Psi4 1.4a3.dev225

  ==> Input File <==

--------------------------------------------------------------------------
#psi4
#
memory 32 gb

molecule  {
0 1
  O       -0.1447520     2.0657680    -0.9147710
  O       -2.4135200    -1.3721290    -0.1231600
  N        2.4623060    -1.2702550     0.0647480
  C        1.2743520    -0.4775570    -0.2805680
  C        1.2169020     0.7460590     0.6287670
  C        0.0292070    -1.3356180    -0.0781670
  C       -0.0652210     1.5501200     0.4236430
  C       -1.2565570    -0.5478520    -0.3033930
  C       -1.3010200     0.6792110     0.6017970
  H        1.2815110    -0.1258050    -1.3254330
  H        1.2829160     0.4071000     1.6706590
  H        2.0904420     1.3917410     0.4518040
  H        0.0420040    -2.2046970    -0.7480580
  H        0.0468530    -1.7199520     0.9526730
  H       -0.0971920     2.3821090     1.1446700
  H       -1.3133970    -0.2220240    -1.3458810
  H       -1.3538320     0.3483370     1.6492240
  H       -2.2017640     1.2636240     0.3898210
  H        3.2597865    -0.7475461    -0.1188464
  H        2.5136850    -2.0796090    -0.5553910
  H        0.6334020     2.6343050    -1.0521070
  H       -2.3814240    -1.6980050     0.7940470
units angstrom
no_reorient  #important for SAPT in psi4, default
symmetry c1  #important for SAPT in psi4, default
}

set PROPERTIES_ORIGIN ["COM"]
properties('MP2/aug-cc-pvtz', properties = ['dipole'])
--------------------------------------------------------------------------

    Molecular point group: c1
  Charge       = 0
  Multiplicity = 1
  Basis Set: AUG-CC-PVTZ
    Blend: AUG-CC-PVTZ
  Basis Set: (AUG-CC-PVTZ AUX)
    Blend: AUG-CC-PVTZ-JKFIT

    Orbital Energies [Eh]
    ---------------------

    Doubly Occupied:

       1A    -20.561913     2A    -20.551534     3A    -15.540195
       4A    -11.285978     5A    -11.271773     6A    -11.256406
       7A    -11.225938     8A    -11.219833     9A    -11.217445
      10A     -1.362688    11A     -1.350001    12A     -1.197967
      13A     -1.089127    14A     -0.996157    15A     -0.987769
      16A     -0.840480    17A     -0.824484    18A     -0.769756
      19A     -0.697247    20A     -0.678404    21A     -0.659963
      22A     -0.641593    23A     -0.627870    24A     -0.612101
      25A     -0.592799    26A     -0.564517    27A     -0.549369
      28A     -0.530433    29A     -0.526859    30A     -0.499911
      31A     -0.490447    32A     -0.475899    33A     -0.453663
      34A     -0.444405    35A     -0.420404    36A     -0.395969

  @DF-RHF Final Energy:  -439.10904630110986

   => Energetics <=

    Nuclear Repulsion Energy =            507.1631227756867020
    One-Electron Energy =               -1605.7217486782162723
    Two-Electron Energy =                 659.4495796014196003
    Total Energy =                       -439.1090463011098564
  Basis Set: (AUG-CC-PVTZ AUX)
    Blend: AUG-CC-PVTZ-RI
    Molecular point group: c1

    Geometry (in Angstrom), charge = 0, multiplicity = 1:

       Center              X                  Y                   Z               Mass
    ------------   -----------------  -----------------  -----------------  -----------------
         O           -0.115499969692     2.063431846715    -0.900522564714    15.994914619570
         O           -2.384267969692    -1.374465153285    -0.108911564714    15.994914619570
         N            2.491558030308    -1.272591153285     0.078996435286    14.003074004430
         C            1.303604030308    -0.479893153285    -0.266319564714    12.000000000000
         C            1.246154030308     0.743722846715     0.643015435286    12.000000000000
         C            0.058459030308    -1.337954153285    -0.063918564714    12.000000000000
         C           -0.035968969692     1.547783846715     0.437891435286    12.000000000000
         C           -1.227304969692    -0.550188153285    -0.289144564714    12.000000000000
         C           -1.271767969692     0.676874846715     0.616045435286    12.000000000000
         H            1.310763030308    -0.128141153285    -1.311184564714     1.007825032230
         H            1.312168030308     0.404763846715     1.684907435286     1.007825032230
         H            2.119694030308     1.389404846715     0.466052435286     1.007825032230
         H            0.071256030308    -2.207033153285    -0.733809564714     1.007825032230
         H            0.076105030308    -1.722288153285     0.966921435286     1.007825032230
         H           -0.067939969692     2.379772846715     1.158918435286     1.007825032230
         H           -1.284144969692    -0.224360153285    -1.331632564714     1.007825032230
         H           -1.324579969692     0.346000846715     1.663472435286     1.007825032230
         H           -2.172511969692     1.261287846715     0.404069435286     1.007825032230
         H            3.289038530308    -0.749882253285    -0.104597964714     1.007825032230
         H            2.542937030308    -2.081945153285    -0.541142564714     1.007825032230
         H            0.662654030308     2.631968846715    -1.037858564714     1.007825032230
         H           -2.352171969692    -1.700341153285     0.808295435286     1.007825032230

  Basis Set: AUG-CC-PVTZ
    Blend: AUG-CC-PVTZ
  Basis Set: (AUG-CC-PVTZ AUX)
    Blend: AUG-CC-PVTZ-JKFIT
	 Reference Energy          =    -439.1090463011098564 [Eh]
	 Singles Energy            =      -0.0000000000000000 [Eh]
	 Same-Spin Energy          =      -0.4512508233313359 [Eh]
	 Opposite-Spin Energy      =      -1.4724250679653366 [Eh]
	 Correlation Energy        =      -1.9236758912966725 [Eh]
	 Total Energy              =    -441.0327221924065384 [Eh]

	 ================> DF-SCS-MP2 Energies <==================
	-----------------------------------------------------------
	 SCS Same-Spin Scale       =       0.3333333333333333 [-]
	 SCS Opposite-Spin Scale   =       1.2000000000000000 [-]
	 SCS Same-Spin Energy      =      -0.1504169411104453 [Eh]
	 SCS Opposite-Spin Energy  =      -1.7669100815584038 [Eh]
	 SCS Correlation Energy    =      -1.9173270226688490 [Eh]
	 SCS Total Energy          =    -441.0263733237787278 [Eh]
	-----------------------------------------------------------

  Dipole Moment: [D]
     X:     2.5411      Y:     1.1212      Z:     0.7420     Total:     2.8749

*** Psi4 exiting successfully. Buy a developer a beer!
