                               Psi4 1.4a3.dev225

  ==> Input File <==

--------------------------------------------------------------------------
#psi4
#
memory 32 gb

molecule  {
0 1
  O       -0.1447520     2.0657680    -0.9147710
  O       -2.4135200    -1.3721290    -0.1231600
  N        2.4623060    -1.2702550     0.0647480
  C        1.2743520    -0.4775570    -0.2805680
  C        1.2022310     0.7243113     0.6334873
  C        0.0292070    -1.3356180    -0.0781670
  C       -0.0652210     1.5501200     0.4236430
  C       -1.2565570    -0.5478520    -0.3033930
  C       -1.3010200     0.6792110     0.6017970
  H        1.2815110    -0.1258050    -1.3254330
  H        1.2829160     0.4071000     1.6706590
  H        2.0904420     1.3917410     0.4518040
  H        0.0420040    -2.2046970    -0.7480580
  H        0.0468530    -1.7199520     0.9526730
  H       -0.0971920     2.3821090     1.1446700
  H       -1.3133970    -0.2220240    -1.3458810
  H       -1.3538320     0.3483370     1.6492240
  H       -2.2017640     1.2636240     0.3898210
  H        3.3008500    -0.7206310    -0.1283000
  H        2.5136850    -2.0796090    -0.5553910
  H        0.6334020     2.6343050    -1.0521070
  H       -2.3814240    -1.6980050     0.7940470
units angstrom
no_reorient  #important for SAPT in psi4, default
symmetry c1  #important for SAPT in psi4, default
}

set PROPERTIES_ORIGIN ["COM"]
properties('MP2/aug-cc-pvtz', properties = ['dipole'])
--------------------------------------------------------------------------

    Molecular point group: c1
  Charge       = 0
  Multiplicity = 1
  Basis Set: AUG-CC-PVTZ
    Blend: AUG-CC-PVTZ
  Basis Set: (AUG-CC-PVTZ AUX)
    Blend: AUG-CC-PVTZ-JKFIT

    Orbital Energies [Eh]
    ---------------------

    Doubly Occupied:

       1A    -20.562407     2A    -20.551665     3A    -15.546252
       4A    -11.286151     5A    -11.271975     6A    -11.256002
       7A    -11.226654     8A    -11.219482     9A    -11.217498
      10A     -1.362882    11A     -1.350120    12A     -1.193309
      13A     -1.088434    14A     -0.995663    15A     -0.986840
      16A     -0.840176    17A     -0.823306    18A     -0.770080
      19A     -0.696400    20A     -0.679268    21A     -0.655334
      22A     -0.639321    23A     -0.625256    24A     -0.612125
      25A     -0.592145    26A     -0.564320    27A     -0.549833
      28A     -0.528747    29A     -0.526764    30A     -0.500364
      31A     -0.492406    32A     -0.474944    33A     -0.452207
      34A     -0.443196    35A     -0.420857    36A     -0.396567

  @DF-RHF Final Energy:  -439.10847054893600

   => Energetics <=

    Nuclear Repulsion Energy =            507.1929195205227074
    One-Electron Energy =               -1605.8048797170108628
    Two-Electron Energy =                 659.5034896475521009
    Total Energy =                       -439.1084705489359976
  Basis Set: (AUG-CC-PVTZ AUX)
    Blend: AUG-CC-PVTZ-RI
    Molecular point group: c1

    Geometry (in Angstrom), charge = 0, multiplicity = 1:

       Center              X                  Y                   Z               Mass
    ------------   -----------------  -----------------  -----------------  -----------------
         O           -0.114472718018     2.065215647400    -0.900881969411    15.994914619570
         O           -2.383240718018    -1.372681352600    -0.109270969411    15.994914619570
         N            2.492585281982    -1.270807352600     0.078637030589    14.003074004430
         C            1.304631281982    -0.478109352600    -0.266678969411    12.000000000000
         C            1.232510281982     0.723758947400     0.647376330589    12.000000000000
         C            0.059486281982    -1.336170352600    -0.064277969411    12.000000000000
         C           -0.034941718018     1.549567647400     0.437532030589    12.000000000000
         C           -1.226277718018    -0.548404352600    -0.289503969411    12.000000000000
         C           -1.270740718018     0.678658647400     0.615686030589    12.000000000000
         H            1.311790281982    -0.126357352600    -1.311543969411     1.007825032230
         H            1.313195281982     0.406547647400     1.684548030589     1.007825032230
         H            2.120721281982     1.391188647400     0.465693030589     1.007825032230
         H            0.072283281982    -2.205249352600    -0.734168969411     1.007825032230
         H            0.077132281982    -1.720504352600     0.966562030589     1.007825032230
         H           -0.066912718018     2.381556647400     1.158559030589     1.007825032230
         H           -1.283117718018    -0.222576352600    -1.331991969411     1.007825032230
         H           -1.323552718018     0.347784647400     1.663113030589     1.007825032230
         H           -2.171484718018     1.263071647400     0.403710030589     1.007825032230
         H            3.331129281982    -0.721183352600    -0.114410969411     1.007825032230
         H            2.543964281982    -2.080161352600    -0.541501969411     1.007825032230
         H            0.663681281982     2.633752647400    -1.038217969411     1.007825032230
         H           -2.351144718018    -1.698557352600     0.807936030589     1.007825032230

  Basis Set: AUG-CC-PVTZ
    Blend: AUG-CC-PVTZ
  Basis Set: (AUG-CC-PVTZ AUX)
    Blend: AUG-CC-PVTZ-JKFIT
	 Reference Energy          =    -439.1084705489359976 [Eh]
	 Singles Energy            =      -0.0000000000000000 [Eh]
	 Same-Spin Energy          =      -0.4516798483277086 [Eh]
	 Opposite-Spin Energy      =      -1.4734586270319880 [Eh]
	 Correlation Energy        =      -1.9251384753596965 [Eh]
	 Total Energy              =    -441.0336090242956857 [Eh]

	 ================> DF-SCS-MP2 Energies <==================
	-----------------------------------------------------------
	 SCS Same-Spin Scale       =       0.3333333333333333 [-]
	 SCS Opposite-Spin Scale   =       1.2000000000000000 [-]
	 SCS Same-Spin Energy      =      -0.1505599494425695 [Eh]
	 SCS Opposite-Spin Energy  =      -1.7681503524383857 [Eh]
	 SCS Correlation Energy    =      -1.9187103018809553 [Eh]
	 SCS Total Energy          =    -441.0271808508169329 [Eh]
	-----------------------------------------------------------

  Dipole Moment: [D]
     X:     2.5263      Y:     1.1208      Z:     0.7510     Total:     2.8640

*** Psi4 exiting successfully. Buy a developer a beer!
