                               Psi4 1.4a3.dev225

  ==> Input File <==

--------------------------------------------------------------------------
#psi4
#
memory 32 gb

molecule  {
0 1
  O       -0.1447520     2.0657680    -0.9147710
  O       -2.4135200    -1.3721290    -0.1231600
  N        2.4623060    -1.2702550     0.0647480
  C        1.2743520    -0.4775570    -0.2805680
  C        1.2169020     0.7460590     0.6287670
  C        0.0292070    -1.3356180    -0.0781670
  C       -0.0652210     1.5501200     0.4236430
  C       -1.4181497    -0.6629785    -0.2782199
  C       -1.3010200     0.6792110     0.6017970
  H        1.2815110    -0.1258050    -1.3254330
  H        1.2829160     0.4071000     1.6706590
  H        2.0904420     1.3917410     0.4518040
  H        0.0420040    -2.2046970    -0.7480580
  H        0.0468530    -1.7199520     0.9526730
  H       -0.0971920     2.3821090     1.1446700
  H       -1.3133970    -0.2220240    -1.3458810
  H       -1.3538320     0.3483370     1.6492240
  H       -2.2017640     1.2636240     0.3898210
  H        3.3008500    -0.7206310    -0.1283000
  H        2.5136850    -2.0796090    -0.5553910
  H        0.6334020     2.6343050    -1.0521070
  H       -2.3814240    -1.6980050     0.7940470
units angstrom
no_reorient  #important for SAPT in psi4, default
symmetry c1  #important for SAPT in psi4, default
}

set PROPERTIES_ORIGIN ["COM"]
properties('MP2/aug-cc-pvtz', properties = ['dipole'])
--------------------------------------------------------------------------

    Molecular point group: c1
  Charge       = 0
  Multiplicity = 1
  Basis Set: AUG-CC-PVTZ
    Blend: AUG-CC-PVTZ
  Basis Set: (AUG-CC-PVTZ AUX)
    Blend: AUG-CC-PVTZ-JKFIT

    Orbital Energies [Eh]
    ---------------------

    Doubly Occupied:

       1A    -20.578083     2A    -20.557499     3A    -15.543281
       4A    -11.283395     5A    -11.280505     6A    -11.253909
       7A    -11.221513     8A    -11.213752     9A    -11.212167
      10A     -1.455392    11A     -1.357281    12A     -1.187979
      13A     -1.070474    14A     -0.980783    15A     -0.974538
      16A     -0.853029    17A     -0.821842    18A     -0.776577
      19A     -0.705692    20A     -0.678315    21A     -0.666792
      22A     -0.650934    23A     -0.632859    24A     -0.625178
      25A     -0.611386    26A     -0.576899    27A     -0.551714
      28A     -0.536725    29A     -0.519214    30A     -0.490272
      31A     -0.488495    32A     -0.464880    33A     -0.449981
      34A     -0.417711    35A     -0.395291    36A     -0.378290

  @DF-RHF Final Energy:  -439.06554593313149

   => Energetics <=

    Nuclear Repulsion Energy =            506.1198416981894184
    One-Electron Energy =               -1603.4455201832633975
    Two-Electron Energy =                 658.2601325519424336
    Total Energy =                       -439.0655459331314887
  Basis Set: (AUG-CC-PVTZ AUX)
    Blend: AUG-CC-PVTZ-RI
    Molecular point group: c1

    Geometry (in Angstrom), charge = 0, multiplicity = 1:

       Center              X                  Y                   Z               Mass
    ------------   -----------------  -----------------  -----------------  -----------------
         O           -0.101023956478     2.073763256188    -0.902754155956    15.994914619570
         O           -2.369791956478    -1.364133743812    -0.111143155956    15.994914619570
         N            2.506034043522    -1.262259743812     0.076764844044    14.003074004430
         C            1.318080043522    -0.469561743812    -0.268551155956    12.000000000000
         C            1.260630043522     0.754054256188     0.640783844044    12.000000000000
         C            0.072935043522    -1.327622743812    -0.066150155956    12.000000000000
         C           -0.021492956478     1.558115256188     0.435659844044    12.000000000000
         C           -1.374421656478    -0.654983243812    -0.266203055956    12.000000000000
         C           -1.257291956478     0.687206256188     0.613813844044    12.000000000000
         H            1.325239043522    -0.117809743812    -1.313416155956     1.007825032230
         H            1.326644043522     0.415095256188     1.682675844044     1.007825032230
         H            2.134170043522     1.399736256188     0.463820844044     1.007825032230
         H            0.085732043522    -2.196701743812    -0.736041155956     1.007825032230
         H            0.090581043522    -1.711956743812     0.964689844044     1.007825032230
         H           -0.053463956478     2.390104256188     1.156686844044     1.007825032230
         H           -1.269668956478    -0.214028743812    -1.333864155956     1.007825032230
         H           -1.310103956478     0.356332256188     1.661240844044     1.007825032230
         H           -2.158035956478     1.271619256188     0.401837844044     1.007825032230
         H            3.344578043522    -0.712635743812    -0.116283155956     1.007825032230
         H            2.557413043522    -2.071613743812    -0.543374155956     1.007825032230
         H            0.677130043522     2.642300256188    -1.040090155956     1.007825032230
         H           -2.337695956478    -1.690009743812     0.806063844044     1.007825032230

  Basis Set: AUG-CC-PVTZ
    Blend: AUG-CC-PVTZ
  Basis Set: (AUG-CC-PVTZ AUX)
    Blend: AUG-CC-PVTZ-JKFIT
	 Reference Energy          =    -439.0655459331314887 [Eh]
	 Singles Energy            =      -0.0000000000000000 [Eh]
	 Same-Spin Energy          =      -0.4522340120089192 [Eh]
	 Opposite-Spin Energy      =      -1.4726778966506751 [Eh]
	 Correlation Energy        =      -1.9249119086595943 [Eh]
	 Total Energy              =    -440.9904578417910557 [Eh]

	 ================> DF-SCS-MP2 Energies <==================
	-----------------------------------------------------------
	 SCS Same-Spin Scale       =       0.3333333333333333 [-]
	 SCS Opposite-Spin Scale   =       1.2000000000000000 [-]
	 SCS Same-Spin Energy      =      -0.1507446706696397 [Eh]
	 SCS Opposite-Spin Energy  =      -1.7672134759808100 [Eh]
	 SCS Correlation Energy    =      -1.9179581466504498 [Eh]
	 SCS Total Energy          =    -440.9835040797819374 [Eh]
	-----------------------------------------------------------

  Dipole Moment: [D]
     X:     1.7575      Y:     0.6067      Z:     0.7714     Total:     2.0130

*** Psi4 exiting successfully. Buy a developer a beer!
