                               Psi4 1.4a3.dev225

  ==> Input File <==

--------------------------------------------------------------------------
#psi4
#
memory 32 gb

molecule  {
0 1
  O       -0.1447520     2.0657680    -0.9147710
  O       -2.4135200    -1.3721290    -0.1231600
  N        2.4623060    -1.2702550     0.0647480
  C        1.2743520    -0.4775570    -0.2805680
  C        1.2169020     0.7460590     0.6287670
  C        0.0292070    -1.3356180    -0.0781670
  C       -0.0652210     1.5501200     0.4236430
  C       -1.2610037    -0.6080819    -0.2157024
  C       -1.3010200     0.6792110     0.6017970
  H        1.2815110    -0.1258050    -1.3254330
  H        1.2829160     0.4071000     1.6706590
  H        2.0904420     1.3917410     0.4518040
  H        0.0420040    -2.2046970    -0.7480580
  H        0.0468530    -1.7199520     0.9526730
  H       -0.0971920     2.3821090     1.1446700
  H       -1.3133970    -0.2220240    -1.3458810
  H       -1.3538320     0.3483370     1.6492240
  H       -2.2017640     1.2636240     0.3898210
  H        3.3008500    -0.7206310    -0.1283000
  H        2.5136850    -2.0796090    -0.5553910
  H        0.6334020     2.6343050    -1.0521070
  H       -2.3814240    -1.6980050     0.7940470
units angstrom
no_reorient  #important for SAPT in psi4, default
symmetry c1  #important for SAPT in psi4, default
}

set PROPERTIES_ORIGIN ["COM"]
properties('MP2/aug-cc-pvtz', properties = ['dipole'])
--------------------------------------------------------------------------

    Molecular point group: c1
  Charge       = 0
  Multiplicity = 1
  Basis Set: AUG-CC-PVTZ
    Blend: AUG-CC-PVTZ
  Basis Set: (AUG-CC-PVTZ AUX)
    Blend: AUG-CC-PVTZ-JKFIT

    Orbital Energies [Eh]
    ---------------------

    Doubly Occupied:

       1A    -20.561347     2A    -20.560383     3A    -15.546744
       4A    -11.286305     5A    -11.275703     6A    -11.258081
       7A    -11.225909     8A    -11.219668     9A    -11.217101
      10A     -1.375406    11A     -1.360297    12A     -1.193206
      13A     -1.088380    14A     -1.000008    15A     -0.985401
      16A     -0.837816    17A     -0.825085    18A     -0.767155
      19A     -0.698629    20A     -0.679755    21A     -0.657616
      22A     -0.644080    23A     -0.631738    24A     -0.607077
      25A     -0.596657    26A     -0.564542    27A     -0.556560
      28A     -0.540863    29A     -0.525329    30A     -0.495778
      31A     -0.492247    32A     -0.463991    33A     -0.454246
      34A     -0.437020    35A     -0.415802    36A     -0.396360

  @DF-RHF Final Energy:  -439.09602709639080

   => Energetics <=

    Nuclear Repulsion Energy =            507.3595906985354986
    One-Electron Energy =               -1606.0266610305147879
    Two-Electron Energy =                 659.5710432355883768
    Total Energy =                       -439.0960270963907988
  Basis Set: (AUG-CC-PVTZ AUX)
    Blend: AUG-CC-PVTZ-RI
    Molecular point group: c1

    Geometry (in Angstrom), charge = 0, multiplicity = 1:

       Center              X                  Y                   Z               Mass
    ------------   -----------------  -----------------  -----------------  -----------------
         O           -0.115408619063     2.068738189893    -0.908476816050    15.994914619570
         O           -2.384176619063    -1.369158810107    -0.116865816050    15.994914619570
         N            2.491649380937    -1.267284810107     0.071042183950    14.003074004430
         C            1.303695380937    -0.474586810107    -0.274273816050    12.000000000000
         C            1.246245380937     0.749029189893     0.635061183950    12.000000000000
         C            0.058550380937    -1.332647810107    -0.071872816050    12.000000000000
         C           -0.035877619063     1.553090189893     0.429937183950    12.000000000000
         C           -1.231660319063    -0.605111710107    -0.209408216050    12.000000000000
         C           -1.271676619063     0.682181189893     0.608091183950    12.000000000000
         H            1.310854380937    -0.122834810107    -1.319138816050     1.007825032230
         H            1.312259380937     0.410070189893     1.676953183950     1.007825032230
         H            2.119785380937     1.394711189893     0.458098183950     1.007825032230
         H            0.071347380937    -2.201726810107    -0.741763816050     1.007825032230
         H            0.076196380937    -1.716981810107     0.958967183950     1.007825032230
         H           -0.067848619063     2.385079189893     1.150964183950     1.007825032230
         H           -1.284053619063    -0.219053810107    -1.339586816050     1.007825032230
         H           -1.324488619063     0.351307189893     1.655518183950     1.007825032230
         H           -2.172420619063     1.266594189893     0.396115183950     1.007825032230
         H            3.330193380937    -0.717660810107    -0.122005816050     1.007825032230
         H            2.543028380937    -2.076638810107    -0.549096816050     1.007825032230
         H            0.662745380937     2.637275189893    -1.045812816050     1.007825032230
         H           -2.352080619063    -1.695034810107     0.800341183950     1.007825032230

  Basis Set: AUG-CC-PVTZ
    Blend: AUG-CC-PVTZ
  Basis Set: (AUG-CC-PVTZ AUX)
    Blend: AUG-CC-PVTZ-JKFIT
	 Reference Energy          =    -439.0960270963907988 [Eh]
	 Singles Energy            =      -0.0000000000000000 [Eh]
	 Same-Spin Energy          =      -0.4523602629368030 [Eh]
	 Opposite-Spin Energy      =      -1.4743646267013761 [Eh]
	 Correlation Energy        =      -1.9267248896381792 [Eh]
	 Total Energy              =    -441.0227519860289931 [Eh]

	 ================> DF-SCS-MP2 Energies <==================
	-----------------------------------------------------------
	 SCS Same-Spin Scale       =       0.3333333333333333 [-]
	 SCS Opposite-Spin Scale   =       1.2000000000000000 [-]
	 SCS Same-Spin Energy      =      -0.1507867543122677 [Eh]
	 SCS Opposite-Spin Energy  =      -1.7692375520416512 [Eh]
	 SCS Correlation Energy    =      -1.9200243063539189 [Eh]
	 SCS Total Energy          =    -441.0160514027447221 [Eh]
	-----------------------------------------------------------

  Dipole Moment: [D]
     X:     2.4528      Y:     0.9810      Z:     0.8345     Total:     2.7704

*** Psi4 exiting successfully. Buy a developer a beer!
