                               Psi4 1.4a3.dev225

  ==> Input File <==

--------------------------------------------------------------------------
#psi4
#
memory 32 gb

molecule  {
0 1
  O       -0.1447520     2.0657680    -0.9147710
  O       -2.4135200    -1.3721290    -0.1231600
  N        2.4623060    -1.2702550     0.0647480
  C        1.2743520    -0.4775570    -0.2805680
  C        1.2169020     0.7460590     0.6287670
  C        0.0292070    -1.3356180    -0.0781670
  C       -0.0652210     1.5501200     0.4236430
  C       -1.0949643    -0.4327255    -0.3285661
  C       -1.3010200     0.6792110     0.6017970
  H        1.2815110    -0.1258050    -1.3254330
  H        1.2829160     0.4071000     1.6706590
  H        2.0904420     1.3917410     0.4518040
  H        0.0420040    -2.2046970    -0.7480580
  H        0.0468530    -1.7199520     0.9526730
  H       -0.0971920     2.3821090     1.1446700
  H       -1.3133970    -0.2220240    -1.3458810
  H       -1.3538320     0.3483370     1.6492240
  H       -2.2017640     1.2636240     0.3898210
  H        3.3008500    -0.7206310    -0.1283000
  H        2.5136850    -2.0796090    -0.5553910
  H        0.6334020     2.6343050    -1.0521070
  H       -2.3814240    -1.6980050     0.7940470
units angstrom
no_reorient  #important for SAPT in psi4, default
symmetry c1  #important for SAPT in psi4, default
}

set PROPERTIES_ORIGIN ["COM"]
properties('MP2/aug-cc-pvtz', properties = ['dipole'])
--------------------------------------------------------------------------

    Molecular point group: c1
  Charge       = 0
  Multiplicity = 1
  Basis Set: AUG-CC-PVTZ
    Blend: AUG-CC-PVTZ
  Basis Set: (AUG-CC-PVTZ AUX)
    Blend: AUG-CC-PVTZ-JKFIT

    Orbital Energies [Eh]
    ---------------------

    Doubly Occupied:

       1A    -20.567008     2A    -20.522227     3A    -15.548930
       4A    -11.289404     5A    -11.278109     6A    -11.260083
       7A    -11.230760     8A    -11.225880     9A    -11.223178
      10A     -1.368370    11A     -1.283464    12A     -1.197597
      13A     -1.107161    14A     -1.009114    15A     -0.997590
      16A     -0.843124    17A     -0.824092    18A     -0.775329
      19A     -0.696932    20A     -0.682255    21A     -0.657659
      22A     -0.648261    23A     -0.622051    24A     -0.597339
      25A     -0.577796    26A     -0.567638    27A     -0.545997
      28A     -0.530924    29A     -0.519472    30A     -0.511993
      31A     -0.492704    32A     -0.487418    33A     -0.448569
      34A     -0.431343    35A     -0.425328    36A     -0.399164

  @DF-RHF Final Energy:  -439.07470905092276

   => Energetics <=

    Nuclear Repulsion Energy =            508.2054845844185138
    One-Electron Energy =               -1607.7718625244565374
    Two-Electron Energy =                 660.4916688891150898
    Total Energy =                       -439.0747090509228201
  Basis Set: (AUG-CC-PVTZ AUX)
    Blend: AUG-CC-PVTZ-RI
    Molecular point group: c1

    Geometry (in Angstrom), charge = 0, multiplicity = 1:

       Center              X                  Y                   Z               Mass
    ------------   -----------------  -----------------  -----------------  -----------------
         O           -0.130607356191     2.052686603177    -0.898145619312    15.994914619570
         O           -2.399375356191    -1.385210396823    -0.106534619312    15.994914619570
         N            2.476450643809    -1.283336396823     0.081373380688    14.003074004430
         C            1.288496643809    -0.490638396823    -0.263942619312    12.000000000000
         C            1.231046643809     0.732977603177     0.645392380688    12.000000000000
         C            0.043351643809    -1.348699396823    -0.061541619312    12.000000000000
         C           -0.051076356191     1.537038603177     0.440268380688    12.000000000000
         C           -1.080819656191    -0.445806896823    -0.311940719312    12.000000000000
         C           -1.286875356191     0.666129603177     0.618422380688    12.000000000000
         H            1.295655643809    -0.138886396823    -1.308807619312     1.007825032230
         H            1.297060643809     0.394018603177     1.687284380688     1.007825032230
         H            2.104586643809     1.378659603177     0.468429380688     1.007825032230
         H            0.056148643809    -2.217778396823    -0.731432619312     1.007825032230
         H            0.060997643809    -1.733033396823     0.969298380688     1.007825032230
         H           -0.083047356191     2.369027603177     1.161295380688     1.007825032230
         H           -1.299252356191    -0.235105396823    -1.329255619312     1.007825032230
         H           -1.339687356191     0.335255603177     1.665849380688     1.007825032230
         H           -2.187619356191     1.250542603177     0.406446380688     1.007825032230
         H            3.314994643809    -0.733712396823    -0.111674619312     1.007825032230
         H            2.527829643809    -2.092690396823    -0.538765619312     1.007825032230
         H            0.647546643809     2.621223603177    -1.035481619312     1.007825032230
         H           -2.367279356191    -1.711086396823     0.810672380688     1.007825032230

  Basis Set: AUG-CC-PVTZ
    Blend: AUG-CC-PVTZ
  Basis Set: (AUG-CC-PVTZ AUX)
    Blend: AUG-CC-PVTZ-JKFIT
	 Reference Energy          =    -439.0747090509227633 [Eh]
	 Singles Energy            =      -0.0000000000000000 [Eh]
	 Same-Spin Energy          =      -0.4540410506971669 [Eh]
	 Opposite-Spin Energy      =      -1.4789487590663144 [Eh]
	 Correlation Energy        =      -1.9329898097634812 [Eh]
	 Total Energy              =    -441.0076988606862187 [Eh]

	 ================> DF-SCS-MP2 Energies <==================
	-----------------------------------------------------------
	 SCS Same-Spin Scale       =       0.3333333333333333 [-]
	 SCS Opposite-Spin Scale   =       1.2000000000000000 [-]
	 SCS Same-Spin Energy      =      -0.1513470168990556 [Eh]
	 SCS Opposite-Spin Energy  =      -1.7747385108795772 [Eh]
	 SCS Correlation Energy    =      -1.9260855277786328 [Eh]
	 SCS Total Energy          =    -441.0007945787014023 [Eh]
	-----------------------------------------------------------

  Dipole Moment: [D]
     X:     3.1806      Y:     1.5564      Z:     0.7310     Total:     3.6156

*** Psi4 exiting successfully. Buy a developer a beer!
