                               Psi4 1.4a3.dev225

  ==> Input File <==

--------------------------------------------------------------------------
#psi4
#
memory 32 gb

molecule  {
0 1
  O       -0.1447520     2.0657680    -0.9147710
  O       -2.4135200    -1.3721290    -0.1231600
  N        2.4623060    -1.2702550     0.0647480
  C        1.2743520    -0.4775570    -0.2805680
  C        1.2169020     0.7460590     0.6287670
  C        0.0292070    -1.3356180    -0.0781670
  C       -0.0652210     1.5501200     0.4236430
  C       -1.2565570    -0.5478520    -0.3033930
  C       -1.3010200     0.6792110     0.6017970
  H        1.2815110    -0.1258050    -1.3254330
  H        1.2829160     0.4071000     1.6706590
  H        2.0904420     1.3917410     0.4518040
  H        0.0420040    -2.2046970    -0.7480580
  H        0.0468530    -1.7199520     0.9526730
  H       -0.0913865     2.2310322     1.0137422
  H       -1.3133970    -0.2220240    -1.3458810
  H       -1.3538320     0.3483370     1.6492240
  H       -2.2017640     1.2636240     0.3898210
  H        3.3008500    -0.7206310    -0.1283000
  H        2.5136850    -2.0796090    -0.5553910
  H        0.6334020     2.6343050    -1.0521070
  H       -2.3814240    -1.6980050     0.7940470
units angstrom
no_reorient  #important for SAPT in psi4, default
symmetry c1  #important for SAPT in psi4, default
}

set PROPERTIES_ORIGIN ["COM"]
properties('MP2/aug-cc-pvtz', properties = ['dipole'])
--------------------------------------------------------------------------

    Molecular point group: c1
  Charge       = 0
  Multiplicity = 1
  Basis Set: AUG-CC-PVTZ
    Blend: AUG-CC-PVTZ
  Basis Set: (AUG-CC-PVTZ AUX)
    Blend: AUG-CC-PVTZ-JKFIT

    Orbital Energies [Eh]
    ---------------------

    Doubly Occupied:

       1A    -20.559100     2A    -20.550712     3A    -15.545221
       4A    -11.270990     5A    -11.260289     6A    -11.255548
       7A    -11.224348     8A    -11.218591     9A    -11.216919
      10A     -1.361816    11A     -1.349235    12A     -1.191498
      13A     -1.089829    14A     -1.003277    15A     -0.985626
      16A     -0.858218    17A     -0.825764    18A     -0.770805
      19A     -0.712355    20A     -0.676909    21A     -0.657912
      22A     -0.643166    23A     -0.624977    24A     -0.614802
      25A     -0.590990    26A     -0.564417    27A     -0.548455
      28A     -0.529985    29A     -0.527279    30A     -0.501903
      31A     -0.489343    32A     -0.475187    33A     -0.452780
      34A     -0.446721    35A     -0.423344    36A     -0.395501

  @DF-RHF Final Energy:  -439.07874211472529

   => Energetics <=

    Nuclear Repulsion Energy =            508.1677289330217491
    One-Electron Energy =               -1607.6653148319999218
    Two-Electron Energy =                 660.4188437842529993
    Total Energy =                       -439.0787421147252871
  Basis Set: (AUG-CC-PVTZ AUX)
    Blend: AUG-CC-PVTZ-RI
    Molecular point group: c1

    Geometry (in Angstrom), charge = 0, multiplicity = 1:

       Center              X                  Y                   Z               Mass
    ------------   -----------------  -----------------  -----------------  -----------------
         O           -0.115860287669     2.064386373003    -0.899443345142    15.994914619570
         O           -2.384628287669    -1.373510626997    -0.107832345142    15.994914619570
         N            2.491197712331    -1.271636626997     0.080075654858    14.003074004430
         C            1.303243712331    -0.478938626997    -0.265240345142    12.000000000000
         C            1.245793712331     0.744677373003     0.644094654858    12.000000000000
         C            0.058098712331    -1.336999626997    -0.062839345142    12.000000000000
         C           -0.036329287669     1.548738373003     0.438970654858    12.000000000000
         C           -1.227665287669    -0.549233626997    -0.288065345142    12.000000000000
         C           -1.272128287669     0.677829373003     0.617124654858    12.000000000000
         H            1.310402712331    -0.127186626997    -1.310105345142     1.007825032230
         H            1.311807712331     0.405718373003     1.685986654858     1.007825032230
         H            2.119333712331     1.390359373003     0.467131654858     1.007825032230
         H            0.070895712331    -2.206078626997    -0.732730345142     1.007825032230
         H            0.075744712331    -1.721333626997     0.968000654858     1.007825032230
         H           -0.062494787669     2.229650573003     1.029069854858     1.007825032230
         H           -1.284505287669    -0.223405626997    -1.330553345142     1.007825032230
         H           -1.324940287669     0.346955373003     1.664551654858     1.007825032230
         H           -2.172872287669     1.262242373003     0.405148654858     1.007825032230
         H            3.329741712331    -0.722012626997    -0.112972345142     1.007825032230
         H            2.542576712331    -2.080990626997    -0.540063345142     1.007825032230
         H            0.662293712331     2.632923373003    -1.036779345142     1.007825032230
         H           -2.352532287669    -1.699386626997     0.809374654858     1.007825032230

  Basis Set: AUG-CC-PVTZ
    Blend: AUG-CC-PVTZ
  Basis Set: (AUG-CC-PVTZ AUX)
    Blend: AUG-CC-PVTZ-JKFIT
	 Reference Energy          =    -439.0787421147252871 [Eh]
	 Singles Energy            =      -0.0000000000000000 [Eh]
	 Same-Spin Energy          =      -0.4513532262474320 [Eh]
	 Opposite-Spin Energy      =      -1.4722708300145031 [Eh]
	 Correlation Energy        =      -1.9236240562619351 [Eh]
	 Total Energy              =    -441.0023661709872158 [Eh]

	 ================> DF-SCS-MP2 Energies <==================
	-----------------------------------------------------------
	 SCS Same-Spin Scale       =       0.3333333333333333 [-]
	 SCS Opposite-Spin Scale   =       1.2000000000000000 [-]
	 SCS Same-Spin Energy      =      -0.1504510754158107 [Eh]
	 SCS Opposite-Spin Energy  =      -1.7667249960174036 [Eh]
	 SCS Correlation Energy    =      -1.9171760714332142 [Eh]
	 SCS Total Energy          =    -440.9959181861585193 [Eh]
	-----------------------------------------------------------

  Dipole Moment: [D]
     X:     2.5342      Y:     1.2164      Z:     0.8489     Total:     2.9364

*** Psi4 exiting successfully. Buy a developer a beer!
