                               Psi4 1.4a3.dev225

  ==> Input File <==

--------------------------------------------------------------------------
#psi4
#
memory 32 gb

molecule  {
0 1
  O       -0.1447520     2.0657680    -0.9147710
  O       -2.4135200    -1.3721290    -0.1231600
  N        2.4623060    -1.2702550     0.0647480
  C        1.2743520    -0.4775570    -0.2805680
  C        1.2169020     0.7460590     0.6287670
  C       -0.1340207    -1.4481023    -0.0516340
  C       -0.0652210     1.5501200     0.4236430
  C       -1.2565570    -0.5478520    -0.3033930
  C       -1.3010200     0.6792110     0.6017970
  H        1.2815110    -0.1258050    -1.3254330
  H        1.2829160     0.4071000     1.6706590
  H        2.0904420     1.3917410     0.4518040
  H        0.0420040    -2.2046970    -0.7480580
  H        0.0468530    -1.7199520     0.9526730
  H       -0.0971920     2.3821090     1.1446700
  H       -1.3133970    -0.2220240    -1.3458810
  H       -1.3538320     0.3483370     1.6492240
  H       -2.2017640     1.2636240     0.3898210
  H        3.3008500    -0.7206310    -0.1283000
  H        2.5136850    -2.0796090    -0.5553910
  H        0.6334020     2.6343050    -1.0521070
  H       -2.3814240    -1.6980050     0.7940470
units angstrom
no_reorient  #important for SAPT in psi4, default
symmetry c1  #important for SAPT in psi4, default
}

set PROPERTIES_ORIGIN ["COM"]
properties('MP2/aug-cc-pvtz', properties = ['dipole'])
--------------------------------------------------------------------------

    Molecular point group: c1
  Charge       = 0
  Multiplicity = 1
  Basis Set: AUG-CC-PVTZ
    Blend: AUG-CC-PVTZ
  Basis Set: (AUG-CC-PVTZ AUX)
    Blend: AUG-CC-PVTZ-JKFIT

    Orbital Energies [Eh]
    ---------------------

    Doubly Occupied:

       1A    -20.561760     2A    -20.543937     3A    -15.545969
       4A    -11.285782     5A    -11.269169     6A    -11.261451
       7A    -11.225315     8A    -11.222070     9A    -11.216898
      10A     -1.362500    11A     -1.349818    12A     -1.184056
      13A     -1.084892    14A     -1.001309    15A     -0.977504
      16A     -0.843289    17A     -0.819039    18A     -0.770484
      19A     -0.693889    20A     -0.677133    21A     -0.654181
      22A     -0.644011    23A     -0.626379    24A     -0.612967
      25A     -0.598206    26A     -0.563713    27A     -0.550777
      28A     -0.534323    29A     -0.529309    30A     -0.499852
      31A     -0.494470    32A     -0.475796    33A     -0.452385
      34A     -0.425898    35A     -0.416804    36A     -0.382346

  @DF-RHF Final Energy:  -439.08016871203006

   => Energetics <=

    Nuclear Repulsion Energy =            505.2213693451060976
    One-Electron Energy =               -1601.8877075649882045
    Two-Electron Energy =                 657.5861695078521052
    Total Energy =                       -439.0801687120300585
  Basis Set: (AUG-CC-PVTZ AUX)
    Blend: AUG-CC-PVTZ-RI
    Molecular point group: c1

    Geometry (in Angstrom), charge = 0, multiplicity = 1:

       Center              X                  Y                   Z               Mass
    ------------   -----------------  -----------------  -----------------  -----------------
         O           -0.100874293596     2.073521397309    -0.902878637029    15.994914619570
         O           -2.369642293596    -1.364375602691    -0.111267637029    15.994914619570
         N            2.506183706404    -1.262501602691     0.076640362971    14.003074004430
         C            1.318229706404    -0.469803602691    -0.268675637029    12.000000000000
         C            1.260779706404     0.753812397309     0.640659362971    12.000000000000
         C           -0.090142993596    -1.440348902691    -0.039741637029    12.000000000000
         C           -0.021343293596     1.557873397309     0.435535362971    12.000000000000
         C           -1.212679293596    -0.540098602691    -0.291500637029    12.000000000000
         C           -1.257142293596     0.686964397309     0.613689362971    12.000000000000
         H            1.325388706404    -0.118051602691    -1.313540637029     1.007825032230
         H            1.326793706404     0.414853397309     1.682551362971     1.007825032230
         H            2.134319706404     1.399494397309     0.463696362971     1.007825032230
         H            0.085881706404    -2.196943602691    -0.736165637029     1.007825032230
         H            0.090730706404    -1.712198602691     0.964565362971     1.007825032230
         H           -0.053314293596     2.389862397309     1.156562362971     1.007825032230
         H           -1.269519293596    -0.214270602691    -1.333988637029     1.007825032230
         H           -1.309954293596     0.356090397309     1.661116362971     1.007825032230
         H           -2.157886293596     1.271377397309     0.401713362971     1.007825032230
         H            3.344727706404    -0.712877602691    -0.116407637029     1.007825032230
         H            2.557562706404    -2.071855602691    -0.543498637029     1.007825032230
         H            0.677279706404     2.642058397309    -1.040214637029     1.007825032230
         H           -2.337546293596    -1.690251602691     0.805939362971     1.007825032230

  Basis Set: AUG-CC-PVTZ
    Blend: AUG-CC-PVTZ
  Basis Set: (AUG-CC-PVTZ AUX)
    Blend: AUG-CC-PVTZ-JKFIT
	 Reference Energy          =    -439.0801687120300585 [Eh]
	 Singles Energy            =      -0.0000000000000000 [Eh]
	 Same-Spin Energy          =      -0.4520686337915369 [Eh]
	 Opposite-Spin Energy      =      -1.4750936610022465 [Eh]
	 Correlation Energy        =      -1.9271622947937834 [Eh]
	 Total Energy              =    -441.0073310068238470 [Eh]

	 ================> DF-SCS-MP2 Energies <==================
	-----------------------------------------------------------
	 SCS Same-Spin Scale       =       0.3333333333333333 [-]
	 SCS Opposite-Spin Scale   =       1.2000000000000000 [-]
	 SCS Same-Spin Energy      =      -0.1506895445971790 [Eh]
	 SCS Opposite-Spin Energy  =      -1.7701123932026956 [Eh]
	 SCS Correlation Energy    =      -1.9208019377998746 [Eh]
	 SCS Total Energy          =    -441.0009706498299238 [Eh]
	-----------------------------------------------------------

  Dipole Moment: [D]
     X:     2.6368      Y:     1.1464      Z:     0.7345     Total:     2.9675

*** Psi4 exiting successfully. Buy a developer a beer!
