                               Psi4 1.4a3.dev225

  ==> Input File <==

--------------------------------------------------------------------------
#psi4
#
memory 32 gb

molecule  {
0 1
  O       -0.1447520     2.0657680    -0.9147710
  O       -2.4135200    -1.3721290    -0.1231600
  N        2.4623060    -1.2702550     0.0647480
  C        1.2743520    -0.4775570    -0.2805680
  C        1.2169020     0.7460590     0.6287670
  C        0.0292070    -1.3356180    -0.0781670
  C       -0.0652210     1.5501200     0.4236430
  C       -1.2565570    -0.5478520    -0.3033930
  C       -1.3010200     0.6792110     0.6017970
  H        1.2815110    -0.1258050    -1.3254330
  H        1.2829160     0.4071000     1.6706590
  H        2.0904420     1.3917410     0.4518040
  H        0.0420040    -2.2046970    -0.7480580
  H        0.0468530    -1.7199520     0.9526730
  H       -0.0971920     2.3821090     1.1446700
  H       -1.3133970    -0.2220240    -1.3458810
  H       -1.3538320     0.3483370     1.6492240
  H       -2.0371613     1.1568279     0.4285577
  H        3.3008500    -0.7206310    -0.1283000
  H        2.5136850    -2.0796090    -0.5553910
  H        0.6334020     2.6343050    -1.0521070
  H       -2.3814240    -1.6980050     0.7940470
units angstrom
no_reorient  #important for SAPT in psi4, default
symmetry c1  #important for SAPT in psi4, default
}

set PROPERTIES_ORIGIN ["COM"]
properties('MP2/aug-cc-pvtz', properties = ['dipole'])
--------------------------------------------------------------------------

    Molecular point group: c1
  Charge       = 0
  Multiplicity = 1
  Basis Set: AUG-CC-PVTZ
    Blend: AUG-CC-PVTZ
  Basis Set: (AUG-CC-PVTZ AUX)
    Blend: AUG-CC-PVTZ-JKFIT

    Orbital Energies [Eh]
    ---------------------

    Doubly Occupied:

       1A    -20.562055     2A    -20.551731     3A    -15.545424
       4A    -11.284842     5A    -11.270751     6A    -11.255703
       7A    -11.224708     8A    -11.216428     9A    -11.195871
      10A     -1.362925    11A     -1.350193    12A     -1.191615
      13A     -1.091325    14A     -0.998466    15A     -0.994882
      16A     -0.840244    17A     -0.833914    18A     -0.770676
      19A     -0.699502    20A     -0.683026    21A     -0.655717
      22A     -0.651647    23A     -0.625175    24A     -0.611266
      25A     -0.595567    26A     -0.564023    27A     -0.554065
      28A     -0.538556    29A     -0.526118    30A     -0.500096
      31A     -0.491566    32A     -0.476602    33A     -0.454668
      34A     -0.444404    35A     -0.420339    36A     -0.394887

  @DF-RHF Final Energy:  -439.07603580869466

   => Energetics <=

    Nuclear Repulsion Energy =            508.0968740121872997
    One-Electron Energy =               -1607.4878634198876171
    Two-Electron Energy =                 660.3149535990056620
    Total Energy =                       -439.0760358086946553
  Basis Set: (AUG-CC-PVTZ AUX)
    Blend: AUG-CC-PVTZ-RI
    Molecular point group: c1

    Geometry (in Angstrom), charge = 0, multiplicity = 1:

       Center              X                  Y                   Z               Mass
    ------------   -----------------  -----------------  -----------------  -----------------
         O           -0.117081083631     2.064045953274    -0.900747686380    15.994914619570
         O           -2.385849083631    -1.373851046726    -0.109136686380    15.994914619570
         N            2.489976916369    -1.271977046726     0.078771313620    14.003074004430
         C            1.302022916369    -0.479279046726    -0.266544686380    12.000000000000
         C            1.244572916369     0.744336953274     0.642790313620    12.000000000000
         C            0.056877916369    -1.337340046726    -0.064143686380    12.000000000000
         C           -0.037550083631     1.548397953274     0.437666313620    12.000000000000
         C           -1.228886083631    -0.549574046726    -0.289369686380    12.000000000000
         C           -1.273349083631     0.677488953274     0.615820313620    12.000000000000
         H            1.309181916369    -0.127527046726    -1.311409686380     1.007825032230
         H            1.310586916369     0.405377953274     1.684682313620     1.007825032230
         H            2.118112916369     1.390018953274     0.465827313620     1.007825032230
         H            0.069674916369    -2.206419046726    -0.734034686380     1.007825032230
         H            0.074523916369    -1.721674046726     0.966696313620     1.007825032230
         H           -0.069521083631     2.380386953274     1.158693313620     1.007825032230
         H           -1.285726083631    -0.223746046726    -1.331857686380     1.007825032230
         H           -1.326161083631     0.346614953274     1.663247313620     1.007825032230
         H           -2.009490383631     1.155105853274     0.442581013620     1.007825032230
         H            3.328520916369    -0.722353046726    -0.114276686380     1.007825032230
         H            2.541355916369    -2.081331046726    -0.541367686380     1.007825032230
         H            0.661072916369     2.632582953274    -1.038083686380     1.007825032230
         H           -2.353753083631    -1.699727046726     0.808070313620     1.007825032230

  Basis Set: AUG-CC-PVTZ
    Blend: AUG-CC-PVTZ
  Basis Set: (AUG-CC-PVTZ AUX)
    Blend: AUG-CC-PVTZ-JKFIT
	 Reference Energy          =    -439.0760358086946553 [Eh]
	 Singles Energy            =      -0.0000000000000000 [Eh]
	 Same-Spin Energy          =      -0.4514378638541245 [Eh]
	 Opposite-Spin Energy      =      -1.4724690916779146 [Eh]
	 Correlation Energy        =      -1.9239069555320392 [Eh]
	 Total Energy              =    -440.9999427642267165 [Eh]

	 ================> DF-SCS-MP2 Energies <==================
	-----------------------------------------------------------
	 SCS Same-Spin Scale       =       0.3333333333333333 [-]
	 SCS Opposite-Spin Scale   =       1.2000000000000000 [-]
	 SCS Same-Spin Energy      =      -0.1504792879513748 [Eh]
	 SCS Opposite-Spin Energy  =      -1.7669629100134976 [Eh]
	 SCS Correlation Energy    =      -1.9174421979648724 [Eh]
	 SCS Total Energy          =    -440.9934780066595295 [Eh]
	-----------------------------------------------------------

  Dipole Moment: [D]
     X:     2.4673      Y:     1.1678      Z:     0.7601     Total:     2.8336

*** Psi4 exiting successfully. Buy a developer a beer!
