                               Psi4 1.4a3.dev225

  ==> Input File <==

--------------------------------------------------------------------------
#psi4
#
memory 32 gb

molecule  {
0 1
  O       -0.1447520     2.0657680    -0.9147710
  O       -2.4135200    -1.3721290    -0.1231600
  N        2.4623060    -1.2702550     0.0647480
  C        1.2743520    -0.4775570    -0.2805680
  C        1.2169020     0.7460590     0.6287670
  C        0.0292070    -1.3356180    -0.0781670
  C       -0.0652210     1.5501200     0.4236430
  C       -1.2565570    -0.5478520    -0.3033930
  C       -1.3172559     0.6677690     0.6041376
  H        1.2815110    -0.1258050    -1.3254330
  H        1.2829160     0.4071000     1.6706590
  H        2.0904420     1.3917410     0.4518040
  H        0.0420040    -2.2046970    -0.7480580
  H        0.0468530    -1.7199520     0.9526730
  H       -0.0971920     2.3821090     1.1446700
  H       -1.3133970    -0.2220240    -1.3458810
  H       -1.3538320     0.3483370     1.6492240
  H       -2.2017640     1.2636240     0.3898210
  H        3.3008500    -0.7206310    -0.1283000
  H        2.5136850    -2.0796090    -0.5553910
  H        0.6334020     2.6343050    -1.0521070
  H       -2.3814240    -1.6980050     0.7940470
units angstrom
no_reorient  #important for SAPT in psi4, default
symmetry c1  #important for SAPT in psi4, default
}

set PROPERTIES_ORIGIN ["COM"]
properties('MP2/aug-cc-pvtz', properties = ['dipole'])
--------------------------------------------------------------------------

    Molecular point group: c1
  Charge       = 0
  Multiplicity = 1
  Basis Set: AUG-CC-PVTZ
    Blend: AUG-CC-PVTZ
  Basis Set: (AUG-CC-PVTZ AUX)
    Blend: AUG-CC-PVTZ-JKFIT

    Orbital Energies [Eh]
    ---------------------

    Doubly Occupied:

       1A    -20.561815     2A    -20.550817     3A    -15.546047
       4A    -11.286623     5A    -11.271524     6A    -11.256461
       7A    -11.225755     8A    -11.219425     9A    -11.217868
      10A     -1.362189    11A     -1.349904    12A     -1.192282
      13A     -1.086189    14A     -0.995649    15A     -0.985644
      16A     -0.839812    17A     -0.823771    18A     -0.769742
      19A     -0.695353    20A     -0.677850    21A     -0.654528
      22A     -0.642129    23A     -0.625302    24A     -0.611747
      25A     -0.592380    26A     -0.563131    27A     -0.549154
      28A     -0.531738    29A     -0.526883    30A     -0.499012
      31A     -0.489901    32A     -0.476228    33A     -0.451544
      34A     -0.443785    35A     -0.421423    36A     -0.395473

  @DF-RHF Final Energy:  -439.10933896006384

   => Energetics <=

    Nuclear Repulsion Energy =            506.7070546112712464
    One-Electron Energy =               -1604.8546304461551699
    Two-Electron Energy =                 659.0382368748199724
    Total Energy =                       -439.1093389600638375
  Basis Set: (AUG-CC-PVTZ AUX)
    Blend: AUG-CC-PVTZ-RI
    Molecular point group: c1

    Geometry (in Angstrom), charge = 0, multiplicity = 1:

       Center              X                  Y                   Z               Mass
    ------------   -----------------  -----------------  -----------------  -----------------
         O           -0.114329471874     2.064272295249    -0.900664138975    15.994914619570
         O           -2.383097471874    -1.373624704751    -0.109053138975    15.994914619570
         N            2.492728528126    -1.271750704751     0.078854861025    14.003074004430
         C            1.304774528126    -0.479052704751    -0.266461138975    12.000000000000
         C            1.247324528126     0.744563295249     0.642873861025    12.000000000000
         C            0.059629528126    -1.337113704751    -0.064060138975    12.000000000000
         C           -0.034798471874     1.548624295249     0.437749861025    12.000000000000
         C           -1.226134471874    -0.549347704751    -0.289286138975    12.000000000000
         C           -1.286833371874     0.666273295249     0.618244461025    12.000000000000
         H            1.311933528126    -0.127300704751    -1.311326138975     1.007825032230
         H            1.313338528126     0.405604295249     1.684765861025     1.007825032230
         H            2.120864528126     1.390245295249     0.465910861025     1.007825032230
         H            0.072426528126    -2.206192704751    -0.733951138975     1.007825032230
         H            0.077275528126    -1.721447704751     0.966779861025     1.007825032230
         H           -0.066769471874     2.380613295249     1.158776861025     1.007825032230
         H           -1.282974471874    -0.223519704751    -1.331774138975     1.007825032230
         H           -1.323409471874     0.346841295249     1.663330861025     1.007825032230
         H           -2.171341471874     1.262128295249     0.403927861025     1.007825032230
         H            3.331272528126    -0.722126704751    -0.114193138975     1.007825032230
         H            2.544107528126    -2.081104704751    -0.541284138975     1.007825032230
         H            0.663824528126     2.632809295249    -1.038000138975     1.007825032230
         H           -2.351001471874    -1.699500704751     0.808153861025     1.007825032230

  Basis Set: AUG-CC-PVTZ
    Blend: AUG-CC-PVTZ
  Basis Set: (AUG-CC-PVTZ AUX)
    Blend: AUG-CC-PVTZ-JKFIT
	 Reference Energy          =    -439.1093389600638375 [Eh]
	 Singles Energy            =      -0.0000000000000000 [Eh]
	 Same-Spin Energy          =      -0.4514205906715855 [Eh]
	 Opposite-Spin Energy      =      -1.4731790104940337 [Eh]
	 Correlation Energy        =      -1.9245996011656192 [Eh]
	 Total Energy              =    -441.0339385612294336 [Eh]

	 ================> DF-SCS-MP2 Energies <==================
	-----------------------------------------------------------
	 SCS Same-Spin Scale       =       0.3333333333333333 [-]
	 SCS Opposite-Spin Scale   =       1.2000000000000000 [-]
	 SCS Same-Spin Energy      =      -0.1504735302238618 [Eh]
	 SCS Opposite-Spin Energy  =      -1.7678148125928403 [Eh]
	 SCS Correlation Energy    =      -1.9182883428167021 [Eh]
	 SCS Total Energy          =    -441.0276273028805463 [Eh]
	-----------------------------------------------------------

  Dipole Moment: [D]
     X:     2.5437      Y:     1.1355      Z:     0.7453     Total:     2.8836

*** Psi4 exiting successfully. Buy a developer a beer!
