                               Psi4 1.4a3.dev225

  ==> Input File <==

--------------------------------------------------------------------------
#psi4
#
memory 32 gb

molecule  {
0 1
  O       -0.1447520     2.0657680    -0.9147710
  O       -2.4135200    -1.3721290    -0.1231600
  N        2.4623060    -1.2702550     0.0647480
  C        1.2743520    -0.4775570    -0.2805680
  C        1.2169020     0.7460590     0.6287670
  C        0.0292070    -1.3356180    -0.0781670
  C       -0.0652210     1.5501200     0.4236430
  C       -1.2565570    -0.5478520    -0.3033930
  C       -1.3010200     0.6792110     0.6017970
  H        1.2815110    -0.1258050    -1.3254330
  H        1.2829160     0.4071000     1.6706590
  H        2.0904420     1.3917410     0.4518040
  H        0.0420040    -2.2046970    -0.7480580
  H        0.0468530    -1.7199520     0.9526730
  H       -0.0971920     2.3821090     1.1446700
  H       -1.3133970    -0.2220240    -1.3458810
  H       -1.3538320     0.3483370     1.6492240
  H       -2.2017640     1.2636240     0.3898210
  H        3.3008500    -0.7206310    -0.1283000
  H        2.5136850    -2.0796090    -0.5553910
  H        0.6733706     2.6635069    -1.0591610
  H       -2.3814240    -1.6980050     0.7940470
units angstrom
no_reorient  #important for SAPT in psi4, default
symmetry c1  #important for SAPT in psi4, default
}

set PROPERTIES_ORIGIN ["COM"]
properties('MP2/aug-cc-pvtz', properties = ['dipole'])
--------------------------------------------------------------------------

    Molecular point group: c1
  Charge       = 0
  Multiplicity = 1
  Basis Set: AUG-CC-PVTZ
    Blend: AUG-CC-PVTZ
  Basis Set: (AUG-CC-PVTZ AUX)
    Blend: AUG-CC-PVTZ-JKFIT

    Orbital Energies [Eh]
    ---------------------

    Doubly Occupied:

       1A    -20.566324     2A    -20.551551     3A    -15.545914
       4A    -11.285497     5A    -11.271839     6A    -11.256266
       7A    -11.225517     8A    -11.219827     9A    -11.217539
      10A     -1.354262    11A     -1.348662    12A     -1.192065
      13A     -1.085982    14A     -0.995176    15A     -0.985488
      16A     -0.839125    17A     -0.822871    18A     -0.766540
      19A     -0.692142    20A     -0.674991    21A     -0.654508
      22A     -0.640882    23A     -0.624958    24A     -0.611365
      25A     -0.590504    26A     -0.562957    27A     -0.548027
      28A     -0.529757    29A     -0.526159    30A     -0.498319
      31A     -0.489953    32A     -0.475646    33A     -0.452732
      34A     -0.443796    35A     -0.420108    36A     -0.395200

  @DF-RHF Final Energy:  -439.10429409931601

   => Energetics <=

    Nuclear Repulsion Energy =            506.5768205190213962
    One-Electron Energy =               -1604.6373303045952525
    Two-Electron Energy =                 658.9562156862579059
    Total Energy =                       -439.1042940993160073
  Basis Set: (AUG-CC-PVTZ AUX)
    Blend: AUG-CC-PVTZ-RI
    Molecular point group: c1

    Geometry (in Angstrom), charge = 0, multiplicity = 1:

       Center              X                  Y                   Z               Mass
    ------------   -----------------  -----------------  -----------------  -----------------
         O           -0.116122925641     2.063000432263    -0.900395658122    15.994914619570
         O           -2.384890925641    -1.374896567737    -0.108784658122    15.994914619570
         N            2.490935074359    -1.273022567737     0.079123341878    14.003074004430
         C            1.302981074359    -0.480324567737    -0.266192658122    12.000000000000
         C            1.245531074359     0.743291432263     0.643142341878    12.000000000000
         C            0.057836074359    -1.338385567737    -0.063791658122    12.000000000000
         C           -0.036591925641     1.547352432263     0.438018341878    12.000000000000
         C           -1.227927925641    -0.550619567737    -0.289017658122    12.000000000000
         C           -1.272390925641     0.676443432263     0.616172341878    12.000000000000
         H            1.310140074359    -0.128572567737    -1.311057658122     1.007825032230
         H            1.311545074359     0.404332432263     1.685034341878     1.007825032230
         H            2.119071074359     1.388973432263     0.466179341878     1.007825032230
         H            0.070633074359    -2.207464567737    -0.733682658122     1.007825032230
         H            0.075482074359    -1.722719567737     0.967048341878     1.007825032230
         H           -0.068562925641     2.379341432263     1.159045341878     1.007825032230
         H           -1.284767925641    -0.224791567737    -1.331505658122     1.007825032230
         H           -1.325202925641     0.345569432263     1.663599341878     1.007825032230
         H           -2.173134925641     1.260856432263     0.404196341878     1.007825032230
         H            3.329479074359    -0.723398567737    -0.113924658122     1.007825032230
         H            2.542314074359    -2.082376567737    -0.541015658122     1.007825032230
         H            0.701999674359     2.660739332263    -1.044785658122     1.007825032230
         H           -2.352794925641    -1.700772567737     0.808422341878     1.007825032230

  Basis Set: AUG-CC-PVTZ
    Blend: AUG-CC-PVTZ
  Basis Set: (AUG-CC-PVTZ AUX)
    Blend: AUG-CC-PVTZ-JKFIT
	 Reference Energy          =    -439.1042940993160073 [Eh]
	 Singles Energy            =      -0.0000000000000000 [Eh]
	 Same-Spin Energy          =      -0.4521124066864445 [Eh]
	 Opposite-Spin Energy      =      -1.4749237420023615 [Eh]
	 Correlation Energy        =      -1.9270361486888059 [Eh]
	 Total Energy              =    -441.0313302480047923 [Eh]

	 ================> DF-SCS-MP2 Energies <==================
	-----------------------------------------------------------
	 SCS Same-Spin Scale       =       0.3333333333333333 [-]
	 SCS Opposite-Spin Scale   =       1.2000000000000000 [-]
	 SCS Same-Spin Energy      =      -0.1507041355621482 [Eh]
	 SCS Opposite-Spin Energy  =      -1.7699084904028337 [Eh]
	 SCS Correlation Energy    =      -1.9206126259649818 [Eh]
	 SCS Total Energy          =    -441.0249067252809709 [Eh]
	-----------------------------------------------------------

  Dipole Moment: [D]
     X:     2.5563      Y:     1.1503      Z:     0.7335     Total:     2.8975

*** Psi4 exiting successfully. Buy a developer a beer!
