                               Psi4 1.4a3.dev225

  ==> Input File <==

--------------------------------------------------------------------------
#psi4
#
memory 32 gb

molecule  {
0 1
  O       -0.1447520     2.0657680    -0.9147710
  O       -2.4135200    -1.3721290    -0.1231600
  N        2.4623060    -1.2702550     0.0647480
  C        1.2743520    -0.4775570    -0.2805680
  C        1.2169020     0.7460590     0.6287670
  C        0.0292070    -1.3356180    -0.0781670
  C       -0.0652210     1.5501200     0.4236430
  C       -1.2488756    -0.5304454    -0.2847900
  C       -1.3010200     0.6792110     0.6017970
  H        1.2815110    -0.1258050    -1.3254330
  H        1.2829160     0.4071000     1.6706590
  H        2.0904420     1.3917410     0.4518040
  H        0.0420040    -2.2046970    -0.7480580
  H        0.0468530    -1.7199520     0.9526730
  H       -0.0971920     2.3821090     1.1446700
  H       -1.3133970    -0.2220240    -1.3458810
  H       -1.3538320     0.3483370     1.6492240
  H       -2.2017640     1.2636240     0.3898210
  H        3.3008500    -0.7206310    -0.1283000
  H        2.5136850    -2.0796090    -0.5553910
  H        0.6334020     2.6343050    -1.0521070
  H       -2.3814240    -1.6980050     0.7940470
units angstrom
no_reorient  #important for SAPT in psi4, default
symmetry c1  #important for SAPT in psi4, default
}

set PROPERTIES_ORIGIN ["COM"]
properties('MP2/aug-cc-pvtz', properties = ['dipole'])
--------------------------------------------------------------------------

    Molecular point group: c1
  Charge       = 0
  Multiplicity = 1
  Basis Set: AUG-CC-PVTZ
    Blend: AUG-CC-PVTZ
  Basis Set: (AUG-CC-PVTZ AUX)
    Blend: AUG-CC-PVTZ-JKFIT

    Orbital Energies [Eh]
    ---------------------

    Doubly Occupied:

       1A    -20.562350     2A    -20.550401     3A    -15.546132
       4A    -11.286811     5A    -11.272213     6A    -11.256519
       7A    -11.226303     8A    -11.220105     9A    -11.218049
      10A     -1.363125    11A     -1.345271    12A     -1.192566
      13A     -1.090212    14A     -0.996289    15A     -0.988723
      16A     -0.840767    17A     -0.822436    18A     -0.769094
      19A     -0.695946    20A     -0.678318    21A     -0.654713
      22A     -0.642445    23A     -0.626203    24A     -0.609004
      25A     -0.591065    26A     -0.563223    27A     -0.548591
      28A     -0.530801    29A     -0.527295    30A     -0.501310
      31A     -0.490397    32A     -0.473510    33A     -0.454438
      34A     -0.442256    35A     -0.424892    36A     -0.395723

  @DF-RHF Final Energy:  -439.10808293216428

   => Energetics <=

    Nuclear Repulsion Energy =            507.1191481911492360
    One-Electron Energy =               -1605.6594743991265659
    Two-Electron Energy =                 659.4322432758131072
    Total Energy =                       -439.1080829321642796
  Basis Set: (AUG-CC-PVTZ AUX)
    Blend: AUG-CC-PVTZ-RI
    Molecular point group: c1

    Geometry (in Angstrom), charge = 0, multiplicity = 1:

       Center              X                  Y                   Z               Mass
    ------------   -----------------  -----------------  -----------------  -----------------
         O           -0.116518788118     2.061631582936    -0.902152749165    15.994914619570
         O           -2.385286788118    -1.376265417064    -0.110541749165    15.994914619570
         N            2.490539211882    -1.274391417064     0.077366250835    14.003074004430
         C            1.302585211882    -0.481693417064    -0.267949749165    12.000000000000
         C            1.245135211882     0.741922582936     0.641385250835    12.000000000000
         C            0.057440211882    -1.339754417064    -0.065548749165    12.000000000000
         C           -0.036987788118     1.545983582936     0.436261250835    12.000000000000
         C           -1.220642388118    -0.534581817064    -0.272171749165    12.000000000000
         C           -1.272786788118     0.675074582936     0.614415250835    12.000000000000
         H            1.309744211882    -0.129941417064    -1.312814749165     1.007825032230
         H            1.311149211882     0.402963582936     1.683277250835     1.007825032230
         H            2.118675211882     1.387604582936     0.464422250835     1.007825032230
         H            0.070237211882    -2.208833417064    -0.735439749165     1.007825032230
         H            0.075086211882    -1.724088417064     0.965291250835     1.007825032230
         H           -0.068958788118     2.377972582936     1.157288250835     1.007825032230
         H           -1.285163788118    -0.226160417064    -1.333262749165     1.007825032230
         H           -1.325598788118     0.344200582936     1.661842250835     1.007825032230
         H           -2.173530788118     1.259487582936     0.402439250835     1.007825032230
         H            3.329083211882    -0.724767417064    -0.115681749165     1.007825032230
         H            2.541918211882    -2.083745417064    -0.542772749165     1.007825032230
         H            0.661635211882     2.630168582936    -1.039488749165     1.007825032230
         H           -2.353190788118    -1.702141417064     0.806665250835     1.007825032230

  Basis Set: AUG-CC-PVTZ
    Blend: AUG-CC-PVTZ
  Basis Set: (AUG-CC-PVTZ AUX)
    Blend: AUG-CC-PVTZ-JKFIT
	 Reference Energy          =    -439.1080829321642796 [Eh]
	 Singles Energy            =      -0.0000000000000000 [Eh]
	 Same-Spin Energy          =      -0.4517761703863498 [Eh]
	 Opposite-Spin Energy      =      -1.4737831654640909 [Eh]
	 Correlation Energy        =      -1.9255593358504408 [Eh]
	 Total Energy              =    -441.0336422680147166 [Eh]

	 ================> DF-SCS-MP2 Energies <==================
	-----------------------------------------------------------
	 SCS Same-Spin Scale       =       0.3333333333333333 [-]
	 SCS Opposite-Spin Scale   =       1.2000000000000000 [-]
	 SCS Same-Spin Energy      =      -0.1505920567954499 [Eh]
	 SCS Opposite-Spin Energy  =      -1.7685397985569091 [Eh]
	 SCS Correlation Energy    =      -1.9191318553523591 [Eh]
	 SCS Total Energy          =    -441.0272147875166411 [Eh]
	-----------------------------------------------------------

  Dipole Moment: [D]
     X:     2.5791      Y:     1.1796      Z:     0.7646     Total:     2.9373

*** Psi4 exiting successfully. Buy a developer a beer!
