                               Psi4 1.4a3.dev225

  ==> Input File <==

--------------------------------------------------------------------------
#psi4
#
memory 32 gb

molecule  {
0 1
  O       -0.1447520     2.0657680    -0.9147710
  O       -2.4135200    -1.3721290    -0.1231600
  N        2.4623060    -1.2702550     0.0647480
  C        1.2743520    -0.4775570    -0.2805680
  C        1.2169020     0.7460590     0.6287670
  C        0.0128842    -1.3468664    -0.0755137
  C       -0.0652210     1.5501200     0.4236430
  C       -1.2565570    -0.5478520    -0.3033930
  C       -1.3010200     0.6792110     0.6017970
  H        1.2815110    -0.1258050    -1.3254330
  H        1.2829160     0.4071000     1.6706590
  H        2.0904420     1.3917410     0.4518040
  H        0.0420040    -2.2046970    -0.7480580
  H        0.0468530    -1.7199520     0.9526730
  H       -0.0971920     2.3821090     1.1446700
  H       -1.3133970    -0.2220240    -1.3458810
  H       -1.3538320     0.3483370     1.6492240
  H       -2.2017640     1.2636240     0.3898210
  H        3.3008500    -0.7206310    -0.1283000
  H        2.5136850    -2.0796090    -0.5553910
  H        0.6334020     2.6343050    -1.0521070
  H       -2.3814240    -1.6980050     0.7940470
units angstrom
no_reorient  #important for SAPT in psi4, default
symmetry c1  #important for SAPT in psi4, default
}

set PROPERTIES_ORIGIN ["COM"]
properties('MP2/aug-cc-pvtz', properties = ['dipole'])
--------------------------------------------------------------------------

    Molecular point group: c1
  Charge       = 0
  Multiplicity = 1
  Basis Set: AUG-CC-PVTZ
    Blend: AUG-CC-PVTZ
  Basis Set: (AUG-CC-PVTZ AUX)
    Blend: AUG-CC-PVTZ-JKFIT

    Orbital Energies [Eh]
    ---------------------

    Doubly Occupied:

       1A    -20.561847     2A    -20.550775     3A    -15.546047
       4A    -11.285889     5A    -11.271447     6A    -11.257241
       7A    -11.225729     8A    -11.220042     9A    -11.217114
      10A     -1.362613    11A     -1.349885    12A     -1.191236
      13A     -1.087039    14A     -0.996492    15A     -0.984877
      16A     -0.840317    17A     -0.822961    18A     -0.769686
      19A     -0.695706    20A     -0.677734    21A     -0.654472
      22A     -0.641845    23A     -0.625815    24A     -0.611842
      25A     -0.592362    26A     -0.562811    27A     -0.548867
      28A     -0.530675    29A     -0.527348    30A     -0.499337
      31A     -0.491520    32A     -0.474840    33A     -0.453378
      34A     -0.443008    35A     -0.421161    36A     -0.394970

  @DF-RHF Final Energy:  -439.10936075584851

   => Energetics <=

    Nuclear Repulsion Energy =            506.7091893185574918
    One-Electron Energy =               -1604.8592435712198494
    Two-Electron Energy =                 659.0406934968139012
    Total Energy =                       -439.1093607558484564
  Basis Set: (AUG-CC-PVTZ AUX)
    Blend: AUG-CC-PVTZ-RI
    Molecular point group: c1

    Geometry (in Angstrom), charge = 0, multiplicity = 1:

       Center              X                  Y                   Z               Mass
    ------------   -----------------  -----------------  -----------------  -----------------
         O           -0.114321517315     2.064254573699    -0.900692762574    15.994914619570
         O           -2.383089517315    -1.373642426301    -0.109081762574    15.994914619570
         N            2.492736482685    -1.271768426301     0.078826237426    14.003074004430
         C            1.304782482685    -0.479070426301    -0.266489762574    12.000000000000
         C            1.247332482685     0.744545573699     0.642845237426    12.000000000000
         C            0.043314682685    -1.348379826301    -0.061435462574    12.000000000000
         C           -0.034790517315     1.548606573699     0.437721237426    12.000000000000
         C           -1.226126517315    -0.549365426301    -0.289314762574    12.000000000000
         C           -1.270589517315     0.677697573699     0.615875237426    12.000000000000
         H            1.311941482685    -0.127318426301    -1.311354762574     1.007825032230
         H            1.313346482685     0.405586573699     1.684737237426     1.007825032230
         H            2.120872482685     1.390227573699     0.465882237426     1.007825032230
         H            0.072434482685    -2.206210426301    -0.733979762574     1.007825032230
         H            0.077283482685    -1.721465426301     0.966751237426     1.007825032230
         H           -0.066761517315     2.380595573699     1.158748237426     1.007825032230
         H           -1.282966517315    -0.223537426301    -1.331802762574     1.007825032230
         H           -1.323401517315     0.346823573699     1.663302237426     1.007825032230
         H           -2.171333517315     1.262110573699     0.403899237426     1.007825032230
         H            3.331280482685    -0.722144426301    -0.114221762574     1.007825032230
         H            2.544115482685    -2.081122426301    -0.541312762574     1.007825032230
         H            0.663832482685     2.632791573699    -1.038028762574     1.007825032230
         H           -2.350993517315    -1.699518426301     0.808125237426     1.007825032230

  Basis Set: AUG-CC-PVTZ
    Blend: AUG-CC-PVTZ
  Basis Set: (AUG-CC-PVTZ AUX)
    Blend: AUG-CC-PVTZ-JKFIT
	 Reference Energy          =    -439.1093607558485132 [Eh]
	 Singles Energy            =      -0.0000000000000000 [Eh]
	 Same-Spin Energy          =      -0.4514115898454159 [Eh]
	 Opposite-Spin Energy      =      -1.4731719389364359 [Eh]
	 Correlation Energy        =      -1.9245835287818518 [Eh]
	 Total Energy              =    -441.0339442846303655 [Eh]

	 ================> DF-SCS-MP2 Energies <==================
	-----------------------------------------------------------
	 SCS Same-Spin Scale       =       0.3333333333333333 [-]
	 SCS Opposite-Spin Scale   =       1.2000000000000000 [-]
	 SCS Same-Spin Energy      =      -0.1504705299484719 [Eh]
	 SCS Opposite-Spin Energy  =      -1.7678063267237232 [Eh]
	 SCS Correlation Energy    =      -1.9182768566721951 [Eh]
	 SCS Total Energy          =    -441.0276376125207207 [Eh]
	-----------------------------------------------------------

  Dipole Moment: [D]
     X:     2.5494      Y:     1.1258      Z:     0.7445     Total:     2.8846

*** Psi4 exiting successfully. Buy a developer a beer!
