                               Psi4 1.4a3.dev225

  ==> Input File <==

--------------------------------------------------------------------------
#psi4
#
memory 32 gb

molecule  {
0 1
  O       -0.1447520     2.0657680    -0.9147710
  O       -2.4135200    -1.3721290    -0.1231600
  N        2.4623060    -1.2702550     0.0647480
  C        1.2743520    -0.4775570    -0.2805680
  C        1.2169020     0.7460590     0.6287670
  C        0.0292070    -1.3356180    -0.0781670
  C       -0.0652210     1.5501200     0.4236430
  C       -1.2565570    -0.5478520    -0.3033930
  C       -1.3010200     0.6792110     0.6017970
  H        1.2815110    -0.1258050    -1.3254330
  H        1.2829160     0.4071000     1.6706590
  H        2.0904420     1.3917410     0.4518040
  H        0.0420040    -2.2046970    -0.7480580
  H        0.0468530    -1.7199520     0.9526730
  H       -0.0971920     2.3821090     1.1446700
  H       -1.3133970    -0.2220240    -1.3458810
  H       -1.3538320     0.3483370     1.6492240
  H       -2.2017640     1.2636240     0.3898210
  H        3.3008500    -0.7206310    -0.1283000
  H        2.5136850    -2.0796090    -0.5553910
  H        0.6334020     2.6343050    -1.0521070
  H       -2.3820831    -1.6913129     0.7752114
units angstrom
no_reorient  #important for SAPT in psi4, default
symmetry c1  #important for SAPT in psi4, default
}

set PROPERTIES_ORIGIN ["COM"]
properties('MP2/aug-cc-pvtz', properties = ['dipole'])
--------------------------------------------------------------------------

    Molecular point group: c1
  Charge       = 0
  Multiplicity = 1
  Basis Set: AUG-CC-PVTZ
    Blend: AUG-CC-PVTZ
  Basis Set: (AUG-CC-PVTZ AUX)
    Blend: AUG-CC-PVTZ-JKFIT

    Orbital Energies [Eh]
    ---------------------

    Doubly Occupied:

       1A    -20.561928     2A    -20.549693     3A    -15.546103
       4A    -11.286003     5A    -11.272054     6A    -11.256564
       7A    -11.225871     8A    -11.219962     9A    -11.217762
      10A     -1.362948    11A     -1.354294    12A     -1.192409
      13A     -1.087740    14A     -0.996519    15A     -0.986148
      16A     -0.841293    17A     -0.823736    18A     -0.770047
      19A     -0.697118    20A     -0.678754    21A     -0.654849
      22A     -0.641728    23A     -0.626086    24A     -0.613655
      25A     -0.592233    26A     -0.563712    27A     -0.548927
      28A     -0.530933    29A     -0.526815    30A     -0.500018
      31A     -0.490474    32A     -0.475999    33A     -0.453782
      34A     -0.444445    35A     -0.420603    36A     -0.395491

  @DF-RHF Final Energy:  -439.11038903861970

   => Energetics <=

    Nuclear Repulsion Energy =            507.0031960471503680
    One-Electron Energy =               -1605.4137767451966283
    Two-Electron Energy =                 659.3001916594265595
    Total Energy =                       -439.1103890386197008
  Basis Set: (AUG-CC-PVTZ AUX)
    Blend: AUG-CC-PVTZ-RI
    Molecular point group: c1

    Geometry (in Angstrom), charge = 0, multiplicity = 1:

       Center              X                  Y                   Z               Mass
    ------------   -----------------  -----------------  -----------------  -----------------
         O           -0.115810589327     2.063173482373    -0.900305083920    15.994914619570
         O           -2.384578589327    -1.374723517627    -0.108694083920    15.994914619570
         N            2.491247410673    -1.272849517627     0.079213916080    14.003074004430
         C            1.303293410673    -0.480151517627    -0.266102083920    12.000000000000
         C            1.245843410673     0.743464482373     0.643232916080    12.000000000000
         C            0.058148410673    -1.338212517627    -0.063701083920    12.000000000000
         C           -0.036279589327     1.547525482373     0.438108916080    12.000000000000
         C           -1.227615589327    -0.550446517627    -0.288927083920    12.000000000000
         C           -1.272078589327     0.676616482373     0.616262916080    12.000000000000
         H            1.310452410673    -0.128399517627    -1.310967083920     1.007825032230
         H            1.311857410673     0.404505482373     1.685124916080     1.007825032230
         H            2.119383410673     1.389146482373     0.466269916080     1.007825032230
         H            0.070945410673    -2.207291517627    -0.733592083920     1.007825032230
         H            0.075794410673    -1.722546517627     0.967138916080     1.007825032230
         H           -0.068250589327     2.379514482373     1.159135916080     1.007825032230
         H           -1.284455589327    -0.224618517627    -1.331415083920     1.007825032230
         H           -1.324890589327     0.345742482373     1.663689916080     1.007825032230
         H           -2.172822589327     1.261029482373     0.404286916080     1.007825032230
         H            3.329791410673    -0.723225517627    -0.113834083920     1.007825032230
         H            2.542626410673    -2.082203517627    -0.540925083920     1.007825032230
         H            0.662343410673     2.631710482373    -1.037641083920     1.007825032230
         H           -2.353141689327    -1.693907417627     0.789677316080     1.007825032230

  Basis Set: AUG-CC-PVTZ
    Blend: AUG-CC-PVTZ
  Basis Set: (AUG-CC-PVTZ AUX)
    Blend: AUG-CC-PVTZ-JKFIT
	 Reference Energy          =    -439.1103890386197008 [Eh]
	 Singles Energy            =      -0.0000000000000000 [Eh]
	 Same-Spin Energy          =      -0.4512764938670015 [Eh]
	 Opposite-Spin Energy      =      -1.4726513303948450 [Eh]
	 Correlation Energy        =      -1.9239278242618465 [Eh]
	 Total Energy              =    -441.0343168628815533 [Eh]

	 ================> DF-SCS-MP2 Energies <==================
	-----------------------------------------------------------
	 SCS Same-Spin Scale       =       0.3333333333333333 [-]
	 SCS Opposite-Spin Scale   =       1.2000000000000000 [-]
	 SCS Same-Spin Energy      =      -0.1504254979556671 [Eh]
	 SCS Opposite-Spin Energy  =      -1.7671815964738140 [Eh]
	 SCS Correlation Energy    =      -1.9176070944294812 [Eh]
	 SCS Total Energy          =    -441.0279961330491574 [Eh]
	-----------------------------------------------------------

  Dipole Moment: [D]
     X:     2.5420      Y:     1.1338      Z:     0.7356     Total:     2.8789

*** Psi4 exiting successfully. Buy a developer a beer!
