                               Psi4 1.4a3.dev225

  ==> Input File <==

--------------------------------------------------------------------------
#psi4
#
memory 32 gb

molecule  {
0 1
  O       -0.1447520     2.0657680    -0.9147710
  O       -2.4135200    -1.3721290    -0.1231600
  N        2.4623060    -1.2702550     0.0647480
  C        1.2743520    -0.4775570    -0.2805680
  C        1.2169020     0.7460590     0.6287670
  C        0.0292070    -1.3356180    -0.0781670
  C       -0.0652210     1.5501200     0.4236430
  C       -1.2565570    -0.5478520    -0.3033930
  C       -1.3010200     0.6792110     0.6017970
  H        1.2815110    -0.1258050    -1.3254330
  H        1.2829160     0.4071000     1.6706590
  H        2.0904420     1.3917410     0.4518040
  H        0.0420040    -2.2046970    -0.7480580
  H        0.0468530    -1.7199520     0.9526730
  H       -0.0971920     2.3821090     1.1446700
  H       -1.3133970    -0.2220240    -1.3458810
  H       -1.3538320     0.3483370     1.6492240
  H       -2.2017640     1.2636240     0.3898210
  H        3.3008500    -0.7206310    -0.1283000
  H        2.5136850    -2.0796090    -0.5553910
  H        0.6334020     2.6343050    -1.0521070
  H       -2.3748328    -1.7649264     0.9824033
units angstrom
no_reorient  #important for SAPT in psi4, default
symmetry c1  #important for SAPT in psi4, default
}

set PROPERTIES_ORIGIN ["COM"]
properties('MP2/aug-cc-pvtz', properties = ['dipole'])
--------------------------------------------------------------------------

    Molecular point group: c1
  Charge       = 0
  Multiplicity = 1
  Basis Set: AUG-CC-PVTZ
    Blend: AUG-CC-PVTZ
  Basis Set: (AUG-CC-PVTZ AUX)
    Blend: AUG-CC-PVTZ-JKFIT

    Orbital Energies [Eh]
    ---------------------

    Doubly Occupied:

       1A    -20.567757     2A    -20.561542     3A    -15.545697
       4A    -11.285306     5A    -11.271322     6A    -11.255863
       7A    -11.225398     8A    -11.219044     9A    -11.216901
      10A     -1.361973    11A     -1.319936    12A     -1.191707
      13A     -1.084548    14A     -0.993007    15A     -0.984340
      16A     -0.835217    17A     -0.818290    18A     -0.765678
      19A     -0.690102    20A     -0.670313    21A     -0.653749
      22A     -0.640840    23A     -0.623960    24A     -0.591820
      25A     -0.588002    26A     -0.560958    27A     -0.546921
      28A     -0.526167    29A     -0.523782    30A     -0.498060
      31A     -0.489453    32A     -0.473819    33A     -0.452332
      34A     -0.440894    35A     -0.418636    36A     -0.394912

  @DF-RHF Final Energy:  -439.07406515186420

   => Energetics <=

    Nuclear Repulsion Energy =            505.8706239624303862
    One-Electron Energy =               -1603.3128859333860419
    Two-Electron Energy =                 658.3681968190915086
    Total Energy =                       -439.0740651518642608
  Basis Set: (AUG-CC-PVTZ AUX)
    Blend: AUG-CC-PVTZ-RI
    Molecular point group: c1

    Geometry (in Angstrom), charge = 0, multiplicity = 1:

       Center              X                  Y                   Z               Mass
    ------------   -----------------  -----------------  -----------------  -----------------
         O           -0.115866327948     2.063739405850    -0.901897927085    15.994914619570
         O           -2.384634327948    -1.374157594150    -0.110286927085    15.994914619570
         N            2.491191672052    -1.272283594150     0.077621072915    14.003074004430
         C            1.303237672052    -0.479585594150    -0.267694927085    12.000000000000
         C            1.245787672052     0.744030405850     0.641640072915    12.000000000000
         C            0.058092672052    -1.337646594150    -0.065293927085    12.000000000000
         C           -0.036335327948     1.548091405850     0.436516072915    12.000000000000
         C           -1.227671327948    -0.549880594150    -0.290519927085    12.000000000000
         C           -1.272134327948     0.677182405850     0.614670072915    12.000000000000
         H            1.310396672052    -0.127833594150    -1.312559927085     1.007825032230
         H            1.311801672052     0.405071405850     1.683532072915     1.007825032230
         H            2.119327672052     1.389712405850     0.464677072915     1.007825032230
         H            0.070889672052    -2.206725594150    -0.735184927085     1.007825032230
         H            0.075738672052    -1.721980594150     0.965546072915     1.007825032230
         H           -0.068306327948     2.380080405850     1.157543072915     1.007825032230
         H           -1.284511327948    -0.224052594150    -1.333007927085     1.007825032230
         H           -1.324946327948     0.346308405850     1.662097072915     1.007825032230
         H           -2.172878327948     1.261595405850     0.402694072915     1.007825032230
         H            3.329735672052    -0.722659594150    -0.115426927085     1.007825032230
         H            2.542570672052    -2.081637594150    -0.542517927085     1.007825032230
         H            0.662287672052     2.632276405850    -1.039233927085     1.007825032230
         H           -2.345947127948    -1.766954994150     0.995276372915     1.007825032230

  Basis Set: AUG-CC-PVTZ
    Blend: AUG-CC-PVTZ
  Basis Set: (AUG-CC-PVTZ AUX)
    Blend: AUG-CC-PVTZ-JKFIT
	 Reference Energy          =    -439.0740651518642039 [Eh]
	 Singles Energy            =      -0.0000000000000000 [Eh]
	 Same-Spin Energy          =      -0.4537156165777287 [Eh]
	 Opposite-Spin Energy      =      -1.4800743565059291 [Eh]
	 Correlation Energy        =      -1.9337899730836579 [Eh]
	 Total Energy              =    -441.0078551249478664 [Eh]

	 ================> DF-SCS-MP2 Energies <==================
	-----------------------------------------------------------
	 SCS Same-Spin Scale       =       0.3333333333333333 [-]
	 SCS Opposite-Spin Scale   =       1.2000000000000000 [-]
	 SCS Same-Spin Energy      =      -0.1512385388592429 [Eh]
	 SCS Opposite-Spin Energy  =      -1.7760892278071150 [Eh]
	 SCS Correlation Energy    =      -1.9273277666663580 [Eh]
	 SCS Total Energy          =    -441.0013929185305415 [Eh]
	-----------------------------------------------------------

  Dipole Moment: [D]
     X:     2.5114      Y:     1.0814      Z:     0.8216     Total:     2.8551

*** Psi4 exiting successfully. Buy a developer a beer!
