                               Psi4 1.4a3.dev225

  ==> Input File <==

--------------------------------------------------------------------------
#psi4
#
memory 32 gb

molecule  {
0 1
  O       -0.1447520     2.0657680    -0.9147710
  O       -2.4135200    -1.3721290    -0.1231600
  N        2.4623060    -1.2702550     0.0647480
  C        1.2743520    -0.4775570    -0.2805680
  C        1.2169020     0.7460590     0.6287670
  C        0.0224066    -1.3389757    -0.0526612
  C       -0.0652210     1.5501200     0.4236430
  C       -1.2565570    -0.5478520    -0.3033930
  C       -1.3010200     0.6792110     0.6017970
  H        1.2815110    -0.1258050    -1.3254330
  H        1.2829160     0.4071000     1.6706590
  H        2.0904420     1.3917410     0.4518040
  H        0.0420040    -2.2046970    -0.7480580
  H        0.0468530    -1.7199520     0.9526730
  H       -0.0971920     2.3821090     1.1446700
  H       -1.3133970    -0.2220240    -1.3458810
  H       -1.3538320     0.3483370     1.6492240
  H       -2.2017640     1.2636240     0.3898210
  H        3.3008500    -0.7206310    -0.1283000
  H        2.5136850    -2.0796090    -0.5553910
  H        0.6334020     2.6343050    -1.0521070
  H       -2.3814240    -1.6980050     0.7940470
units angstrom
no_reorient  #important for SAPT in psi4, default
symmetry c1  #important for SAPT in psi4, default
}

set PROPERTIES_ORIGIN ["COM"]
properties('MP2/aug-cc-pvtz', properties = ['dipole'])
--------------------------------------------------------------------------

    Molecular point group: c1
  Charge       = 0
  Multiplicity = 1
  Basis Set: AUG-CC-PVTZ
    Blend: AUG-CC-PVTZ
  Basis Set: (AUG-CC-PVTZ AUX)
    Blend: AUG-CC-PVTZ-JKFIT

    Orbital Energies [Eh]
    ---------------------

    Doubly Occupied:

       1A    -20.561865     2A    -20.551181     3A    -15.545908
       4A    -11.285829     5A    -11.271921     6A    -11.256851
       7A    -11.225517     8A    -11.219595     9A    -11.217043
      10A     -1.362625    11A     -1.349976    12A     -1.191743
      13A     -1.087235    14A     -0.995579    15A     -0.985348
      16A     -0.840431    17A     -0.822379    18A     -0.770830
      19A     -0.695775    20A     -0.678394    21A     -0.654525
      22A     -0.639753    23A     -0.625729    24A     -0.612354
      25A     -0.592642    26A     -0.562536    27A     -0.547353
      28A     -0.531003    29A     -0.529084    30A     -0.499162
      31A     -0.491791    32A     -0.476143    33A     -0.453262
      34A     -0.443190    35A     -0.419354    36A     -0.395508

  @DF-RHF Final Energy:  -439.10885888865232

   => Energetics <=

    Nuclear Repulsion Energy =            506.8333041148566736
    One-Electron Energy =               -1605.1054990497834751
    Two-Electron Energy =                 659.1633360462744804
    Total Energy =                       -439.1088588886523212
  Basis Set: (AUG-CC-PVTZ AUX)
    Blend: AUG-CC-PVTZ-RI
    Molecular point group: c1

    Geometry (in Angstrom), charge = 0, multiplicity = 1:

       Center              X                  Y                   Z               Mass
    ------------   -----------------  -----------------  -----------------  -----------------
         O           -0.115193168588     2.063532283236    -0.902784610293    15.994914619570
         O           -2.383961168588    -1.374364716764    -0.111173610293    15.994914619570
         N            2.491864831412    -1.272490716764     0.076734389707    14.003074004430
         C            1.303910831412    -0.479792716764    -0.268581610293    12.000000000000
         C            1.246460831412     0.743823283236     0.640753389707    12.000000000000
         C            0.051965431412    -1.341211416764    -0.040674810293    12.000000000000
         C           -0.035662168588     1.547884283236     0.435629389707    12.000000000000
         C           -1.226998168588    -0.550087716764    -0.291406610293    12.000000000000
         C           -1.271461168588     0.676975283236     0.613783389707    12.000000000000
         H            1.311069831412    -0.128040716764    -1.313446610293     1.007825032230
         H            1.312474831412     0.404864283236     1.682645389707     1.007825032230
         H            2.120000831412     1.389505283236     0.463790389707     1.007825032230
         H            0.071562831412    -2.206932716764    -0.736071610293     1.007825032230
         H            0.076411831412    -1.722187716764     0.964659389707     1.007825032230
         H           -0.067633168588     2.379873283236     1.156656389707     1.007825032230
         H           -1.283838168588    -0.224259716764    -1.333894610293     1.007825032230
         H           -1.324273168588     0.346101283236     1.661210389707     1.007825032230
         H           -2.172205168588     1.261388283236     0.401807389707     1.007825032230
         H            3.330408831412    -0.722866716764    -0.116313610293     1.007825032230
         H            2.543243831412    -2.081844716764    -0.543404610293     1.007825032230
         H            0.662960831412     2.632069283236    -1.040120610293     1.007825032230
         H           -2.351865168588    -1.700240716764     0.806033389707     1.007825032230

  Basis Set: AUG-CC-PVTZ
    Blend: AUG-CC-PVTZ
  Basis Set: (AUG-CC-PVTZ AUX)
    Blend: AUG-CC-PVTZ-JKFIT
	 Reference Energy          =    -439.1088588886523212 [Eh]
	 Singles Energy            =      -0.0000000000000000 [Eh]
	 Same-Spin Energy          =      -0.4514604298548344 [Eh]
	 Opposite-Spin Energy      =      -1.4732457243862129 [Eh]
	 Correlation Energy        =      -1.9247061542410473 [Eh]
	 Total Energy              =    -441.0335650428933718 [Eh]

	 ================> DF-SCS-MP2 Energies <==================
	-----------------------------------------------------------
	 SCS Same-Spin Scale       =       0.3333333333333333 [-]
	 SCS Opposite-Spin Scale   =       1.2000000000000000 [-]
	 SCS Same-Spin Energy      =      -0.1504868099516115 [Eh]
	 SCS Opposite-Spin Energy  =      -1.7678948692634555 [Eh]
	 SCS Correlation Energy    =      -1.9183816792150670 [Eh]
	 SCS Total Energy          =    -441.0272405678674090 [Eh]
	-----------------------------------------------------------

  Dipole Moment: [D]
     X:     2.5382      Y:     1.1260      Z:     0.7596     Total:     2.8788

*** Psi4 exiting successfully. Buy a developer a beer!
