                               Psi4 1.4a3.dev225

  ==> Input File <==

--------------------------------------------------------------------------
#psi4
#
memory 32 gb

molecule  {
0 1
  O       -0.1447520     2.0657680    -0.9147710
  O       -2.4135200    -1.3721290    -0.1231600
  N        2.4623060    -1.2702550     0.0647480
  C        1.2743520    -0.4775570    -0.2805680
  C        1.2169020     0.7460590     0.6287670
  C        0.0292070    -1.3356180    -0.0781670
  C       -0.0365170     1.5628356     0.3217717
  C       -1.2565570    -0.5478520    -0.3033930
  C       -1.3010200     0.6792110     0.6017970
  H        1.2815110    -0.1258050    -1.3254330
  H        1.2829160     0.4071000     1.6706590
  H        2.0904420     1.3917410     0.4518040
  H        0.0420040    -2.2046970    -0.7480580
  H        0.0468530    -1.7199520     0.9526730
  H       -0.0971920     2.3821090     1.1446700
  H       -1.3133970    -0.2220240    -1.3458810
  H       -1.3538320     0.3483370     1.6492240
  H       -2.2017640     1.2636240     0.3898210
  H        3.3008500    -0.7206310    -0.1283000
  H        2.5136850    -2.0796090    -0.5553910
  H        0.6334020     2.6343050    -1.0521070
  H       -2.3814240    -1.6980050     0.7940470
units angstrom
no_reorient  #important for SAPT in psi4, default
symmetry c1  #important for SAPT in psi4, default
}

set PROPERTIES_ORIGIN ["COM"]
properties('MP2/aug-cc-pvtz', properties = ['dipole'])
--------------------------------------------------------------------------

    Molecular point group: c1
  Charge       = 0
  Multiplicity = 1
  Basis Set: AUG-CC-PVTZ
    Blend: AUG-CC-PVTZ
  Basis Set: (AUG-CC-PVTZ AUX)
    Blend: AUG-CC-PVTZ-JKFIT

    Orbital Energies [Eh]
    ---------------------

    Doubly Occupied:

       1A    -20.574811     2A    -20.549710     3A    -15.545404
       4A    -11.288358     5A    -11.269844     6A    -11.255464
       7A    -11.223902     8A    -11.218310     9A    -11.216850
      10A     -1.406993    11A     -1.348827    12A     -1.191785
      13A     -1.082560    14A     -0.993142    15A     -0.980701
      16A     -0.838154    17A     -0.820479    18A     -0.779150
      19A     -0.703487    20A     -0.684267    21A     -0.654417
      22A     -0.640185    23A     -0.634961    24A     -0.614260
      25A     -0.596125    26A     -0.567282    27A     -0.551733
      28A     -0.537099    29A     -0.529360    30A     -0.496741
      31A     -0.490872    32A     -0.475538    33A     -0.442885
      34A     -0.438155    35A     -0.410488    36A     -0.391832

  @DF-RHF Final Energy:  -439.09906911874293

   => Energetics <=

    Nuclear Repulsion Energy =            507.7993944404347531
    One-Electron Energy =               -1606.9086642241109075
    Two-Electron Energy =                 660.0102006649332225
    Total Energy =                       -439.0990691187429320
  Basis Set: (AUG-CC-PVTZ AUX)
    Blend: AUG-CC-PVTZ-RI
    Molecular point group: c1

    Geometry (in Angstrom), charge = 0, multiplicity = 1:

       Center              X                  Y                   Z               Mass
    ------------   -----------------  -----------------  -----------------  -----------------
         O           -0.118443132407     2.062060982680    -0.891124901459    15.994914619570
         O           -2.387211132407    -1.375836017320    -0.099513901459    15.994914619570
         N            2.488614867593    -1.273962017320     0.088394098541    14.003074004430
         C            1.300660867593    -0.481264017320    -0.256921901459    12.000000000000
         C            1.243210867593     0.742351982680     0.652413098541    12.000000000000
         C            0.055515867593    -1.339325017320    -0.054520901459    12.000000000000
         C           -0.010208132407     1.559128582680     0.345417798541    12.000000000000
         C           -1.230248132407    -0.551559017320    -0.279746901459    12.000000000000
         C           -1.274711132407     0.675503982680     0.625443098541    12.000000000000
         H            1.307819867593    -0.129512017320    -1.301786901459     1.007825032230
         H            1.309224867593     0.403392982680     1.694305098541     1.007825032230
         H            2.116750867593     1.388033982680     0.475450098541     1.007825032230
         H            0.068312867593    -2.208404017320    -0.724411901459     1.007825032230
         H            0.073161867593    -1.723659017320     0.976319098541     1.007825032230
         H           -0.070883132407     2.378401982680     1.168316098541     1.007825032230
         H           -1.287088132407    -0.225731017320    -1.322234901459     1.007825032230
         H           -1.327523132407     0.344629982680     1.672870098541     1.007825032230
         H           -2.175455132407     1.259916982680     0.413467098541     1.007825032230
         H            3.327158867593    -0.724338017320    -0.104653901459     1.007825032230
         H            2.539993867593    -2.083316017320    -0.531744901459     1.007825032230
         H            0.659710867593     2.630597982680    -1.028460901459     1.007825032230
         H           -2.355115132407    -1.701712017320     0.817693098541     1.007825032230

  Basis Set: AUG-CC-PVTZ
    Blend: AUG-CC-PVTZ
  Basis Set: (AUG-CC-PVTZ AUX)
    Blend: AUG-CC-PVTZ-JKFIT
	 Reference Energy          =    -439.0990691187429320 [Eh]
	 Singles Energy            =      -0.0000000000000000 [Eh]
	 Same-Spin Energy          =      -0.4517432672624426 [Eh]
	 Opposite-Spin Energy      =      -1.4726277450615917 [Eh]
	 Correlation Energy        =      -1.9243710123240343 [Eh]
	 Total Energy              =    -441.0234401310669909 [Eh]

	 ================> DF-SCS-MP2 Energies <==================
	-----------------------------------------------------------
	 SCS Same-Spin Scale       =       0.3333333333333333 [-]
	 SCS Opposite-Spin Scale   =       1.2000000000000000 [-]
	 SCS Same-Spin Energy      =      -0.1505810890874809 [Eh]
	 SCS Opposite-Spin Energy  =      -1.7671532940739099 [Eh]
	 SCS Correlation Energy    =      -1.9177343831613907 [Eh]
	 SCS Total Energy          =    -441.0168035019043486 [Eh]
	-----------------------------------------------------------

  Dipole Moment: [D]
     X:     2.5802      Y:     1.2579      Z:     0.4010     Total:     2.8984

*** Psi4 exiting successfully. Buy a developer a beer!
