                               Psi4 1.4a3.dev225

  ==> Input File <==

--------------------------------------------------------------------------
#psi4
#
memory 32 gb

molecule  {
0 1
  O       -0.1447520     2.0657680    -0.9147710
  O       -2.4135200    -1.3721290    -0.1231600
  N        2.4623060    -1.2702550     0.0647480
  C        1.2743520    -0.4775570    -0.2805680
  C        1.2169020     0.7460590     0.6287670
  C        0.0292070    -1.3356180    -0.0781670
  C       -0.0652210     1.5501200     0.4236430
  C       -1.2565570    -0.5478520    -0.3033930
  C       -1.3010200     0.6792110     0.6017970
  H        1.2815110    -0.1258050    -1.3254330
  H        1.2829160     0.4071000     1.6706590
  H        2.0904420     1.3917410     0.4518040
  H        0.0420040    -2.2046970    -0.7480580
  H        0.0468530    -1.7199520     0.9526730
  H       -0.1000947     2.4576474     1.2101339
  H       -1.3133970    -0.2220240    -1.3458810
  H       -1.3538320     0.3483370     1.6492240
  H       -2.2017640     1.2636240     0.3898210
  H        3.3008500    -0.7206310    -0.1283000
  H        2.5136850    -2.0796090    -0.5553910
  H        0.6334020     2.6343050    -1.0521070
  H       -2.3814240    -1.6980050     0.7940470
units angstrom
no_reorient  #important for SAPT in psi4, default
symmetry c1  #important for SAPT in psi4, default
}

set PROPERTIES_ORIGIN ["COM"]
properties('MP2/aug-cc-pvtz', properties = ['dipole'])
--------------------------------------------------------------------------

    Molecular point group: c1
  Charge       = 0
  Multiplicity = 1
  Basis Set: AUG-CC-PVTZ
    Blend: AUG-CC-PVTZ
  Basis Set: (AUG-CC-PVTZ AUX)
    Blend: AUG-CC-PVTZ-JKFIT

    Orbital Energies [Eh]
    ---------------------

    Doubly Occupied:

       1A    -20.564056     2A    -20.552394     3A    -15.546741
       4A    -11.298158     5A    -11.272787     6A    -11.257350
       7A    -11.227028     8A    -11.220927     9A    -11.218313
      10A     -1.363950    11A     -1.350836    12A     -1.193055
      13A     -1.087389    14A     -0.994851    15A     -0.986388
      16A     -0.837179    17A     -0.821374    18A     -0.769805
      19A     -0.690191    20A     -0.678987    21A     -0.653484
      22A     -0.640543    23A     -0.626687    24A     -0.609258
      25A     -0.592847    26A     -0.563143    27A     -0.549047
      28A     -0.530960    29A     -0.526766    30A     -0.498630
      31A     -0.491172    32A     -0.476437    33A     -0.454631
      34A     -0.442878    35A     -0.417994    36A     -0.395286

  @DF-RHF Final Energy:  -439.10266136858723

   => Energetics <=

    Nuclear Repulsion Energy =            506.3405952559228353
    One-Electron Energy =               -1604.0834752618150105
    Two-Electron Energy =                 658.6402186373048835
    Total Energy =                       -439.1026613685872917
  Basis Set: (AUG-CC-PVTZ AUX)
    Blend: AUG-CC-PVTZ-RI
    Molecular point group: c1

    Geometry (in Angstrom), charge = 0, multiplicity = 1:

       Center              X                  Y                   Z               Mass
    ------------   -----------------  -----------------  -----------------  -----------------
         O           -0.115793341052     2.062644208022    -0.900953158881    15.994914619570
         O           -2.384561341052    -1.375252791978    -0.109342158881    15.994914619570
         N            2.491264658948    -1.273378791978     0.078565841119    14.003074004430
         C            1.303310658948    -0.480680791978    -0.266750158881    12.000000000000
         C            1.245860658948     0.742935208022     0.642584841119    12.000000000000
         C            0.058165658948    -1.338741791978    -0.064349158881    12.000000000000
         C           -0.036262341052     1.546996208022     0.437460841119    12.000000000000
         C           -1.227598341052    -0.550975791978    -0.289575158881    12.000000000000
         C           -1.272061341052     0.676087208022     0.615614841119    12.000000000000
         H            1.310469658948    -0.128928791978    -1.311615158881     1.007825032230
         H            1.311874658948     0.403976208022     1.684476841119     1.007825032230
         H            2.119400658948     1.388617208022     0.465621841119     1.007825032230
         H            0.070962658948    -2.207820791978    -0.734240158881     1.007825032230
         H            0.075811658948    -1.723075791978     0.966490841119     1.007825032230
         H           -0.071136041052     2.454523608022     1.223951741119     1.007825032230
         H           -1.284438341052    -0.225147791978    -1.332063158881     1.007825032230
         H           -1.324873341052     0.345213208022     1.663041841119     1.007825032230
         H           -2.172805341052     1.260500208022     0.403638841119     1.007825032230
         H            3.329808658948    -0.723754791978    -0.114482158881     1.007825032230
         H            2.542643658948    -2.082732791978    -0.541573158881     1.007825032230
         H            0.662360658948     2.631181208022    -1.038289158881     1.007825032230
         H           -2.352465341052    -1.701128791978     0.807864841119     1.007825032230

  Basis Set: AUG-CC-PVTZ
    Blend: AUG-CC-PVTZ
  Basis Set: (AUG-CC-PVTZ AUX)
    Blend: AUG-CC-PVTZ-JKFIT
	 Reference Energy          =    -439.1026613685872348 [Eh]
	 Singles Energy            =      -0.0000000000000000 [Eh]
	 Same-Spin Energy          =      -0.4516847816365726 [Eh]
	 Opposite-Spin Energy      =      -1.4742294889429661 [Eh]
	 Correlation Energy        =      -1.9259142705795387 [Eh]
	 Total Energy              =    -441.0285756391667746 [Eh]

	 ================> DF-SCS-MP2 Energies <==================
	-----------------------------------------------------------
	 SCS Same-Spin Scale       =       0.3333333333333333 [-]
	 SCS Opposite-Spin Scale   =       1.2000000000000000 [-]
	 SCS Same-Spin Energy      =      -0.1505615938788575 [Eh]
	 SCS Opposite-Spin Energy  =      -1.7690753867315594 [Eh]
	 SCS Correlation Energy    =      -1.9196369806104170 [Eh]
	 SCS Total Energy          =    -441.0222983491976265 [Eh]
	-----------------------------------------------------------

  Dipole Moment: [D]
     X:     2.5413      Y:     1.0438      Z:     0.6616     Total:     2.8259

*** Psi4 exiting successfully. Buy a developer a beer!
