                               Psi4 1.4a3.dev225

  ==> Input File <==

--------------------------------------------------------------------------
#psi4
#
memory 32 gb

molecule  {
0 1
  O       -0.1447520     2.0657680    -0.9147710
  O       -2.4135200    -1.3721290    -0.1231600
  N        2.4623060    -1.2702550     0.0647480
  C        1.2743520    -0.4775570    -0.2805680
  C        1.2169020     0.7460590     0.6287670
  C        0.0292070    -1.3356180    -0.0781670
  C       -0.0652210     1.5501200     0.4236430
  C       -1.2161588    -0.5190704    -0.3096863
  C       -1.3010200     0.6792110     0.6017970
  H        1.2815110    -0.1258050    -1.3254330
  H        1.2829160     0.4071000     1.6706590
  H        2.0904420     1.3917410     0.4518040
  H        0.0420040    -2.2046970    -0.7480580
  H        0.0468530    -1.7199520     0.9526730
  H       -0.0971920     2.3821090     1.1446700
  H       -1.3133970    -0.2220240    -1.3458810
  H       -1.3538320     0.3483370     1.6492240
  H       -2.2017640     1.2636240     0.3898210
  H        3.3008500    -0.7206310    -0.1283000
  H        2.5136850    -2.0796090    -0.5553910
  H        0.6334020     2.6343050    -1.0521070
  H       -2.3814240    -1.6980050     0.7940470
units angstrom
no_reorient  #important for SAPT in psi4, default
symmetry c1  #important for SAPT in psi4, default
}

set PROPERTIES_ORIGIN ["COM"]
properties('MP2/aug-cc-pvtz', properties = ['dipole'])
--------------------------------------------------------------------------

    Molecular point group: c1
  Charge       = 0
  Multiplicity = 1
  Basis Set: AUG-CC-PVTZ
    Blend: AUG-CC-PVTZ
  Basis Set: (AUG-CC-PVTZ AUX)
    Blend: AUG-CC-PVTZ-JKFIT

    Orbital Energies [Eh]
    ---------------------

    Doubly Occupied:

       1A    -20.562993     2A    -20.545045     3A    -15.546680
       4A    -11.286586     5A    -11.272122     6A    -11.257173
       7A    -11.226902     8A    -11.221208     9A    -11.218882
      10A     -1.363671    11A     -1.331114    12A     -1.193471
      13A     -1.092086    14A     -0.999422    15A     -0.988833
      16A     -0.840565    17A     -0.823364    18A     -0.770230
      19A     -0.695034    20A     -0.678074    21A     -0.655191
      22A     -0.643223    23A     -0.623448    24A     -0.607459
      25A     -0.588007    26A     -0.563759    27A     -0.545494
      28A     -0.528981    29A     -0.525882    30A     -0.504258
      31A     -0.490006    32A     -0.480197    33A     -0.452687
      34A     -0.444271    35A     -0.425241    36A     -0.396415

  @DF-RHF Final Energy:  -439.10614781998419

   => Energetics <=

    Nuclear Repulsion Energy =            507.1807997623526489
    One-Electron Energy =               -1605.7979484729739852
    Two-Electron Energy =                 659.5110008906370922
    Total Energy =                       -439.1061478199841304
  Basis Set: (AUG-CC-PVTZ AUX)
    Blend: AUG-CC-PVTZ-RI
    Molecular point group: c1

    Geometry (in Angstrom), charge = 0, multiplicity = 1:

       Center              X                  Y                   Z               Mass
    ------------   -----------------  -----------------  -----------------  -----------------
         O           -0.119513583587     2.060590350344    -0.899873818266    15.994914619570
         O           -2.388281583587    -1.377306649656    -0.108262818266    15.994914619570
         N            2.487544416413    -1.275432649656     0.079645181734    14.003074004430
         C            1.299590416413    -0.482734649656    -0.265670818266    12.000000000000
         C            1.242140416413     0.740881350344     0.643664181734    12.000000000000
         C            0.054445416413    -1.340795649656    -0.063269818266    12.000000000000
         C           -0.039982583587     1.544942350344     0.438540181734    12.000000000000
         C           -1.190920383587    -0.524248049656    -0.294789118266    12.000000000000
         C           -1.275781583587     0.674033350344     0.616694181734    12.000000000000
         H            1.306749416413    -0.130982649656    -1.310535818266     1.007825032230
         H            1.308154416413     0.401922350344     1.685556181734     1.007825032230
         H            2.115680416413     1.386563350344     0.466701181734     1.007825032230
         H            0.067242416413    -2.209874649656    -0.733160818266     1.007825032230
         H            0.072091416413    -1.725129649656     0.967570181734     1.007825032230
         H           -0.071953583587     2.376931350344     1.159567181734     1.007825032230
         H           -1.288158583587    -0.227201649656    -1.330983818266     1.007825032230
         H           -1.328593583587     0.343159350344     1.664121181734     1.007825032230
         H           -2.176525583587     1.258446350344     0.404718181734     1.007825032230
         H            3.326088416413    -0.725808649656    -0.113402818266     1.007825032230
         H            2.538923416413    -2.084786649656    -0.540493818266     1.007825032230
         H            0.658640416413     2.629127350344    -1.037209818266     1.007825032230
         H           -2.356185583587    -1.703182649656     0.808944181734     1.007825032230

  Basis Set: AUG-CC-PVTZ
    Blend: AUG-CC-PVTZ
  Basis Set: (AUG-CC-PVTZ AUX)
    Blend: AUG-CC-PVTZ-JKFIT
	 Reference Energy          =    -439.1061478199841872 [Eh]
	 Singles Energy            =      -0.0000000000000000 [Eh]
	 Same-Spin Energy          =      -0.4518817564230870 [Eh]
	 Opposite-Spin Energy      =      -1.4742868303600947 [Eh]
	 Correlation Energy        =      -1.9261685867831817 [Eh]
	 Total Energy              =    -441.0323164067673929 [Eh]

	 ================> DF-SCS-MP2 Energies <==================
	-----------------------------------------------------------
	 SCS Same-Spin Scale       =       0.3333333333333333 [-]
	 SCS Opposite-Spin Scale   =       1.2000000000000000 [-]
	 SCS Same-Spin Energy      =      -0.1506272521410290 [Eh]
	 SCS Opposite-Spin Energy  =      -1.7691441964321135 [Eh]
	 SCS Correlation Energy    =      -1.9197714485731425 [Eh]
	 SCS Total Energy          =    -441.0259192685573453 [Eh]
	-----------------------------------------------------------

  Dipole Moment: [D]
     X:     2.7021      Y:     1.2375      Z:     0.7410     Total:     3.0630

*** Psi4 exiting successfully. Buy a developer a beer!
