                               Psi4 1.4a3.dev225

  ==> Input File <==

--------------------------------------------------------------------------
#psi4
#
memory 32 gb

molecule  {
0 1
  O       -0.1447520     2.0657680    -0.9147710
  O       -2.4135200    -1.3721290    -0.1231600
  N        2.4623060    -1.2702550     0.0647480
  C        1.2743520    -0.4775570    -0.2805680
  C        1.2169020     0.7460590     0.6287670
  C        0.0292070    -1.3356180    -0.0781670
  C       -0.0652210     1.5501200     0.4236430
  C       -1.2867616    -0.5320607    -0.3973507
  C       -1.3010200     0.6792110     0.6017970
  H        1.2815110    -0.1258050    -1.3254330
  H        1.2829160     0.4071000     1.6706590
  H        2.0904420     1.3917410     0.4518040
  H        0.0420040    -2.2046970    -0.7480580
  H        0.0468530    -1.7199520     0.9526730
  H       -0.0971920     2.3821090     1.1446700
  H       -1.3133970    -0.2220240    -1.3458810
  H       -1.3538320     0.3483370     1.6492240
  H       -2.2017640     1.2636240     0.3898210
  H        3.3008500    -0.7206310    -0.1283000
  H        2.5136850    -2.0796090    -0.5553910
  H        0.6334020     2.6343050    -1.0521070
  H       -2.3814240    -1.6980050     0.7940470
units angstrom
no_reorient  #important for SAPT in psi4, default
symmetry c1  #important for SAPT in psi4, default
}

set PROPERTIES_ORIGIN ["COM"]
properties('MP2/aug-cc-pvtz', properties = ['dipole'])
--------------------------------------------------------------------------

    Molecular point group: c1
  Charge       = 0
  Multiplicity = 1
  Basis Set: AUG-CC-PVTZ
    Blend: AUG-CC-PVTZ
  Basis Set: (AUG-CC-PVTZ AUX)
    Blend: AUG-CC-PVTZ-JKFIT

    Orbital Energies [Eh]
    ---------------------

    Doubly Occupied:

       1A    -20.562011     2A    -20.548990     3A    -15.545074
       4A    -11.284460     5A    -11.271540     6A    -11.254905
       7A    -11.224718     8A    -11.220462     9A    -11.218498
      10A     -1.362446    11A     -1.346764    12A     -1.190811
      13A     -1.081288    14A     -0.991632    15A     -0.981891
      16A     -0.848856    17A     -0.821160    18A     -0.771826
      19A     -0.695153    20A     -0.675905    21A     -0.652732
      22A     -0.638414    23A     -0.629425    24A     -0.618448
      25A     -0.591715    26A     -0.563934    27A     -0.544063
      28A     -0.526247    29A     -0.525262    30A     -0.504905
      31A     -0.491310    32A     -0.483581    33A     -0.451822
      34A     -0.442517    35A     -0.407861    36A     -0.392585

  @DF-RHF Final Energy:  -439.09825275995473

   => Energetics <=

    Nuclear Repulsion Energy =            505.9176724794688766
    One-Electron Energy =               -1603.3054334227256277
    Two-Electron Energy =                 658.2895081833021322
    Total Energy =                       -439.0982527599546756
  Basis Set: (AUG-CC-PVTZ AUX)
    Blend: AUG-CC-PVTZ-RI
    Molecular point group: c1

    Geometry (in Angstrom), charge = 0, multiplicity = 1:

       Center              X                  Y                   Z               Mass
    ------------   -----------------  -----------------  -----------------  -----------------
         O           -0.113050819944     2.061779442541    -0.891849288117    15.994914619570
         O           -2.381818819944    -1.376117557459    -0.100238288117    15.994914619570
         N            2.494007180056    -1.274243557459     0.087669711883    14.003074004430
         C            1.306053180056    -0.481545557459    -0.257646288117    12.000000000000
         C            1.248603180056     0.742070442541     0.651688711883    12.000000000000
         C            0.060908180056    -1.339606557459    -0.055245288117    12.000000000000
         C           -0.033519819944     1.546131442541     0.446564711883    12.000000000000
         C           -1.255060419944    -0.536049257459    -0.374428988117    12.000000000000
         C           -1.269318819944     0.675222442541     0.624718711883    12.000000000000
         H            1.313212180056    -0.129793557459    -1.302511288117     1.007825032230
         H            1.314617180056     0.403111442541     1.693580711883     1.007825032230
         H            2.122143180056     1.387752442541     0.474725711883     1.007825032230
         H            0.073705180056    -2.208685557459    -0.725136288117     1.007825032230
         H            0.078554180056    -1.723940557459     0.975594711883     1.007825032230
         H           -0.065490819944     2.378120442541     1.167591711883     1.007825032230
         H           -1.281695819944    -0.226012557459    -1.322959288117     1.007825032230
         H           -1.322130819944     0.344348442541     1.672145711883     1.007825032230
         H           -2.170062819944     1.259635442541     0.412742711883     1.007825032230
         H            3.332551180056    -0.724619557459    -0.105378288117     1.007825032230
         H            2.545386180056    -2.083597557459    -0.532469288117     1.007825032230
         H            0.665103180056     2.630316442541    -1.029185288117     1.007825032230
         H           -2.349722819944    -1.701993557459     0.816968711883     1.007825032230

  Basis Set: AUG-CC-PVTZ
    Blend: AUG-CC-PVTZ
  Basis Set: (AUG-CC-PVTZ AUX)
    Blend: AUG-CC-PVTZ-JKFIT
	 Reference Energy          =    -439.0982527599547325 [Eh]
	 Singles Energy            =      -0.0000000000000000 [Eh]
	 Same-Spin Energy          =      -0.4508745280142146 [Eh]
	 Opposite-Spin Energy      =      -1.4727755672949820 [Eh]
	 Correlation Energy        =      -1.9236500953091966 [Eh]
	 Total Energy              =    -441.0219028552639315 [Eh]

	 ================> DF-SCS-MP2 Energies <==================
	-----------------------------------------------------------
	 SCS Same-Spin Scale       =       0.3333333333333333 [-]
	 SCS Opposite-Spin Scale   =       1.2000000000000000 [-]
	 SCS Same-Spin Energy      =      -0.1502915093380715 [Eh]
	 SCS Opposite-Spin Energy  =      -1.7673306807539784 [Eh]
	 SCS Correlation Energy    =      -1.9176221900920498 [Eh]
	 SCS Total Energy          =    -441.0158749500467934 [Eh]
	-----------------------------------------------------------

  Dipole Moment: [D]
     X:     2.4668      Y:     1.1246      Z:     0.6658     Total:     2.7916

*** Psi4 exiting successfully. Buy a developer a beer!
