                               Psi4 1.4a3.dev225

  ==> Input File <==

--------------------------------------------------------------------------
#psi4
#
memory 32 gb

molecule  {
0 1
  O       -0.1447520     2.0657680    -0.9147710
  O       -2.4135200    -1.3721290    -0.1231600
  N        2.4623060    -1.2702550     0.0647480
  C        1.2743520    -0.4775570    -0.2805680
  C        1.2169020     0.7460590     0.6287670
  C        0.0152167    -1.3420924    -0.0272319
  C       -0.0652210     1.5501200     0.4236430
  C       -1.2565570    -0.5478520    -0.3033930
  C       -1.3010200     0.6792110     0.6017970
  H        1.2815110    -0.1258050    -1.3254330
  H        1.2829160     0.4071000     1.6706590
  H        2.0904420     1.3917410     0.4518040
  H        0.0420040    -2.2046970    -0.7480580
  H        0.0468530    -1.7199520     0.9526730
  H       -0.0971920     2.3821090     1.1446700
  H       -1.3133970    -0.2220240    -1.3458810
  H       -1.3538320     0.3483370     1.6492240
  H       -2.2017640     1.2636240     0.3898210
  H        3.3008500    -0.7206310    -0.1283000
  H        2.5136850    -2.0796090    -0.5553910
  H        0.6334020     2.6343050    -1.0521070
  H       -2.3814240    -1.6980050     0.7940470
units angstrom
no_reorient  #important for SAPT in psi4, default
symmetry c1  #important for SAPT in psi4, default
}

set PROPERTIES_ORIGIN ["COM"]
properties('MP2/aug-cc-pvtz', properties = ['dipole'])
--------------------------------------------------------------------------

    Molecular point group: c1
  Charge       = 0
  Multiplicity = 1
  Basis Set: AUG-CC-PVTZ
    Blend: AUG-CC-PVTZ
  Basis Set: (AUG-CC-PVTZ AUX)
    Blend: AUG-CC-PVTZ-JKFIT

    Orbital Energies [Eh]
    ---------------------

    Doubly Occupied:

       1A    -20.561873     2A    -20.550733     3A    -15.545786
       4A    -11.285754     5A    -11.272029     6A    -11.257319
       7A    -11.225246     8A    -11.219358     9A    -11.216619
      10A     -1.362615    11A     -1.349877    12A     -1.191175
      13A     -1.087158    14A     -0.995230    15A     -0.984732
      16A     -0.840746    17A     -0.821586    18A     -0.772171
      19A     -0.695547    20A     -0.678903    21A     -0.654360
      22A     -0.637916    23A     -0.625651    24A     -0.613223
      25A     -0.593355    26A     -0.561749    27A     -0.546266
      28A     -0.533331    29A     -0.529686    30A     -0.498652
      31A     -0.493360    32A     -0.475897    33A     -0.452922
      34A     -0.441592    35A     -0.418311    36A     -0.395528

  @DF-RHF Final Energy:  -439.10656590010643

   => Energetics <=

    Nuclear Repulsion Energy =            506.7785414130008803
    One-Electron Energy =               -1604.9977009240451480
    Two-Electron Energy =                 659.1125936109380063
    Total Energy =                       -439.1065659001063750
  Basis Set: (AUG-CC-PVTZ AUX)
    Blend: AUG-CC-PVTZ-RI
    Molecular point group: c1

    Geometry (in Angstrom), charge = 0, multiplicity = 1:

       Center              X                  Y                   Z               Mass
    ------------   -----------------  -----------------  -----------------  -----------------
         O           -0.114535027207     2.063817576389    -0.905112330377    15.994914619570
         O           -2.383303027207    -1.374079423611    -0.113501330377    15.994914619570
         N            2.492522972793    -1.272205423611     0.074406669623    14.003074004430
         C            1.304568972793    -0.479507423611    -0.270909330377    12.000000000000
         C            1.247118972793     0.744108576389     0.638425669623    12.000000000000
         C            0.045433672793    -1.344042823611    -0.017573230377    12.000000000000
         C           -0.035004027207     1.548169576389     0.433301669623    12.000000000000
         C           -1.226340027207    -0.549802423611    -0.293734330377    12.000000000000
         C           -1.270803027207     0.677260576389     0.611455669623    12.000000000000
         H            1.311727972793    -0.127755423611    -1.315774330377     1.007825032230
         H            1.313132972793     0.405149576389     1.680317669623     1.007825032230
         H            2.120658972793     1.389790576389     0.461462669623     1.007825032230
         H            0.072220972793    -2.206647423611    -0.738399330377     1.007825032230
         H            0.077069972793    -1.721902423611     0.962331669623     1.007825032230
         H           -0.066975027207     2.380158576389     1.154328669623     1.007825032230
         H           -1.283180027207    -0.223974423611    -1.336222330377     1.007825032230
         H           -1.323615027207     0.346386576389     1.658882669623     1.007825032230
         H           -2.171547027207     1.261673576389     0.399479669623     1.007825032230
         H            3.331066972793    -0.722581423611    -0.118641330377     1.007825032230
         H            2.543901972793    -2.081559423611    -0.545732330377     1.007825032230
         H            0.663618972793     2.632354576389    -1.042448330377     1.007825032230
         H           -2.351207027207    -1.699955423611     0.803705669623     1.007825032230

  Basis Set: AUG-CC-PVTZ
    Blend: AUG-CC-PVTZ
  Basis Set: (AUG-CC-PVTZ AUX)
    Blend: AUG-CC-PVTZ-JKFIT
	 Reference Energy          =    -439.1065659001064319 [Eh]
	 Singles Energy            =      -0.0000000000000000 [Eh]
	 Same-Spin Energy          =      -0.4514376439079874 [Eh]
	 Opposite-Spin Energy      =      -1.4733093956287870 [Eh]
	 Correlation Energy        =      -1.9247470395367743 [Eh]
	 Total Energy              =    -441.0313129396432146 [Eh]

	 ================> DF-SCS-MP2 Energies <==================
	-----------------------------------------------------------
	 SCS Same-Spin Scale       =       0.3333333333333333 [-]
	 SCS Opposite-Spin Scale   =       1.2000000000000000 [-]
	 SCS Same-Spin Energy      =      -0.1504792146359958 [Eh]
	 SCS Opposite-Spin Energy  =      -1.7679712747545444 [Eh]
	 SCS Correlation Energy    =      -1.9184504893905401 [Eh]
	 SCS Total Energy          =    -441.0250163894969546 [Eh]
	-----------------------------------------------------------

  Dipole Moment: [D]
     X:     2.5394      Y:     1.1273      Z:     0.7722     Total:     2.8836

*** Psi4 exiting successfully. Buy a developer a beer!
