                               Psi4 1.4a3.dev225

  ==> Input File <==

--------------------------------------------------------------------------
#psi4
#
memory 32 gb

molecule  {
0 1
  O       -0.1447520     2.0657680    -0.9147710
  O       -2.4135200    -1.3721290    -0.1231600
  N        2.4623060    -1.2702550     0.0647480
  C        1.2743520    -0.4775570    -0.2805680
  C        1.2169020     0.7460590     0.6287670
  C        0.0292070    -1.3356180    -0.0781670
  C       -0.0652210     1.5501200     0.4236430
  C       -1.2565570    -0.5478520    -0.3033930
  C       -1.3010200     0.6792110     0.6017970
  H        1.2815110    -0.1258050    -1.3254330
  H        1.2829160     0.4071000     1.6706590
  H        2.0904420     1.3917410     0.4518040
  H        0.0420040    -2.2046970    -0.7480580
  H        0.0468530    -1.7199520     0.9526730
  H       -0.0971920     2.3821090     1.1446700
  H       -1.3133970    -0.2220240    -1.3458810
  H       -1.3538320     0.3483370     1.6492240
  H       -2.2017640     1.2636240     0.3898210
  H        3.3829770    -0.6668009    -0.1472071
  H        2.5136850    -2.0796090    -0.5553910
  H        0.6334020     2.6343050    -1.0521070
  H       -2.3814240    -1.6980050     0.7940470
units angstrom
no_reorient  #important for SAPT in psi4, default
symmetry c1  #important for SAPT in psi4, default
}

set PROPERTIES_ORIGIN ["COM"]
properties('MP2/aug-cc-pvtz', properties = ['dipole'])
--------------------------------------------------------------------------

    Molecular point group: c1
  Charge       = 0
  Multiplicity = 1
  Basis Set: AUG-CC-PVTZ
    Blend: AUG-CC-PVTZ
  Basis Set: (AUG-CC-PVTZ AUX)
    Blend: AUG-CC-PVTZ-JKFIT

    Orbital Energies [Eh]
    ---------------------

    Doubly Occupied:

       1A    -20.561851     2A    -20.551957     3A    -15.556932
       4A    -11.285864     5A    -11.272373     6A    -11.256837
       7A    -11.225611     8A    -11.219986     9A    -11.218328
      10A     -1.362644    11A     -1.350392    12A     -1.184308
      13A     -1.084481    14A     -0.996089    15A     -0.982928
      16A     -0.840340    17A     -0.821258    18A     -0.769362
      19A     -0.694684    20A     -0.677734    21A     -0.647083
      22A     -0.641819    23A     -0.621093    24A     -0.610130
      25A     -0.589851    26A     -0.561263    27A     -0.546427
      28A     -0.530317    29A     -0.526426    30A     -0.499883
      31A     -0.490252    32A     -0.475761    33A     -0.453600
      34A     -0.443484    35A     -0.420449    36A     -0.394516

  @DF-RHF Final Energy:  -439.09969341101032

   => Energetics <=

    Nuclear Repulsion Energy =            506.3817343871399999
    One-Electron Energy =               -1604.2302285559892425
    Two-Electron Energy =                 658.7488007578390352
    Total Energy =                       -439.0996934110103211
  Basis Set: (AUG-CC-PVTZ AUX)
    Blend: AUG-CC-PVTZ-RI
    Molecular point group: c1

    Geometry (in Angstrom), charge = 0, multiplicity = 1:

       Center              X                  Y                   Z               Mass
    ------------   -----------------  -----------------  -----------------  -----------------
         O           -0.116447029620     2.062811096386    -0.900304534245    15.994914619570
         O           -2.385215029620    -1.375085903614    -0.108693534245    15.994914619570
         N            2.490610970380    -1.273211903614     0.079214465755    14.003074004430
         C            1.302656970380    -0.480513903614    -0.266101534245    12.000000000000
         C            1.245206970380     0.743102096386     0.643233465755    12.000000000000
         C            0.057511970380    -1.338574903614    -0.063700534245    12.000000000000
         C           -0.036916029620     1.547163096386     0.438109465755    12.000000000000
         C           -1.228252029620    -0.550808903614    -0.288926534245    12.000000000000
         C           -1.272715029620     0.676254096386     0.616263465755    12.000000000000
         H            1.309815970380    -0.128761903614    -1.310966534245     1.007825032230
         H            1.311220970380     0.404143096386     1.685125465755     1.007825032230
         H            2.118746970380     1.388784096386     0.466270465755     1.007825032230
         H            0.070308970380    -2.207653903614    -0.733591534245     1.007825032230
         H            0.075157970380    -1.722908903614     0.967139465755     1.007825032230
         H           -0.068887029620     2.379152096386     1.159136465755     1.007825032230
         H           -1.285092029620    -0.224980903614    -1.331414534245     1.007825032230
         H           -1.325527029620     0.345380096386     1.663690465755     1.007825032230
         H           -2.173459029620     1.260667096386     0.404287465755     1.007825032230
         H            3.411281970380    -0.669757803614    -0.132740634245     1.007825032230
         H            2.541989970380    -2.082565903614    -0.540924534245     1.007825032230
         H            0.661706970380     2.631348096386    -1.037640534245     1.007825032230
         H           -2.353119029620    -1.700961903614     0.808513465755     1.007825032230

  Basis Set: AUG-CC-PVTZ
    Blend: AUG-CC-PVTZ
  Basis Set: (AUG-CC-PVTZ AUX)
    Blend: AUG-CC-PVTZ-JKFIT
	 Reference Energy          =    -439.0996934110103211 [Eh]
	 Singles Energy            =      -0.0000000000000000 [Eh]
	 Same-Spin Energy          =      -0.4520314104821499 [Eh]
	 Opposite-Spin Energy      =      -1.4751760105056599 [Eh]
	 Correlation Energy        =      -1.9272074209878098 [Eh]
	 Total Energy              =    -441.0269008319981481 [Eh]

	 ================> DF-SCS-MP2 Energies <==================
	-----------------------------------------------------------
	 SCS Same-Spin Scale       =       0.3333333333333333 [-]
	 SCS Opposite-Spin Scale   =       1.2000000000000000 [-]
	 SCS Same-Spin Energy      =      -0.1506771368273833 [Eh]
	 SCS Opposite-Spin Energy  =      -1.7702112126067919 [Eh]
	 SCS Correlation Energy    =      -1.9208883494341753 [Eh]
	 SCS Total Energy          =    -441.0205817604444860 [Eh]
	-----------------------------------------------------------

  Dipole Moment: [D]
     X:     2.5160      Y:     1.1370      Z:     0.7513     Total:     2.8614

*** Psi4 exiting successfully. Buy a developer a beer!
