                               Psi4 1.4a3.dev225

  ==> Input File <==

--------------------------------------------------------------------------
#psi4
#
memory 32 gb

molecule  {
0 1
  O       -0.1447520     2.0657680    -0.9147710
  O       -2.4135200    -1.3721290    -0.1231600
  N        2.4623060    -1.2702550     0.0647480
  C        1.2743520    -0.4775570    -0.2805680
  C        1.2169020     0.7460590     0.6287670
  C        0.0292070    -1.3356180    -0.0781670
  C       -0.0652210     1.5501200     0.4236430
  C       -1.3373533    -0.6054153    -0.2908065
  C       -1.3010200     0.6792110     0.6017970
  H        1.2815110    -0.1258050    -1.3254330
  H        1.2829160     0.4071000     1.6706590
  H        2.0904420     1.3917410     0.4518040
  H        0.0420040    -2.2046970    -0.7480580
  H        0.0468530    -1.7199520     0.9526730
  H       -0.0971920     2.3821090     1.1446700
  H       -1.3133970    -0.2220240    -1.3458810
  H       -1.3538320     0.3483370     1.6492240
  H       -2.2017640     1.2636240     0.3898210
  H        3.3008500    -0.7206310    -0.1283000
  H        2.5136850    -2.0796090    -0.5553910
  H        0.6334020     2.6343050    -1.0521070
  H       -2.3814240    -1.6980050     0.7940470
units angstrom
no_reorient  #important for SAPT in psi4, default
symmetry c1  #important for SAPT in psi4, default
}

set PROPERTIES_ORIGIN ["COM"]
properties('MP2/aug-cc-pvtz', properties = ['dipole'])
--------------------------------------------------------------------------

    Molecular point group: c1
  Charge       = 0
  Multiplicity = 1
  Basis Set: AUG-CC-PVTZ
    Blend: AUG-CC-PVTZ
  Basis Set: (AUG-CC-PVTZ AUX)
    Blend: AUG-CC-PVTZ-JKFIT

    Orbital Energies [Eh]
    ---------------------

    Doubly Occupied:

       1A    -20.564317     2A    -20.559758     3A    -15.544800
       4A    -11.284742     5A    -11.274321     6A    -11.255265
       7A    -11.223740     8A    -11.217120     9A    -11.215207
      10A     -1.396652    11A     -1.359647    12A     -1.190200
      13A     -1.078513    14A     -0.988797    15A     -0.980329
      16A     -0.842698    17A     -0.822804    18A     -0.771025
      19A     -0.700782    20A     -0.678272    21A     -0.655173
      22A     -0.641437    23A     -0.632992    24A     -0.619065
      25A     -0.601371    26A     -0.568299    27A     -0.552742
      28A     -0.535816    29A     -0.522831    30A     -0.493202
      31A     -0.490447    32A     -0.468871    33A     -0.453073
      34A     -0.435614    35A     -0.405945    36A     -0.392308

  @DF-RHF Final Energy:  -439.10108777726526

   => Energetics <=

    Nuclear Repulsion Energy =            506.4027169100093033
    One-Electron Energy =               -1604.1712581140780003
    Two-Electron Energy =                 658.6674534268033767
    Total Energy =                       -439.1010877772653203
  Basis Set: (AUG-CC-PVTZ AUX)
    Blend: AUG-CC-PVTZ-RI
    Molecular point group: c1

    Geometry (in Angstrom), charge = 0, multiplicity = 1:

       Center              X                  Y                   Z               Mass
    ------------   -----------------  -----------------  -----------------  -----------------
         O           -0.108419810983     2.068494097512    -0.901602017219    15.994914619570
         O           -2.377187810983    -1.369402902488    -0.109991017219    15.994914619570
         N            2.498638189017    -1.267528902488     0.077916982781    14.003074004430
         C            1.310684189017    -0.474830902488    -0.267399017219    12.000000000000
         C            1.253234189017     0.748785097512     0.641935982781    12.000000000000
         C            0.065539189017    -1.332891902488    -0.064998017219    12.000000000000
         C           -0.028888810983     1.552846097512     0.436811982781    12.000000000000
         C           -1.301021110983    -0.602689202488    -0.277637517219    12.000000000000
         C           -1.264687810983     0.681937097512     0.614965982781    12.000000000000
         H            1.317843189017    -0.123078902488    -1.312264017219     1.007825032230
         H            1.319248189017     0.409826097512     1.683827982781     1.007825032230
         H            2.126774189017     1.394467097512     0.464972982781     1.007825032230
         H            0.078336189017    -2.201970902488    -0.734889017219     1.007825032230
         H            0.083185189017    -1.717225902488     0.965841982781     1.007825032230
         H           -0.060859810983     2.384835097512     1.157838982781     1.007825032230
         H           -1.277064810983    -0.219297902488    -1.332712017219     1.007825032230
         H           -1.317499810983     0.351063097512     1.662392982781     1.007825032230
         H           -2.165431810983     1.266350097512     0.402989982781     1.007825032230
         H            3.337182189017    -0.717904902488    -0.115131017219     1.007825032230
         H            2.550017189017    -2.076882902488    -0.542222017219     1.007825032230
         H            0.669734189017     2.637031097512    -1.038938017219     1.007825032230
         H           -2.345091810983    -1.695278902488     0.807215982781     1.007825032230

  Basis Set: AUG-CC-PVTZ
    Blend: AUG-CC-PVTZ
  Basis Set: (AUG-CC-PVTZ AUX)
    Blend: AUG-CC-PVTZ-JKFIT
	 Reference Energy          =    -439.1010877772652634 [Eh]
	 Singles Energy            =      -0.0000000000000000 [Eh]
	 Same-Spin Energy          =      -0.4514182389499874 [Eh]
	 Opposite-Spin Energy      =      -1.4722521100557535 [Eh]
	 Correlation Energy        =      -1.9236703490057410 [Eh]
	 Total Energy              =    -441.0247581262710241 [Eh]

	 ================> DF-SCS-MP2 Energies <==================
	-----------------------------------------------------------
	 SCS Same-Spin Scale       =       0.3333333333333333 [-]
	 SCS Opposite-Spin Scale   =       1.2000000000000000 [-]
	 SCS Same-Spin Energy      =      -0.1504727463166625 [Eh]
	 SCS Opposite-Spin Energy  =      -1.7667025320669041 [Eh]
	 SCS Correlation Energy    =      -1.9171752783835665 [Eh]
	 SCS Total Energy          =    -441.0182630556488448 [Eh]
	-----------------------------------------------------------

  Dipole Moment: [D]
     X:     2.1810      Y:     0.8889      Z:     0.7559     Total:     2.4736

*** Psi4 exiting successfully. Buy a developer a beer!
