                               Psi4 1.4a3.dev225

  ==> Input File <==

--------------------------------------------------------------------------
#psi4
#
memory 32 gb

molecule  {
0 1
  O       -0.1447520     2.0657680    -0.9147710
  O       -2.4135200    -1.3721290    -0.1231600
  N        2.4623060    -1.2702550     0.0647480
  C        1.2743520    -0.4775570    -0.2805680
  C        1.2169020     0.7460590     0.6287670
  C        0.0292070    -1.3356180    -0.0781670
  C       -0.0652210     1.5501200     0.4236430
  C       -1.2565570    -0.5478520    -0.3033930
  C       -1.3010200     0.6792110     0.6017970
  H        1.2815110    -0.1258050    -1.3254330
  H        1.2829160     0.4071000     1.6706590
  H        2.0904420     1.3917410     0.4518040
  H        0.0417708    -2.1888577    -0.7358489
  H        0.0468530    -1.7199520     0.9526730
  H       -0.0971920     2.3821090     1.1446700
  H       -1.3133970    -0.2220240    -1.3458810
  H       -1.3538320     0.3483370     1.6492240
  H       -2.2017640     1.2636240     0.3898210
  H        3.3008500    -0.7206310    -0.1283000
  H        2.5136850    -2.0796090    -0.5553910
  H        0.6334020     2.6343050    -1.0521070
  H       -2.3814240    -1.6980050     0.7940470
units angstrom
no_reorient  #important for SAPT in psi4, default
symmetry c1  #important for SAPT in psi4, default
}

set PROPERTIES_ORIGIN ["COM"]
properties('MP2/aug-cc-pvtz', properties = ['dipole'])
--------------------------------------------------------------------------

    Molecular point group: c1
  Charge       = 0
  Multiplicity = 1
  Basis Set: AUG-CC-PVTZ
    Blend: AUG-CC-PVTZ
  Basis Set: (AUG-CC-PVTZ AUX)
    Blend: AUG-CC-PVTZ-JKFIT

    Orbital Energies [Eh]
    ---------------------

    Doubly Occupied:

       1A    -20.561782     2A    -20.551625     3A    -15.546074
       4A    -11.285798     5A    -11.271741     6A    -11.256312
       7A    -11.225647     8A    -11.219671     9A    -11.215205
      10A     -1.362559    11A     -1.350079    12A     -1.192363
      13A     -1.087332    14A     -0.996796    15A     -0.986001
      16A     -0.841057    17A     -0.823297    18A     -0.769570
      19A     -0.696029    20A     -0.678045    21A     -0.654784
      22A     -0.643154    23A     -0.625825    24A     -0.611598
      25A     -0.591951    26A     -0.563813    27A     -0.549177
      28A     -0.530455    29A     -0.526782    30A     -0.500038
      31A     -0.490939    32A     -0.475805    33A     -0.453536
      34A     -0.444093    35A     -0.420450    36A     -0.395409

  @DF-RHF Final Energy:  -439.10956017418573

   => Energetics <=

    Nuclear Repulsion Energy =            506.9940979397069327
    One-Electron Energy =               -1605.4177382270881935
    Two-Electron Energy =                 659.3140801131954731
    Total Energy =                       -439.1095601741857308
  Basis Set: (AUG-CC-PVTZ AUX)
    Blend: AUG-CC-PVTZ-RI
    Molecular point group: c1

    Geometry (in Angstrom), charge = 0, multiplicity = 1:

       Center              X                  Y                   Z               Mass
    ------------   -----------------  -----------------  -----------------  -----------------
         O           -0.115813863547     2.063103160826    -0.900543748357    15.994914619570
         O           -2.384581863547    -1.374793839174    -0.108932748357    15.994914619570
         N            2.491244136453    -1.272919839174     0.078975251643    14.003074004430
         C            1.303290136453    -0.480221839174    -0.266340748357    12.000000000000
         C            1.245840136453     0.743394160826     0.642994251643    12.000000000000
         C            0.058145136453    -1.338282839174    -0.063939748357    12.000000000000
         C           -0.036282863547     1.547455160826     0.437870251643    12.000000000000
         C           -1.227618863547    -0.550516839174    -0.289165748357    12.000000000000
         C           -1.272081863547     0.676546160826     0.616024251643    12.000000000000
         H            1.310449136453    -0.128469839174    -1.311205748357     1.007825032230
         H            1.311854136453     0.404435160826     1.684886251643     1.007825032230
         H            2.119380136453     1.389076160826     0.466031251643     1.007825032230
         H            0.070708936453    -2.191522539174    -0.721621648357     1.007825032230
         H            0.075791136453    -1.722616839174     0.966900251643     1.007825032230
         H           -0.068253863547     2.379444160826     1.158897251643     1.007825032230
         H           -1.284458863547    -0.224688839174    -1.331653748357     1.007825032230
         H           -1.324893863547     0.345672160826     1.663451251643     1.007825032230
         H           -2.172825863547     1.260959160826     0.404048251643     1.007825032230
         H            3.329788136453    -0.723295839174    -0.114072748357     1.007825032230
         H            2.542623136453    -2.082273839174    -0.541163748357     1.007825032230
         H            0.662340136453     2.631640160826    -1.037879748357     1.007825032230
         H           -2.352485863547    -1.700669839174     0.808274251643     1.007825032230

  Basis Set: AUG-CC-PVTZ
    Blend: AUG-CC-PVTZ
  Basis Set: (AUG-CC-PVTZ AUX)
    Blend: AUG-CC-PVTZ-JKFIT
	 Reference Energy          =    -439.1095601741857308 [Eh]
	 Singles Energy            =      -0.0000000000000000 [Eh]
	 Same-Spin Energy          =      -0.4514997976138305 [Eh]
	 Opposite-Spin Energy      =      -1.4731392054862817 [Eh]
	 Correlation Energy        =      -1.9246390031001122 [Eh]
	 Total Energy              =    -441.0341991772858705 [Eh]

	 ================> DF-SCS-MP2 Energies <==================
	-----------------------------------------------------------
	 SCS Same-Spin Scale       =       0.3333333333333333 [-]
	 SCS Opposite-Spin Scale   =       1.2000000000000000 [-]
	 SCS Same-Spin Energy      =      -0.1504999325379435 [Eh]
	 SCS Opposite-Spin Energy  =      -1.7677670465835380 [Eh]
	 SCS Correlation Energy    =      -1.9182669791214815 [Eh]
	 SCS Total Energy          =    -441.0278271533072143 [Eh]
	-----------------------------------------------------------

  Dipole Moment: [D]
     X:     2.5392      Y:     1.1139      Z:     0.7391     Total:     2.8696

*** Psi4 exiting successfully. Buy a developer a beer!
