                               Psi4 1.4a3.dev225

  ==> Input File <==

--------------------------------------------------------------------------
#psi4
#
memory 32 gb

molecule  {
0 1
  O       -0.1447520     2.0657680    -0.9147710
  O       -2.4135200    -1.3721290    -0.1231600
  N        2.4623060    -1.2702550     0.0647480
  C        1.2743520    -0.4775570    -0.2805680
  C        1.2169020     0.7460590     0.6287670
  C        0.0292070    -1.3356180    -0.0781670
  C       -0.0652210     1.5501200     0.4236430
  C       -1.2565570    -0.5478520    -0.3033930
  C       -1.3010200     0.6792110     0.6017970
  H        1.2815110    -0.1258050    -1.3254330
  H        1.2829160     0.4071000     1.6706590
  H        2.0904420     1.3917410     0.4518040
  H        0.0420040    -2.2046970    -0.7480580
  H        0.0468530    -1.7199520     0.9526730
  H       -0.0971920     2.3821090     1.1446700
  H       -1.3133970    -0.2220240    -1.3458810
  H       -1.3538320     0.3483370     1.6492240
  H       -2.2017640     1.2636240     0.3898210
  H        3.3008500    -0.7206310    -0.1283000
  H        2.5136850    -2.0796090    -0.5553910
  H        0.6334020     2.6343050    -1.0521070
  H       -2.3830718    -1.6812746     0.7469579
units angstrom
no_reorient  #important for SAPT in psi4, default
symmetry c1  #important for SAPT in psi4, default
}

set PROPERTIES_ORIGIN ["COM"]
properties('MP2/aug-cc-pvtz', properties = ['dipole'])
--------------------------------------------------------------------------

    Molecular point group: c1
  Charge       = 0
  Multiplicity = 1
  Basis Set: AUG-CC-PVTZ
    Blend: AUG-CC-PVTZ
  Basis Set: (AUG-CC-PVTZ AUX)
    Blend: AUG-CC-PVTZ-JKFIT

    Orbital Energies [Eh]
    ---------------------

    Doubly Occupied:

       1A    -20.562007     2A    -20.546642     3A    -15.546177
       4A    -11.286124     5A    -11.272260     6A    -11.256685
       7A    -11.225955     8A    -11.220122     9A    -11.217914
      10A     -1.364636    11A     -1.359937    12A     -1.192533
      13A     -1.088352    14A     -0.997255    15A     -0.986424
      16A     -0.842858    17A     -0.824523    18A     -0.770795
      19A     -0.698962    20A     -0.679766    21A     -0.655014
      22A     -0.641889    23A     -0.626509    24A     -0.616433
      25A     -0.592590    26A     -0.564014    27A     -0.549318
      28A     -0.531735    29A     -0.526923    30A     -0.500232
      31A     -0.490660    32A     -0.476251    33A     -0.454039
      34A     -0.444942    35A     -0.420984    36A     -0.395595

  @DF-RHF Final Energy:  -439.11019005343462

   => Energetics <=

    Nuclear Repulsion Energy =            507.1876144312535075
    One-Electron Energy =               -1605.7415006373598771
    Two-Electron Energy =                 659.4436961526718051
    Total Energy =                       -439.1101900534346214
  Basis Set: (AUG-CC-PVTZ AUX)
    Blend: AUG-CC-PVTZ-RI
    Molecular point group: c1

    Geometry (in Angstrom), charge = 0, multiplicity = 1:

       Center              X                  Y                   Z               Mass
    ------------   -----------------  -----------------  -----------------  -----------------
         O           -0.115802988431     2.063096310256    -0.900087877579    15.994914619570
         O           -2.384570988431    -1.374800689744    -0.108476877579    15.994914619570
         N            2.491255011569    -1.272926689744     0.079431122421    14.003074004430
         C            1.303301011569    -0.480228689744    -0.265884877579    12.000000000000
         C            1.245851011569     0.743387310256     0.643450122421    12.000000000000
         C            0.058156011569    -1.338289689744    -0.063483877579    12.000000000000
         C           -0.036271988431     1.547448310256     0.438326122421    12.000000000000
         C           -1.227607988431    -0.550523689744    -0.288709877579    12.000000000000
         C           -1.272070988431     0.676539310256     0.616480122421    12.000000000000
         H            1.310460011569    -0.128476689744    -1.310749877579     1.007825032230
         H            1.311865011569     0.404428310256     1.685342122421     1.007825032230
         H            2.119391011569     1.389069310256     0.466487122421     1.007825032230
         H            0.070953011569    -2.207368689744    -0.733374877579     1.007825032230
         H            0.075802011569    -1.722623689744     0.967356122421     1.007825032230
         H           -0.068242988431     2.379437310256     1.159353122421     1.007825032230
         H           -1.284447988431    -0.224695689744    -1.331197877579     1.007825032230
         H           -1.324882988431     0.345665310256     1.663907122421     1.007825032230
         H           -2.172814988431     1.260952310256     0.404504122421     1.007825032230
         H            3.329799011569    -0.723302689744    -0.113616877579     1.007825032230
         H            2.542634011569    -2.082280689744    -0.540707877579     1.007825032230
         H            0.662351011569     2.631633310256    -1.037423877579     1.007825032230
         H           -2.354122788431    -1.683946289744     0.761641022421     1.007825032230

  Basis Set: AUG-CC-PVTZ
    Blend: AUG-CC-PVTZ
  Basis Set: (AUG-CC-PVTZ AUX)
    Blend: AUG-CC-PVTZ-JKFIT
	 Reference Energy          =    -439.1101900534346214 [Eh]
	 Singles Energy            =      -0.0000000000000000 [Eh]
	 Same-Spin Energy          =      -0.4509142495272469 [Eh]
	 Opposite-Spin Energy      =      -1.4717371983794938 [Eh]
	 Correlation Energy        =      -1.9226514479067407 [Eh]
	 Total Energy              =    -441.0328415013413519 [Eh]

	 ================> DF-SCS-MP2 Energies <==================
	-----------------------------------------------------------
	 SCS Same-Spin Scale       =       0.3333333333333333 [-]
	 SCS Opposite-Spin Scale   =       1.2000000000000000 [-]
	 SCS Same-Spin Energy      =      -0.1503047498424156 [Eh]
	 SCS Opposite-Spin Energy  =      -1.7660846380553925 [Eh]
	 SCS Correlation Energy    =      -1.9163893878978082 [Eh]
	 SCS Total Energy          =    -441.0265794413324443 [Eh]
	-----------------------------------------------------------

  Dipole Moment: [D]
     X:     2.5494      Y:     1.1442      Z:     0.7207     Total:     2.8858

*** Psi4 exiting successfully. Buy a developer a beer!
