                               Psi4 1.4a3.dev225

  ==> Input File <==

--------------------------------------------------------------------------
#psi4
#
memory 32 gb

molecule  {
0 1
  O       -0.1447520     2.0657680    -0.9147710
  O       -2.4135200    -1.3721290    -0.1231600
  N        2.4623060    -1.2702550     0.0647480
  C        1.2743520    -0.4775570    -0.2805680
  C        1.2169020     0.7460590     0.6287670
  C        0.0292070    -1.3356180    -0.0781670
  C       -0.0965297     1.5237262     0.5781672
  C       -1.2565570    -0.5478520    -0.3033930
  C       -1.3010200     0.6792110     0.6017970
  H        1.2815110    -0.1258050    -1.3254330
  H        1.2829160     0.4071000     1.6706590
  H        2.0904420     1.3917410     0.4518040
  H        0.0420040    -2.2046970    -0.7480580
  H        0.0468530    -1.7199520     0.9526730
  H       -0.0971920     2.3821090     1.1446700
  H       -1.3133970    -0.2220240    -1.3458810
  H       -1.3538320     0.3483370     1.6492240
  H       -2.2017640     1.2636240     0.3898210
  H        3.3008500    -0.7206310    -0.1283000
  H        2.5136850    -2.0796090    -0.5553910
  H        0.6334020     2.6343050    -1.0521070
  H       -2.3814240    -1.6980050     0.7940470
units angstrom
no_reorient  #important for SAPT in psi4, default
symmetry c1  #important for SAPT in psi4, default
}

set PROPERTIES_ORIGIN ["COM"]
properties('MP2/aug-cc-pvtz', properties = ['dipole'])
--------------------------------------------------------------------------

    Molecular point group: c1
  Charge       = 0
  Multiplicity = 1
  Basis Set: AUG-CC-PVTZ
    Blend: AUG-CC-PVTZ
  Basis Set: (AUG-CC-PVTZ AUX)
    Blend: AUG-CC-PVTZ-JKFIT

    Orbital Energies [Eh]
    ---------------------

    Doubly Occupied:

       1A    -20.554788     2A    -20.540040     3A    -15.547619
       4A    -11.290086     5A    -11.275773     6A    -11.258942
       7A    -11.231459     8A    -11.224026     9A    -11.219593
      10A     -1.353707    11A     -1.308785    12A     -1.193895
      13A     -1.096257    14A     -1.003999    15A     -0.991985
      16A     -0.848520    17A     -0.829640    18A     -0.764968
      19A     -0.692006    20A     -0.665624    21A     -0.658086
      22A     -0.645009    23A     -0.627552    24A     -0.607270
      25A     -0.587506    26A     -0.563329    27A     -0.552687
      28A     -0.532634    29A     -0.508294    30A     -0.497709
      31A     -0.488779    32A     -0.470656    33A     -0.455078
      34A     -0.447202    35A     -0.428795    36A     -0.397871

  @DF-RHF Final Energy:  -439.08651420464685

   => Energetics <=

    Nuclear Repulsion Energy =            505.6130581532748920
    One-Electron Energy =               -1602.6788089729259354
    Two-Electron Energy =                 657.9792366150040834
    Total Energy =                       -439.0865142046468463
  Basis Set: (AUG-CC-PVTZ AUX)
    Blend: AUG-CC-PVTZ-RI
    Molecular point group: c1

    Geometry (in Angstrom), charge = 0, multiplicity = 1:

       Center              X                  Y                   Z               Mass
    ------------   -----------------  -----------------  -----------------  -----------------
         O           -0.112949754018     2.065640937136    -0.914594558693    15.994914619570
         O           -2.381717754018    -1.372256062864    -0.122983558693    15.994914619570
         N            2.494108245982    -1.270382062864     0.064924441307    14.003074004430
         C            1.306154245982    -0.477684062864    -0.280391558693    12.000000000000
         C            1.248704245982     0.745931937136     0.628943441307    12.000000000000
         C            0.061009245982    -1.335745062864    -0.077990558693    12.000000000000
         C           -0.064727454018     1.523599137136     0.578343641307    12.000000000000
         C           -1.224754754018    -0.547979062864    -0.303216558693    12.000000000000
         C           -1.269217754018     0.679083937136     0.601973441307    12.000000000000
         H            1.313313245982    -0.125932062864    -1.325256558693     1.007825032230
         H            1.314718245982     0.406972937136     1.670835441307     1.007825032230
         H            2.122244245982     1.391613937136     0.451980441307     1.007825032230
         H            0.073806245982    -2.204824062864    -0.747881558693     1.007825032230
         H            0.078655245982    -1.720079062864     0.952849441307     1.007825032230
         H           -0.065389754018     2.381981937136     1.144846441307     1.007825032230
         H           -1.281594754018    -0.222151062864    -1.345704558693     1.007825032230
         H           -1.322029754018     0.348209937136     1.649400441307     1.007825032230
         H           -2.169961754018     1.263496937136     0.389997441307     1.007825032230
         H            3.332652245982    -0.720758062864    -0.128123558693     1.007825032230
         H            2.545487245982    -2.079736062864    -0.555214558693     1.007825032230
         H            0.665204245982     2.634177937136    -1.051930558693     1.007825032230
         H           -2.349621754018    -1.698132062864     0.794223441307     1.007825032230

  Basis Set: AUG-CC-PVTZ
    Blend: AUG-CC-PVTZ
  Basis Set: (AUG-CC-PVTZ AUX)
    Blend: AUG-CC-PVTZ-JKFIT
	 Reference Energy          =    -439.0865142046468463 [Eh]
	 Singles Energy            =      -0.0000000000000000 [Eh]
	 Same-Spin Energy          =      -0.4524879557340264 [Eh]
	 Opposite-Spin Energy      =      -1.4766738141963864 [Eh]
	 Correlation Energy        =      -1.9291617699304129 [Eh]
	 Total Energy              =    -441.0156759745772774 [Eh]

	 ================> DF-SCS-MP2 Energies <==================
	-----------------------------------------------------------
	 SCS Same-Spin Scale       =       0.3333333333333333 [-]
	 SCS Opposite-Spin Scale   =       1.2000000000000000 [-]
	 SCS Same-Spin Energy      =      -0.1508293185780088 [Eh]
	 SCS Opposite-Spin Energy  =      -1.7720085770356637 [Eh]
	 SCS Correlation Energy    =      -1.9228378956136725 [Eh]
	 SCS Total Energy          =    -441.0093521002605144 [Eh]
	-----------------------------------------------------------

  Dipole Moment: [D]
     X:     2.4866      Y:     0.8596      Z:     1.1888     Total:     2.8871

*** Psi4 exiting successfully. Buy a developer a beer!
