                               Psi4 1.4a3.dev225

  ==> Input File <==

--------------------------------------------------------------------------
#psi4
#
memory 32 gb

molecule  {
0 1
  O       -0.1447520     2.0657680    -0.9147710
  O       -2.4135200    -1.3721290    -0.1231600
  N        2.4623060    -1.2702550     0.0647480
  C        1.2743520    -0.4775570    -0.2805680
  C        1.2169020     0.7460590     0.6287670
  C        0.0416308    -1.3281839    -0.1293765
  C       -0.0652210     1.5501200     0.4236430
  C       -1.2565570    -0.5478520    -0.3033930
  C       -1.3010200     0.6792110     0.6017970
  H        1.2815110    -0.1258050    -1.3254330
  H        1.2829160     0.4071000     1.6706590
  H        2.0904420     1.3917410     0.4518040
  H        0.0420040    -2.2046970    -0.7480580
  H        0.0468530    -1.7199520     0.9526730
  H       -0.0971920     2.3821090     1.1446700
  H       -1.3133970    -0.2220240    -1.3458810
  H       -1.3538320     0.3483370     1.6492240
  H       -2.2017640     1.2636240     0.3898210
  H        3.3008500    -0.7206310    -0.1283000
  H        2.5136850    -2.0796090    -0.5553910
  H        0.6334020     2.6343050    -1.0521070
  H       -2.3814240    -1.6980050     0.7940470
units angstrom
no_reorient  #important for SAPT in psi4, default
symmetry c1  #important for SAPT in psi4, default
}

set PROPERTIES_ORIGIN ["COM"]
properties('MP2/aug-cc-pvtz', properties = ['dipole'])
--------------------------------------------------------------------------

    Molecular point group: c1
  Charge       = 0
  Multiplicity = 1
  Basis Set: AUG-CC-PVTZ
    Blend: AUG-CC-PVTZ
  Basis Set: (AUG-CC-PVTZ AUX)
    Blend: AUG-CC-PVTZ-JKFIT

    Orbital Energies [Eh]
    ---------------------

    Doubly Occupied:

       1A    -20.561972     2A    -20.552577     3A    -15.546433
       4A    -11.286179     5A    -11.272285     6A    -11.256084
       7A    -11.226501     8A    -11.220467     9A    -11.219514
      10A     -1.362791    11A     -1.350403    12A     -1.193560
      13A     -1.087733    14A     -0.997472    15A     -0.987153
      16A     -0.840928    17A     -0.824922    18A     -0.767350
      19A     -0.696573    20A     -0.677691    21A     -0.655368
      22A     -0.645261    23A     -0.626107    24A     -0.610877
      25A     -0.590937    26A     -0.565863    27A     -0.551543
      28A     -0.530516    29A     -0.521677    30A     -0.501823
      31A     -0.488962    32A     -0.472926    33A     -0.454216
      34A     -0.443578    35A     -0.422293    36A     -0.395036

  @DF-RHF Final Energy:  -439.10620562531039

   => Energetics <=

    Nuclear Repulsion Energy =            506.9772337150060366
    One-Electron Energy =               -1605.3557368560104806
    Two-Electron Energy =                 659.2722975156939356
    Total Energy =                       -439.1062056253103947
  Basis Set: (AUG-CC-PVTZ AUX)
    Blend: AUG-CC-PVTZ-RI
    Molecular point group: c1

    Geometry (in Angstrom), charge = 0, multiplicity = 1:

       Center              X                  Y                   Z               Mass
    ------------   -----------------  -----------------  -----------------  -----------------
         O           -0.116952892860     2.062544434982    -0.895762327158    15.994914619570
         O           -2.385720892860    -1.375352565018    -0.104151327158    15.994914619570
         N            2.490105107140    -1.273478565018     0.083756672842    14.003074004430
         C            1.302151107140    -0.480780565018    -0.261559327158    12.000000000000
         C            1.244701107140     0.742835434982     0.647775672842    12.000000000000
         C            0.069429907140    -1.331407465018    -0.110367827158    12.000000000000
         C           -0.037421892860     1.546896434982     0.442651672842    12.000000000000
         C           -1.228757892860    -0.551075565018    -0.284384327158    12.000000000000
         C           -1.273220892860     0.675987434982     0.620805672842    12.000000000000
         H            1.309310107140    -0.129028565018    -1.306424327158     1.007825032230
         H            1.310715107140     0.403876434982     1.689667672842     1.007825032230
         H            2.118241107140     1.388517434982     0.470812672842     1.007825032230
         H            0.069803107140    -2.207920565018    -0.729049327158     1.007825032230
         H            0.074652107140    -1.723175565018     0.971681672842     1.007825032230
         H           -0.069392892860     2.378885434982     1.163678672842     1.007825032230
         H           -1.285597892860    -0.225247565018    -1.326872327158     1.007825032230
         H           -1.326032892860     0.345113434982     1.668232672842     1.007825032230
         H           -2.173964892860     1.260400434982     0.408829672842     1.007825032230
         H            3.328649107140    -0.723854565018    -0.109291327158     1.007825032230
         H            2.541484107140    -2.082832565018    -0.536382327158     1.007825032230
         H            0.661201107140     2.631081434982    -1.033098327158     1.007825032230
         H           -2.353624892860    -1.701228565018     0.813055672842     1.007825032230

  Basis Set: AUG-CC-PVTZ
    Blend: AUG-CC-PVTZ
  Basis Set: (AUG-CC-PVTZ AUX)
    Blend: AUG-CC-PVTZ-JKFIT
	 Reference Energy          =    -439.1062056253103947 [Eh]
	 Singles Energy            =      -0.0000000000000000 [Eh]
	 Same-Spin Energy          =      -0.4517197252248547 [Eh]
	 Opposite-Spin Energy      =      -1.4735965413445196 [Eh]
	 Correlation Energy        =      -1.9253162665693742 [Eh]
	 Total Energy              =    -441.0315218918797768 [Eh]

	 ================> DF-SCS-MP2 Energies <==================
	-----------------------------------------------------------
	 SCS Same-Spin Scale       =       0.3333333333333333 [-]
	 SCS Opposite-Spin Scale   =       1.2000000000000000 [-]
	 SCS Same-Spin Energy      =      -0.1505732417416182 [Eh]
	 SCS Opposite-Spin Energy  =      -1.7683158496134235 [Eh]
	 SCS Correlation Energy    =      -1.9188890913550416 [Eh]
	 SCS Total Energy          =    -441.0250947166654214 [Eh]
	-----------------------------------------------------------

  Dipole Moment: [D]
     X:     2.5372      Y:     1.1377      Z:     0.7105     Total:     2.8699

*** Psi4 exiting successfully. Buy a developer a beer!
