                               Psi4 1.4a3.dev225

  ==> Input File <==

--------------------------------------------------------------------------
#psi4
#
memory 32 gb

molecule  {
0 1
  O       -0.1447520     2.0657680    -0.9147710
  O       -2.4135200    -1.3721290    -0.1231600
  N        2.4623060    -1.2702550     0.0647480
  C        1.2743520    -0.4775570    -0.2805680
  C        1.2169020     0.7460590     0.6287670
  C        0.0292070    -1.3356180    -0.0781670
  C       -0.0652210     1.5501200     0.4236430
  C       -1.2565570    -0.5478520    -0.3033930
  C       -1.4633786     0.5647914     0.6252028
  H        1.2815110    -0.1258050    -1.3254330
  H        1.2829160     0.4071000     1.6706590
  H        2.0904420     1.3917410     0.4518040
  H        0.0420040    -2.2046970    -0.7480580
  H        0.0468530    -1.7199520     0.9526730
  H       -0.0971920     2.3821090     1.1446700
  H       -1.3133970    -0.2220240    -1.3458810
  H       -1.3538320     0.3483370     1.6492240
  H       -2.2017640     1.2636240     0.3898210
  H        3.3008500    -0.7206310    -0.1283000
  H        2.5136850    -2.0796090    -0.5553910
  H        0.6334020     2.6343050    -1.0521070
  H       -2.3814240    -1.6980050     0.7940470
units angstrom
no_reorient  #important for SAPT in psi4, default
symmetry c1  #important for SAPT in psi4, default
}

set PROPERTIES_ORIGIN ["COM"]
properties('MP2/aug-cc-pvtz', properties = ['dipole'])
--------------------------------------------------------------------------

    Molecular point group: c1
  Charge       = 0
  Multiplicity = 1
  Basis Set: AUG-CC-PVTZ
    Blend: AUG-CC-PVTZ
  Basis Set: (AUG-CC-PVTZ AUX)
    Blend: AUG-CC-PVTZ-JKFIT

    Orbital Energies [Eh]
    ---------------------

    Doubly Occupied:

       1A    -20.561172     2A    -20.544546     3A    -15.546044
       4A    -11.289825     5A    -11.269902     6A    -11.256331
       7A    -11.225306     8A    -11.220378     9A    -11.220057
      10A     -1.358824    11A     -1.350072    12A     -1.192012
      13A     -1.079048    14A     -0.997147    15A     -0.980551
      16A     -0.836863    17A     -0.827589    18A     -0.770785
      19A     -0.690715    20A     -0.677207    21A     -0.653280
      22A     -0.648688    23A     -0.623648    24A     -0.612814
      25A     -0.597661    26A     -0.563628    27A     -0.554333
      28A     -0.540992    29A     -0.526552    30A     -0.496102
      31A     -0.485648    32A     -0.478999    33A     -0.444201
      34A     -0.436646    35A     -0.404817    36A     -0.394611

  @DF-RHF Final Energy:  -439.07979850044978

   => Energetics <=

    Nuclear Repulsion Energy =            505.2013240086307064
    One-Electron Energy =               -1601.8482565827189319
    Two-Electron Energy =                 657.5671340736383854
    Total Energy =                       -439.0797985004497832
  Basis Set: (AUG-CC-PVTZ AUX)
    Blend: AUG-CC-PVTZ-RI
    Molecular point group: c1

    Geometry (in Angstrom), charge = 0, multiplicity = 1:

       Center              X                  Y                   Z               Mass
    ------------   -----------------  -----------------  -----------------  -----------------
         O           -0.100953848343     2.073698548731    -0.902592382738    15.994914619570
         O           -2.369721848343    -1.364198451269    -0.110981382738    15.994914619570
         N            2.506104151657    -1.262324451269     0.076926617262    14.003074004430
         C            1.318150151657    -0.469626451269    -0.268389382738    12.000000000000
         C            1.260700151657     0.753989548731     0.640945617262    12.000000000000
         C            0.073005151657    -1.327687451269    -0.065988382738    12.000000000000
         C           -0.021422848343     1.558050548731     0.435821617262    12.000000000000
         C           -1.212758848343    -0.539921451269    -0.291214382738    12.000000000000
         C           -1.419580448343     0.572721948731     0.637381417262    12.000000000000
         H            1.325309151657    -0.117874451269    -1.313254382738     1.007825032230
         H            1.326714151657     0.415030548731     1.682837617262     1.007825032230
         H            2.134240151657     1.399671548731     0.463982617262     1.007825032230
         H            0.085802151657    -2.196766451269    -0.735879382738     1.007825032230
         H            0.090651151657    -1.712021451269     0.964851617262     1.007825032230
         H           -0.053393848343     2.390039548731     1.156848617262     1.007825032230
         H           -1.269598848343    -0.214093451269    -1.333702382738     1.007825032230
         H           -1.310033848343     0.356267548731     1.661402617262     1.007825032230
         H           -2.157965848343     1.271554548731     0.401999617262     1.007825032230
         H            3.344648151657    -0.712700451269    -0.116121382738     1.007825032230
         H            2.557483151657    -2.071678451269    -0.543212382738     1.007825032230
         H            0.677200151657     2.642235548731    -1.039928382738     1.007825032230
         H           -2.337625848343    -1.690074451269     0.806225617262     1.007825032230

  Basis Set: AUG-CC-PVTZ
    Blend: AUG-CC-PVTZ
  Basis Set: (AUG-CC-PVTZ AUX)
    Blend: AUG-CC-PVTZ-JKFIT
	 Reference Energy          =    -439.0797985004497832 [Eh]
	 Singles Energy            =      -0.0000000000000000 [Eh]
	 Same-Spin Energy          =      -0.4521136011677074 [Eh]
	 Opposite-Spin Energy      =      -1.4751430251398663 [Eh]
	 Correlation Energy        =      -1.9272566263075737 [Eh]
	 Total Energy              =    -441.0070551267573364 [Eh]

	 ================> DF-SCS-MP2 Energies <==================
	-----------------------------------------------------------
	 SCS Same-Spin Scale       =       0.3333333333333333 [-]
	 SCS Opposite-Spin Scale   =       1.2000000000000000 [-]
	 SCS Same-Spin Energy      =      -0.1507045337225691 [Eh]
	 SCS Opposite-Spin Energy  =      -1.7701716301678394 [Eh]
	 SCS Correlation Energy    =      -1.9208761638904086 [Eh]
	 SCS Total Energy          =    -441.0006746643401812 [Eh]
	-----------------------------------------------------------

  Dipole Moment: [D]
     X:     2.5979      Y:     1.1766      Z:     0.7310     Total:     2.9441

*** Psi4 exiting successfully. Buy a developer a beer!
