                               Psi4 1.4a3.dev225

  ==> Input File <==

--------------------------------------------------------------------------
#psi4
#
memory 32 gb

molecule  {
0 1
  O       -0.1447520     2.0657680    -0.9147710
  O       -2.4135200    -1.3721290    -0.1231600
  N        2.4623060    -1.2702550     0.0647480
  C        1.2743520    -0.4775570    -0.2805680
  C        1.2169020     0.7460590     0.6287670
  C        0.0292070    -1.3356180    -0.0781670
  C       -0.0772382     1.5422886     0.4749846
  C       -1.2565570    -0.5478520    -0.3033930
  C       -1.3010200     0.6792110     0.6017970
  H        1.2815110    -0.1258050    -1.3254330
  H        1.2829160     0.4071000     1.6706590
  H        2.0904420     1.3917410     0.4518040
  H        0.0420040    -2.2046970    -0.7480580
  H        0.0468530    -1.7199520     0.9526730
  H       -0.0971920     2.3821090     1.1446700
  H       -1.3133970    -0.2220240    -1.3458810
  H       -1.3538320     0.3483370     1.6492240
  H       -2.2017640     1.2636240     0.3898210
  H        3.3008500    -0.7206310    -0.1283000
  H        2.5136850    -2.0796090    -0.5553910
  H        0.6334020     2.6343050    -1.0521070
  H       -2.3814240    -1.6980050     0.7940470
units angstrom
no_reorient  #important for SAPT in psi4, default
symmetry c1  #important for SAPT in psi4, default
}

set PROPERTIES_ORIGIN ["COM"]
properties('MP2/aug-cc-pvtz', properties = ['dipole'])
--------------------------------------------------------------------------

    Molecular point group: c1
  Charge       = 0
  Multiplicity = 1
  Basis Set: AUG-CC-PVTZ
    Blend: AUG-CC-PVTZ
  Basis Set: (AUG-CC-PVTZ AUX)
    Blend: AUG-CC-PVTZ-JKFIT

    Orbital Energies [Eh]
    ---------------------

    Doubly Occupied:

       1A    -20.555102     2A    -20.552653     3A    -15.546507
       4A    -11.286276     5A    -11.273121     6A    -11.257194
       7A    -11.227350     8A    -11.220932     9A    -11.218214
      10A     -1.352274    11A     -1.342079    12A     -1.192765
      13A     -1.090136    14A     -0.998384    15A     -0.988133
      16A     -0.842736    17A     -0.825065    18A     -0.766732
      19A     -0.693858    20A     -0.673731    21A     -0.655940
      22A     -0.642645    23A     -0.624304    24A     -0.610693
      25A     -0.589993    26A     -0.563174    27A     -0.549392
      28A     -0.531043    29A     -0.518698    30A     -0.500777
      31A     -0.489154    32A     -0.475562    33A     -0.456561
      34A     -0.446437    35A     -0.423869    36A     -0.396377

  @DF-RHF Final Energy:  -439.10621667604414

   => Energetics <=

    Nuclear Repulsion Energy =            506.4518641697768544
    One-Electron Energy =               -1604.3604398014238086
    Two-Electron Energy =                 658.8023589556028128
    Total Energy =                       -439.1062166760441414
  Basis Set: (AUG-CC-PVTZ AUX)
    Blend: AUG-CC-PVTZ-RI
    Molecular point group: c1

    Geometry (in Angstrom), charge = 0, multiplicity = 1:

       Center              X                  Y                   Z               Mass
    ------------   -----------------  -----------------  -----------------  -----------------
         O           -0.114715638726     2.063941792005    -0.905149540140    15.994914619570
         O           -2.383483638726    -1.373955207995    -0.113538540140    15.994914619570
         N            2.492342361274    -1.272081207995     0.074369459860    14.003074004430
         C            1.304388361274    -0.479383207995    -0.270946540140    12.000000000000
         C            1.246938361274     0.744232792005     0.638388459860    12.000000000000
         C            0.059243361274    -1.337444207995    -0.068545540140    12.000000000000
         C           -0.047201838726     1.540462392005     0.484606059860    12.000000000000
         C           -1.226520638726    -0.549678207995    -0.293771540140    12.000000000000
         C           -1.270983638726     0.677384792005     0.611418459860    12.000000000000
         H            1.311547361274    -0.127631207995    -1.315811540140     1.007825032230
         H            1.312952361274     0.405273792005     1.680280459860     1.007825032230
         H            2.120478361274     1.389914792005     0.461425459860     1.007825032230
         H            0.072040361274    -2.206523207995    -0.738436540140     1.007825032230
         H            0.076889361274    -1.721778207995     0.962294459860     1.007825032230
         H           -0.067155638726     2.380282792005     1.154291459860     1.007825032230
         H           -1.283360638726    -0.223850207995    -1.336259540140     1.007825032230
         H           -1.323795638726     0.346510792005     1.658845459860     1.007825032230
         H           -2.171727638726     1.261797792005     0.399442459860     1.007825032230
         H            3.330886361274    -0.722457207995    -0.118678540140     1.007825032230
         H            2.543721361274    -2.081435207995    -0.545769540140     1.007825032230
         H            0.663438361274     2.632478792005    -1.042485540140     1.007825032230
         H           -2.351387638726    -1.699831207995     0.803668459860     1.007825032230

  Basis Set: AUG-CC-PVTZ
    Blend: AUG-CC-PVTZ
  Basis Set: (AUG-CC-PVTZ AUX)
    Blend: AUG-CC-PVTZ-JKFIT
	 Reference Energy          =    -439.1062166760441414 [Eh]
	 Singles Energy            =      -0.0000000000000000 [Eh]
	 Same-Spin Energy          =      -0.4516791663583686 [Eh]
	 Opposite-Spin Energy      =      -1.4741367634289966 [Eh]
	 Correlation Energy        =      -1.9258159297873652 [Eh]
	 Total Energy              =    -441.0320326058314890 [Eh]

	 ================> DF-SCS-MP2 Energies <==================
	-----------------------------------------------------------
	 SCS Same-Spin Scale       =       0.3333333333333333 [-]
	 SCS Opposite-Spin Scale   =       1.2000000000000000 [-]
	 SCS Same-Spin Energy      =      -0.1505597221194562 [Eh]
	 SCS Opposite-Spin Energy  =      -1.7689641161147958 [Eh]
	 SCS Correlation Energy    =      -1.9195238382342519 [Eh]
	 SCS Total Energy          =    -441.0257405142783682 [Eh]
	-----------------------------------------------------------

  Dipole Moment: [D]
     X:     2.5195      Y:     1.0467      Z:     0.8999     Total:     2.8728

*** Psi4 exiting successfully. Buy a developer a beer!
