                               Psi4 1.4a3.dev225

  ==> Input File <==

--------------------------------------------------------------------------
#psi4
#
memory 32 gb

molecule  {
0 1
  O       -0.1447520     2.0657680    -0.9147710
  O       -2.4135200    -1.3721290    -0.1231600
  N        2.4736954    -1.2357579     0.1009482
  C        1.2743520    -0.4775570    -0.2805680
  C        1.2169020     0.7460590     0.6287670
  C        0.0292070    -1.3356180    -0.0781670
  C       -0.0652210     1.5501200     0.4236430
  C       -1.2565570    -0.5478520    -0.3033930
  C       -1.3010200     0.6792110     0.6017970
  H        1.2815110    -0.1258050    -1.3254330
  H        1.2829160     0.4071000     1.6706590
  H        2.0904420     1.3917410     0.4518040
  H        0.0420040    -2.2046970    -0.7480580
  H        0.0468530    -1.7199520     0.9526730
  H       -0.0971920     2.3821090     1.1446700
  H       -1.3133970    -0.2220240    -1.3458810
  H       -1.3538320     0.3483370     1.6492240
  H       -2.2017640     1.2636240     0.3898210
  H        3.3008500    -0.7206310    -0.1283000
  H        2.5136850    -2.0796090    -0.5553910
  H        0.6334020     2.6343050    -1.0521070
  H       -2.3814240    -1.6980050     0.7940470
units angstrom
no_reorient  #important for SAPT in psi4, default
symmetry c1  #important for SAPT in psi4, default
}

set PROPERTIES_ORIGIN ["COM"]
properties('MP2/aug-cc-pvtz', properties = ['dipole'])
--------------------------------------------------------------------------

    Molecular point group: c1
  Charge       = 0
  Multiplicity = 1
  Basis Set: AUG-CC-PVTZ
    Blend: AUG-CC-PVTZ
  Basis Set: (AUG-CC-PVTZ AUX)
    Blend: AUG-CC-PVTZ-JKFIT

    Orbital Energies [Eh]
    ---------------------

    Doubly Occupied:

       1A    -20.561614     2A    -20.552055     3A    -15.550407
       4A    -11.285063     5A    -11.272501     6A    -11.256738
       7A    -11.224608     8A    -11.219787     9A    -11.218533
      10A     -1.362393    11A     -1.350459    12A     -1.191983
      13A     -1.086684    14A     -0.996236    15A     -0.985070
      16A     -0.840359    17A     -0.822881    18A     -0.769621
      19A     -0.696325    20A     -0.678633    21A     -0.649940
      22A     -0.639265    23A     -0.626583    24A     -0.612075
      25A     -0.591079    26A     -0.563818    27A     -0.545644
      28A     -0.530278    29A     -0.526778    30A     -0.499641
      31A     -0.489932    32A     -0.474690    33A     -0.453160
      34A     -0.445013    35A     -0.420643    36A     -0.398567

  @DF-RHF Final Energy:  -439.10554970805720

   => Energetics <=

    Nuclear Repulsion Energy =            506.9056745459074023
    One-Electron Energy =               -1605.2443384110324587
    Two-Electron Energy =                 659.2331141570678028
    Total Energy =                       -439.1055497080571968
  Basis Set: (AUG-CC-PVTZ AUX)
    Blend: AUG-CC-PVTZ-RI
    Molecular point group: c1

    Geometry (in Angstrom), charge = 0, multiplicity = 1:

       Center              X                  Y                   Z               Mass
    ------------   -----------------  -----------------  -----------------  -----------------
         O           -0.117032232580     2.059540068989    -0.904316667568    15.994914619570
         O           -2.385800232580    -1.378356931011    -0.112705667568    15.994914619570
         N            2.501415167420    -1.241985831011     0.111402532432    14.003074004430
         C            1.302071767420    -0.483784931011    -0.270113667568    12.000000000000
         C            1.244621767420     0.739831068989     0.639221332432    12.000000000000
         C            0.056926767420    -1.341845931011    -0.067712667568    12.000000000000
         C           -0.037501232580     1.543892068989     0.434097332432    12.000000000000
         C           -1.228837232580    -0.554079931011    -0.292938667568    12.000000000000
         C           -1.273300232580     0.672983068989     0.612251332432    12.000000000000
         H            1.309230767420    -0.132032931011    -1.314978667568     1.007825032230
         H            1.310635767420     0.400872068989     1.681113332432     1.007825032230
         H            2.118161767420     1.385513068989     0.462258332432     1.007825032230
         H            0.069723767420    -2.210924931011    -0.737603667568     1.007825032230
         H            0.074572767420    -1.726179931011     0.963127332432     1.007825032230
         H           -0.069472232580     2.375881068989     1.155124332432     1.007825032230
         H           -1.285677232580    -0.228251931011    -1.335426667568     1.007825032230
         H           -1.326112232580     0.342109068989     1.659678332432     1.007825032230
         H           -2.174044232580     1.257396068989     0.400275332432     1.007825032230
         H            3.328569767420    -0.726858931011    -0.117845667568     1.007825032230
         H            2.541404767420    -2.085836931011    -0.544936667568     1.007825032230
         H            0.661121767420     2.628077068989    -1.041652667568     1.007825032230
         H           -2.353704232580    -1.704232931011     0.804501332432     1.007825032230

  Basis Set: AUG-CC-PVTZ
    Blend: AUG-CC-PVTZ
  Basis Set: (AUG-CC-PVTZ AUX)
    Blend: AUG-CC-PVTZ-JKFIT
	 Reference Energy          =    -439.1055497080571968 [Eh]
	 Singles Energy            =      -0.0000000000000000 [Eh]
	 Same-Spin Energy          =      -0.4517908849147823 [Eh]
	 Opposite-Spin Energy      =      -1.4741060007377871 [Eh]
	 Correlation Energy        =      -1.9258968856525693 [Eh]
	 Total Energy              =    -441.0314465937097452 [Eh]

	 ================> DF-SCS-MP2 Energies <==================
	-----------------------------------------------------------
	 SCS Same-Spin Scale       =       0.3333333333333333 [-]
	 SCS Opposite-Spin Scale   =       1.2000000000000000 [-]
	 SCS Same-Spin Energy      =      -0.1505969616382608 [Eh]
	 SCS Opposite-Spin Energy  =      -1.7689272008853445 [Eh]
	 SCS Correlation Energy    =      -1.9195241625236052 [Eh]
	 SCS Total Energy          =    -441.0250738705807976 [Eh]
	-----------------------------------------------------------

  Dipole Moment: [D]
     X:     2.5190      Y:     1.0896      Z:     0.6911     Total:     2.8303

*** Psi4 exiting successfully. Buy a developer a beer!
