                               Psi4 1.4a3.dev225

  ==> Input File <==

--------------------------------------------------------------------------
#psi4
#
memory 32 gb

molecule  {
0 1
  O       -0.1447520     2.0657680    -0.9147710
  O       -2.4135200    -1.3721290    -0.1231600
  N        2.4623060    -1.2702550     0.0647480
  C        1.2743520    -0.4775570    -0.2805680
  C        1.2169020     0.7460590     0.6287670
  C        0.0292070    -1.3356180    -0.0781670
  C       -0.0652210     1.5501200     0.4236430
  C       -1.2565570    -0.5478520    -0.3033930
  C       -1.3010200     0.6792110     0.6017970
  H        1.2815110    -0.1258050    -1.3254330
  H        1.2829160     0.4071000     1.6706590
  H        2.0904420     1.3917410     0.4518040
  H        0.0420040    -2.2046970    -0.7480580
  H        0.0468530    -1.7199520     0.9526730
  H       -0.0971920     2.3821090     1.1446700
  H       -1.3133970    -0.2220240    -1.3458810
  H       -1.3538320     0.3483370     1.6492240
  H       -2.2017640     1.2636240     0.3898210
  H        3.2844246    -0.7313970    -0.1245186
  H        2.5136850    -2.0796090    -0.5553910
  H        0.6334020     2.6343050    -1.0521070
  H       -2.3814240    -1.6980050     0.7940470
units angstrom
no_reorient  #important for SAPT in psi4, default
symmetry c1  #important for SAPT in psi4, default
}

set PROPERTIES_ORIGIN ["COM"]
properties('MP2/aug-cc-pvtz', properties = ['dipole'])
--------------------------------------------------------------------------

    Molecular point group: c1
  Charge       = 0
  Multiplicity = 1
  Basis Set: AUG-CC-PVTZ
    Blend: AUG-CC-PVTZ
  Basis Set: (AUG-CC-PVTZ AUX)
    Blend: AUG-CC-PVTZ-JKFIT

    Orbital Energies [Eh]
    ---------------------

    Doubly Occupied:

       1A    -20.561890     2A    -20.551593     3A    -15.543745
       4A    -11.285945     5A    -11.271862     6A    -11.256447
       7A    -11.225865     8A    -11.219846     9A    -11.217568
      10A     -1.362668    11A     -1.350055    12A     -1.194436
      13A     -1.088040    14A     -0.996094    15A     -0.986667
      16A     -0.840412    17A     -0.823686    18A     -0.769635
      19A     -0.696452    20A     -0.678150    21A     -0.656757
      22A     -0.641608    23A     -0.626696    24A     -0.611867
      25A     -0.592341    26A     -0.563923    27A     -0.548981
      28A     -0.530403    29A     -0.526792    30A     -0.499883
      31A     -0.490389    32A     -0.475854    33A     -0.453633
      34A     -0.444236    35A     -0.420372    36A     -0.395635

  @DF-RHF Final Energy:  -439.10985401839872

   => Energetics <=

    Nuclear Repulsion Energy =            506.9939411491351962
    One-Electron Energy =               -1605.4067455006459113
    Two-Electron Energy =                 659.3029503331119940
    Total Energy =                       -439.1098540183986643
  Basis Set: (AUG-CC-PVTZ AUX)
    Blend: AUG-CC-PVTZ-RI
    Molecular point group: c1

    Geometry (in Angstrom), charge = 0, multiplicity = 1:

       Center              X                  Y                   Z               Mass
    ------------   -----------------  -----------------  -----------------  -----------------
         O           -0.115689381678     2.063307696188    -0.900478958159    15.994914619570
         O           -2.384457381678    -1.374589303812    -0.108867958159    15.994914619570
         N            2.491368618322    -1.272715303812     0.079040041841    14.003074004430
         C            1.303414618322    -0.480017303812    -0.266275958159    12.000000000000
         C            1.245964618322     0.743598696188     0.643059041841    12.000000000000
         C            0.058269618322    -1.338078303812    -0.063874958159    12.000000000000
         C           -0.036158381678     1.547659696188     0.437935041841    12.000000000000
         C           -1.227494381678    -0.550312303812    -0.289100958159    12.000000000000
         C           -1.271957381678     0.676750696188     0.616089041841    12.000000000000
         H            1.310573618322    -0.128265303812    -1.311140958159     1.007825032230
         H            1.311978618322     0.404639696188     1.684951041841     1.007825032230
         H            2.119504618322     1.389280696188     0.466096041841     1.007825032230
         H            0.071066618322    -2.207157303812    -0.733765958159     1.007825032230
         H            0.075915618322    -1.722412303812     0.966965041841     1.007825032230
         H           -0.068129381678     2.379648696188     1.158962041841     1.007825032230
         H           -1.284334381678    -0.224484303812    -1.331588958159     1.007825032230
         H           -1.324769381678     0.345876696188     1.663516041841     1.007825032230
         H           -2.172701381678     1.261163696188     0.404113041841     1.007825032230
         H            3.313487218322    -0.733857303812    -0.110226558159     1.007825032230
         H            2.542747618322    -2.082069303812    -0.541098958159     1.007825032230
         H            0.662464618322     2.631844696188    -1.037814958159     1.007825032230
         H           -2.352361381678    -1.700465303812     0.808339041841     1.007825032230

  Basis Set: AUG-CC-PVTZ
    Blend: AUG-CC-PVTZ
  Basis Set: (AUG-CC-PVTZ AUX)
    Blend: AUG-CC-PVTZ-JKFIT
	 Reference Energy          =    -439.1098540183987211 [Eh]
	 Singles Energy            =      -0.0000000000000000 [Eh]
	 Same-Spin Energy          =      -0.4514094953343867 [Eh]
	 Opposite-Spin Energy      =      -1.4729258532188367 [Eh]
	 Correlation Energy        =      -1.9243353485532235 [Eh]
	 Total Energy              =    -441.0341893669519209 [Eh]

	 ================> DF-SCS-MP2 Energies <==================
	-----------------------------------------------------------
	 SCS Same-Spin Scale       =       0.3333333333333333 [-]
	 SCS Opposite-Spin Scale   =       1.2000000000000000 [-]
	 SCS Same-Spin Energy      =      -0.1504698317781289 [Eh]
	 SCS Opposite-Spin Energy  =      -1.7675110238626039 [Eh]
	 SCS Correlation Energy    =      -1.9179808556407330 [Eh]
	 SCS Total Energy          =    -441.0278348740394563 [Eh]
	-----------------------------------------------------------

  Dipole Moment: [D]
     X:     2.5395      Y:     1.1250      Z:     0.7439     Total:     2.8754

*** Psi4 exiting successfully. Buy a developer a beer!
