                               Psi4 1.4a3.dev225

  ==> Input File <==

--------------------------------------------------------------------------
#psi4
#
memory 32 gb

molecule  {
0 1
  O       -0.1447520     2.0657680    -0.9147710
  O       -2.4135200    -1.3721290    -0.1231600
  N        2.4623060    -1.2702550     0.0647480
  C        1.2743520    -0.4775570    -0.2805680
  C        1.2169020     0.7460590     0.6287670
  C        0.0292070    -1.3356180    -0.0781670
  C       -0.0652210     1.5501200     0.4236430
  C       -1.2565570    -0.5478520    -0.3033930
  C       -1.3010200     0.6792110     0.6017970
  H        1.2815110    -0.1258050    -1.3254330
  H        1.2829160     0.4071000     1.6706590
  H        2.0904420     1.3917410     0.4518040
  H        0.0425871    -2.2442953    -0.7785806
  H        0.0468530    -1.7199520     0.9526730
  H       -0.0971920     2.3821090     1.1446700
  H       -1.3133970    -0.2220240    -1.3458810
  H       -1.3538320     0.3483370     1.6492240
  H       -2.2017640     1.2636240     0.3898210
  H        3.3008500    -0.7206310    -0.1283000
  H        2.5136850    -2.0796090    -0.5553910
  H        0.6334020     2.6343050    -1.0521070
  H       -2.3814240    -1.6980050     0.7940470
units angstrom
no_reorient  #important for SAPT in psi4, default
symmetry c1  #important for SAPT in psi4, default
}

set PROPERTIES_ORIGIN ["COM"]
properties('MP2/aug-cc-pvtz', properties = ['dipole'])
--------------------------------------------------------------------------

    Molecular point group: c1
  Charge       = 0
  Multiplicity = 1
  Basis Set: AUG-CC-PVTZ
    Blend: AUG-CC-PVTZ
  Basis Set: (AUG-CC-PVTZ AUX)
    Blend: AUG-CC-PVTZ-JKFIT

    Orbital Energies [Eh]
    ---------------------

    Doubly Occupied:

       1A    -20.562142     2A    -20.551690     3A    -15.546019
       4A    -11.286272     5A    -11.272446     6A    -11.256962
       7A    -11.226285     8A    -11.223696     9A    -11.220375
      10A     -1.362927    11A     -1.350161    12A     -1.192287
      13A     -1.087499    14A     -0.994672    15A     -0.985831
      16A     -0.838980    17A     -0.822962    18A     -0.769620
      19A     -0.696072    20A     -0.678067    21A     -0.654723
      22A     -0.638145    23A     -0.625779    24A     -0.611908
      25A     -0.592175    26A     -0.562880    27A     -0.547481
      28A     -0.530282    29A     -0.526572    30A     -0.499584
      31A     -0.488635    32A     -0.475785    33A     -0.453835
      34A     -0.444188    35A     -0.420079    36A     -0.395475

  @DF-RHF Final Energy:  -439.10732971691561

   => Energetics <=

    Nuclear Repulsion Energy =            506.6218669581047607
    One-Electron Energy =               -1604.6734169004064370
    Two-Electron Energy =                 658.9442202253861751
    Total Energy =                       -439.1073297169156149
  Basis Set: (AUG-CC-PVTZ AUX)
    Blend: AUG-CC-PVTZ-RI
    Molecular point group: c1

    Geometry (in Angstrom), charge = 0, multiplicity = 1:

       Center              X                  Y                   Z               Mass
    ------------   -----------------  -----------------  -----------------  -----------------
         O           -0.115820139072     2.063529352208    -0.900215236981    15.994914619570
         O           -2.384588139072    -1.374367647792    -0.108604236981    15.994914619570
         N            2.491237860928    -1.272493647792     0.079303763019    14.003074004430
         C            1.303283860928    -0.479795647792    -0.266012236981    12.000000000000
         C            1.245833860928     0.743820352208     0.643322763019    12.000000000000
         C            0.058138860928    -1.337856647792    -0.063611236981    12.000000000000
         C           -0.036289139072     1.547881352208     0.438198763019    12.000000000000
         C           -1.227625139072    -0.550090647792    -0.288837236981    12.000000000000
         C           -1.272088139072     0.676972352208     0.616352763019    12.000000000000
         H            1.310442860928    -0.128043647792    -1.310877236981     1.007825032230
         H            1.311847860928     0.404861352208     1.685214763019     1.007825032230
         H            2.119373860928     1.389502352208     0.466359763019     1.007825032230
         H            0.071518960928    -2.246533947792    -0.764024836981     1.007825032230
         H            0.075784860928    -1.722190647792     0.967228763019     1.007825032230
         H           -0.068260139072     2.379870352208     1.159225763019     1.007825032230
         H           -1.284465139072    -0.224262647792    -1.331325236981     1.007825032230
         H           -1.324900139072     0.346098352208     1.663779763019     1.007825032230
         H           -2.172832139072     1.261385352208     0.404376763019     1.007825032230
         H            3.329781860928    -0.722869647792    -0.113744236981     1.007825032230
         H            2.542616860928    -2.081847647792    -0.540835236981     1.007825032230
         H            0.662333860928     2.632066352208    -1.037551236981     1.007825032230
         H           -2.352492139072    -1.700243647792     0.808602763019     1.007825032230

  Basis Set: AUG-CC-PVTZ
    Blend: AUG-CC-PVTZ
  Basis Set: (AUG-CC-PVTZ AUX)
    Blend: AUG-CC-PVTZ-JKFIT
	 Reference Energy          =    -439.1073297169156149 [Eh]
	 Singles Energy            =      -0.0000000000000000 [Eh]
	 Same-Spin Energy          =      -0.4515589264209999 [Eh]
	 Opposite-Spin Energy      =      -1.4736535746365789 [Eh]
	 Correlation Energy        =      -1.9252125010575787 [Eh]
	 Total Energy              =    -441.0325422179731731 [Eh]

	 ================> DF-SCS-MP2 Energies <==================
	-----------------------------------------------------------
	 SCS Same-Spin Scale       =       0.3333333333333333 [-]
	 SCS Opposite-Spin Scale   =       1.2000000000000000 [-]
	 SCS Same-Spin Energy      =      -0.1505196421403333 [Eh]
	 SCS Opposite-Spin Energy  =      -1.7683842895638946 [Eh]
	 SCS Correlation Energy    =      -1.9189039317042278 [Eh]
	 SCS Total Energy          =    -441.0262336486198365 [Eh]
	-----------------------------------------------------------

  Dipole Moment: [D]
     X:     2.5328      Y:     1.1641      Z:     0.7620     Total:     2.8898

*** Psi4 exiting successfully. Buy a developer a beer!
