                               Psi4 1.4a3.dev225

  ==> Input File <==

--------------------------------------------------------------------------
#psi4
#
memory 32 gb

molecule  {
0 1
  O       -0.1447520     2.0657680    -0.9147710
  O       -2.4135200    -1.3721290    -0.1231600
  N        2.4623060    -1.2702550     0.0647480
  C        1.2743520    -0.4775570    -0.2805680
  C        1.2169020     0.7460590     0.6287670
  C        0.0292070    -1.3356180    -0.0781670
  C       -0.0652210     1.5501200     0.4236430
  C       -1.2709633    -0.5394491    -0.3505104
  C       -1.3010200     0.6792110     0.6017970
  H        1.2815110    -0.1258050    -1.3254330
  H        1.2829160     0.4071000     1.6706590
  H        2.0904420     1.3917410     0.4518040
  H        0.0420040    -2.2046970    -0.7480580
  H        0.0468530    -1.7199520     0.9526730
  H       -0.0971920     2.3821090     1.1446700
  H       -1.3133970    -0.2220240    -1.3458810
  H       -1.3538320     0.3483370     1.6492240
  H       -2.2017640     1.2636240     0.3898210
  H        3.3008500    -0.7206310    -0.1283000
  H        2.5136850    -2.0796090    -0.5553910
  H        0.6334020     2.6343050    -1.0521070
  H       -2.3814240    -1.6980050     0.7940470
units angstrom
no_reorient  #important for SAPT in psi4, default
symmetry c1  #important for SAPT in psi4, default
}

set PROPERTIES_ORIGIN ["COM"]
properties('MP2/aug-cc-pvtz', properties = ['dipole'])
--------------------------------------------------------------------------

    Molecular point group: c1
  Charge       = 0
  Multiplicity = 1
  Basis Set: AUG-CC-PVTZ
    Blend: AUG-CC-PVTZ
  Basis Set: (AUG-CC-PVTZ AUX)
    Blend: AUG-CC-PVTZ-JKFIT

    Orbital Energies [Eh]
    ---------------------

    Doubly Occupied:

       1A    -20.561972     2A    -20.550140     3A    -15.545569
       4A    -11.285178     5A    -11.271409     6A    -11.255684
       7A    -11.225270     8A    -11.220018     9A    -11.217955
      10A     -1.362571    11A     -1.348299    12A     -1.191565
      13A     -1.084248    14A     -0.993700    15A     -0.983895
      16A     -0.843553    17A     -0.822464    18A     -0.770948
      19A     -0.695606    20A     -0.676983    21A     -0.653629
      22A     -0.639960    23A     -0.625242    24A     -0.616504
      25A     -0.591951    26A     -0.563739    27A     -0.546195
      28A     -0.527081    29A     -0.526417    30A     -0.502039
      31A     -0.490528    32A     -0.482003    33A     -0.452717
      34A     -0.443669    35A     -0.414350    36A     -0.394326

  @DF-RHF Final Energy:  -439.10733700632898

   => Energetics <=

    Nuclear Repulsion Energy =            506.4189218356532365
    One-Electron Energy =               -1604.2977620653225586
    Two-Electron Energy =                 658.7715032233403463
    Total Energy =                       -439.1073370063289758
  Basis Set: (AUG-CC-PVTZ AUX)
    Blend: AUG-CC-PVTZ-RI
    Molecular point group: c1

    Geometry (in Angstrom), charge = 0, multiplicity = 1:

       Center              X                  Y                   Z               Mass
    ------------   -----------------  -----------------  -----------------  -----------------
         O           -0.114496947843     2.062455754003    -0.896136905434    15.994914619570
         O           -2.383264947843    -1.375441245997    -0.104525905434    15.994914619570
         N            2.492561052157    -1.273567245997     0.083382094566    14.003074004430
         C            1.304607052157    -0.480869245997    -0.261933905434    12.000000000000
         C            1.247157052157     0.742746754003     0.647401094566    12.000000000000
         C            0.059462052157    -1.338930245997    -0.059532905434    12.000000000000
         C           -0.034965947843     1.546807754003     0.442277094566    12.000000000000
         C           -1.240708247843    -0.542761345997    -0.331876305434    12.000000000000
         C           -1.270764947843     0.675898754003     0.620431094566    12.000000000000
         H            1.311766052157    -0.129117245997    -1.306798905434     1.007825032230
         H            1.313171052157     0.403787754003     1.689293094566     1.007825032230
         H            2.120697052157     1.388428754003     0.470438094566     1.007825032230
         H            0.072259052157    -2.208009245997    -0.729423905434     1.007825032230
         H            0.077108052157    -1.723264245997     0.971307094566     1.007825032230
         H           -0.066936947843     2.378796754003     1.163304094566     1.007825032230
         H           -1.283141947843    -0.225336245997    -1.327246905434     1.007825032230
         H           -1.323576947843     0.345024754003     1.667858094566     1.007825032230
         H           -2.171508947843     1.260311754003     0.408455094566     1.007825032230
         H            3.331105052157    -0.723943245997    -0.109665905434     1.007825032230
         H            2.543940052157    -2.082921245997    -0.536756905434     1.007825032230
         H            0.663657052157     2.630992754003    -1.033472905434     1.007825032230
         H           -2.351168947843    -1.701317245997     0.812681094566     1.007825032230

  Basis Set: AUG-CC-PVTZ
    Blend: AUG-CC-PVTZ
  Basis Set: (AUG-CC-PVTZ AUX)
    Blend: AUG-CC-PVTZ-JKFIT
	 Reference Energy          =    -439.1073370063289758 [Eh]
	 Singles Energy            =      -0.0000000000000000 [Eh]
	 Same-Spin Energy          =      -0.4511245928709445 [Eh]
	 Opposite-Spin Energy      =      -1.4728295965646558 [Eh]
	 Correlation Energy        =      -1.9239541894356003 [Eh]
	 Total Energy              =    -441.0312911957645952 [Eh]

	 ================> DF-SCS-MP2 Energies <==================
	-----------------------------------------------------------
	 SCS Same-Spin Scale       =       0.3333333333333333 [-]
	 SCS Opposite-Spin Scale   =       1.2000000000000000 [-]
	 SCS Same-Spin Energy      =      -0.1503748642903148 [Eh]
	 SCS Opposite-Spin Energy  =      -1.7673955158775869 [Eh]
	 SCS Correlation Energy    =      -1.9177703801679018 [Eh]
	 SCS Total Energy          =    -441.0251073864968703 [Eh]
	-----------------------------------------------------------

  Dipole Moment: [D]
     X:     2.5044      Y:     1.1282      Z:     0.7036     Total:     2.8354

*** Psi4 exiting successfully. Buy a developer a beer!
