                               Psi4 1.4a3.dev225

  ==> Input File <==

--------------------------------------------------------------------------
#psi4
#
memory 32 gb

molecule  {
0 1
  O       -0.1447520     2.0657680    -0.9147710
  O       -2.4135200    -1.3721290    -0.1231600
  N        2.4623060    -1.2702550     0.0647480
  C        1.2743520    -0.4775570    -0.2805680
  C        1.2169020     0.7460590     0.6287670
  C        0.0292070    -1.3356180    -0.0781670
  C       -0.0652210     1.5501200     0.4236430
  C       -1.2565570    -0.5478520    -0.3033930
  C       -1.3010200     0.6792110     0.6017970
  H        1.2808617    -0.1577097    -1.2306613
  H        1.2829160     0.4071000     1.6706590
  H        2.0904420     1.3917410     0.4518040
  H        0.0420040    -2.2046970    -0.7480580
  H        0.0468530    -1.7199520     0.9526730
  H       -0.0971920     2.3821090     1.1446700
  H       -1.3133970    -0.2220240    -1.3458810
  H       -1.3538320     0.3483370     1.6492240
  H       -2.2017640     1.2636240     0.3898210
  H        3.3008500    -0.7206310    -0.1283000
  H        2.5136850    -2.0796090    -0.5553910
  H        0.6334020     2.6343050    -1.0521070
  H       -2.3814240    -1.6980050     0.7940470
units angstrom
no_reorient  #important for SAPT in psi4, default
symmetry c1  #important for SAPT in psi4, default
}

set PROPERTIES_ORIGIN ["COM"]
properties('MP2/aug-cc-pvtz', properties = ['dipole'])
--------------------------------------------------------------------------

    Molecular point group: c1
  Charge       = 0
  Multiplicity = 1
  Basis Set: AUG-CC-PVTZ
    Blend: AUG-CC-PVTZ
  Basis Set: (AUG-CC-PVTZ AUX)
    Blend: AUG-CC-PVTZ-JKFIT

    Orbital Energies [Eh]
    ---------------------

    Doubly Occupied:

       1A    -20.562476     2A    -20.551547     3A    -15.544783
       4A    -11.285874     5A    -11.271944     6A    -11.243884
       7A    -11.224899     8A    -11.219814     9A    -11.216777
      10A     -1.363130    11A     -1.350036    12A     -1.193495
      13A     -1.087324    14A     -0.995807    15A     -0.987782
      16A     -0.840218    17A     -0.830193    18A     -0.775614
      19A     -0.697312    20A     -0.682475    21A     -0.655050
      22A     -0.642863    23A     -0.625649    24A     -0.611661
      25A     -0.594076    26A     -0.564111    27A     -0.548972
      28A     -0.530192    29A     -0.526903    30A     -0.501104
      31A     -0.492111    32A     -0.475687    33A     -0.453508
      34A     -0.443743    35A     -0.420503    36A     -0.398625

  @DF-RHF Final Energy:  -439.10443948787150

   => Energetics <=

    Nuclear Repulsion Energy =            507.4206557563803699
    One-Electron Energy =               -1606.2299011826451078
    Two-Electron Energy =                 659.7048059383930649
    Total Energy =                       -439.1044394878715593
  Basis Set: (AUG-CC-PVTZ AUX)
    Blend: AUG-CC-PVTZ-RI
    Molecular point group: c1

    Geometry (in Angstrom), charge = 0, multiplicity = 1:

       Center              X                  Y                   Z               Mass
    ------------   -----------------  -----------------  -----------------  -----------------
         O           -0.115810664667     2.063470205600    -0.901178470434    15.994914619570
         O           -2.384578664667    -1.374426794400    -0.109567470434    15.994914619570
         N            2.491247335333    -1.272552794400     0.078340529566    14.003074004430
         C            1.303293335333    -0.479854794400    -0.266975470434    12.000000000000
         C            1.245843335333     0.743761205600     0.642359529566    12.000000000000
         C            0.058148335333    -1.337915794400    -0.064574470434    12.000000000000
         C           -0.036279664667     1.547822205600     0.437235529566    12.000000000000
         C           -1.227615664667    -0.550149794400    -0.289800470434    12.000000000000
         C           -1.272078664667     0.676913205600     0.615389529566    12.000000000000
         H            1.309803035333    -0.160007494400    -1.217068770434     1.007825032230
         H            1.311857335333     0.404802205600     1.684251529566     1.007825032230
         H            2.119383335333     1.389443205600     0.465396529566     1.007825032230
         H            0.070945335333    -2.206994794400    -0.734465470434     1.007825032230
         H            0.075794335333    -1.722249794400     0.966265529566     1.007825032230
         H           -0.068250664667     2.379811205600     1.158262529566     1.007825032230
         H           -1.284455664667    -0.224321794400    -1.332288470434     1.007825032230
         H           -1.324890664667     0.346039205600     1.662816529566     1.007825032230
         H           -2.172822664667     1.261326205600     0.403413529566     1.007825032230
         H            3.329791335333    -0.722928794400    -0.114707470434     1.007825032230
         H            2.542626335333    -2.081906794400    -0.541798470434     1.007825032230
         H            0.662343335333     2.632007205600    -1.038514470434     1.007825032230
         H           -2.352482664667    -1.700302794400     0.807639529566     1.007825032230

  Basis Set: AUG-CC-PVTZ
    Blend: AUG-CC-PVTZ
  Basis Set: (AUG-CC-PVTZ AUX)
    Blend: AUG-CC-PVTZ-JKFIT
	 Reference Energy          =    -439.1044394878715025 [Eh]
	 Singles Energy            =      -0.0000000000000000 [Eh]
	 Same-Spin Energy          =      -0.4513884625687744 [Eh]
	 Opposite-Spin Energy      =      -1.4726508328956389 [Eh]
	 Correlation Energy        =      -1.9240392954644132 [Eh]
	 Total Energy              =    -441.0284787833359132 [Eh]

	 ================> DF-SCS-MP2 Energies <==================
	-----------------------------------------------------------
	 SCS Same-Spin Scale       =       0.3333333333333333 [-]
	 SCS Opposite-Spin Scale   =       1.2000000000000000 [-]
	 SCS Same-Spin Energy      =      -0.1504628208562581 [Eh]
	 SCS Opposite-Spin Energy  =      -1.7671809994747667 [Eh]
	 SCS Correlation Energy    =      -1.9176438203310249 [Eh]
	 SCS Total Energy          =    -441.0220833082025251 [Eh]
	-----------------------------------------------------------

  Dipole Moment: [D]
     X:     2.5194      Y:     1.1569      Z:     0.6904     Total:     2.8570

*** Psi4 exiting successfully. Buy a developer a beer!
