                               Psi4 1.4a3.dev225

  ==> Input File <==

--------------------------------------------------------------------------
#psi4
#
memory 32 gb

molecule  {
0 1
  O       -0.1447520     2.0657680    -0.9147710
  O       -2.4135200    -1.3721290    -0.1231600
  N        2.4623060    -1.2702550     0.0647480
  C        1.2743520    -0.4775570    -0.2805680
  C        1.2311824     0.7680516     0.6239842
  C        0.0292070    -1.3356180    -0.0781670
  C       -0.0652210     1.5501200     0.4236430
  C       -1.2565570    -0.5478520    -0.3033930
  C       -1.3010200     0.6792110     0.6017970
  H        1.2815110    -0.1258050    -1.3254330
  H        1.2829160     0.4071000     1.6706590
  H        2.0904420     1.3917410     0.4518040
  H        0.0420040    -2.2046970    -0.7480580
  H        0.0468530    -1.7199520     0.9526730
  H       -0.0971920     2.3821090     1.1446700
  H       -1.3133970    -0.2220240    -1.3458810
  H       -1.3538320     0.3483370     1.6492240
  H       -2.2017640     1.2636240     0.3898210
  H        3.3008500    -0.7206310    -0.1283000
  H        2.5136850    -2.0796090    -0.5553910
  H        0.6334020     2.6343050    -1.0521070
  H       -2.3814240    -1.6980050     0.7940470
units angstrom
no_reorient  #important for SAPT in psi4, default
symmetry c1  #important for SAPT in psi4, default
}

set PROPERTIES_ORIGIN ["COM"]
properties('MP2/aug-cc-pvtz', properties = ['dipole'])
--------------------------------------------------------------------------

    Molecular point group: c1
  Charge       = 0
  Multiplicity = 1
  Basis Set: AUG-CC-PVTZ
    Blend: AUG-CC-PVTZ
  Basis Set: (AUG-CC-PVTZ AUX)
    Blend: AUG-CC-PVTZ-JKFIT

    Orbital Energies [Eh]
    ---------------------

    Doubly Occupied:

       1A    -20.561362     2A    -20.551646     3A    -15.545883
       4A    -11.285802     5A    -11.271924     6A    -11.257049
       7A    -11.225170     8A    -11.220289     9A    -11.217880
      10A     -1.362459    11A     -1.350106    12A     -1.191399
      13A     -1.086368    14A     -0.996549    15A     -0.985185
      16A     -0.840768    17A     -0.823046    18A     -0.769208
      19A     -0.695691    20A     -0.676923    21A     -0.654202
      22A     -0.644299    23A     -0.626222    24A     -0.611303
      25A     -0.591903    26A     -0.562826    27A     -0.547755
      28A     -0.532592    29A     -0.526191    30A     -0.499647
      31A     -0.488311    32A     -0.476259    33A     -0.455134
      34A     -0.444350    35A     -0.419861    36A     -0.394204

  @DF-RHF Final Energy:  -439.10893500651190

   => Energetics <=

    Nuclear Repulsion Energy =            506.5787560523574484
    One-Electron Energy =               -1604.5958509868094097
    Two-Electron Energy =                 658.9081599279401189
    Total Energy =                       -439.1089350065118424
  Basis Set: (AUG-CC-PVTZ AUX)
    Blend: AUG-CC-PVTZ-RI
    Molecular point group: c1

    Geometry (in Angstrom), charge = 0, multiplicity = 1:

       Center              X                  Y                   Z               Mass
    ------------   -----------------  -----------------  -----------------  -----------------
         O           -0.117122840327     2.061211794570    -0.900012084800    15.994914619570
         O           -2.385890840327    -1.376685205430    -0.108401084800    15.994914619570
         N            2.489935159673    -1.274811205430     0.079506915200    14.003074004430
         C            1.301981159673    -0.482113205430    -0.265809084800    12.000000000000
         C            1.258811559673     0.763495394570     0.638743115200    12.000000000000
         C            0.056836159673    -1.340174205430    -0.063408084800    12.000000000000
         C           -0.037591840327     1.545563794570     0.438401915200    12.000000000000
         C           -1.228927840327    -0.552408205430    -0.288634084800    12.000000000000
         C           -1.273390840327     0.674654794570     0.616555915200    12.000000000000
         H            1.309140159673    -0.130361205430    -1.310674084800     1.007825032230
         H            1.310545159673     0.402543794570     1.685417915200     1.007825032230
         H            2.118071159673     1.387184794570     0.466562915200     1.007825032230
         H            0.069633159673    -2.209253205430    -0.733299084800     1.007825032230
         H            0.074482159673    -1.724508205430     0.967431915200     1.007825032230
         H           -0.069562840327     2.377552794570     1.159428915200     1.007825032230
         H           -1.285767840327    -0.226580205430    -1.331122084800     1.007825032230
         H           -1.326202840327     0.343780794570     1.663982915200     1.007825032230
         H           -2.174134840327     1.259067794570     0.404579915200     1.007825032230
         H            3.328479159673    -0.725187205430    -0.113541084800     1.007825032230
         H            2.541314159673    -2.084165205430    -0.540632084800     1.007825032230
         H            0.661031159673     2.629748794570    -1.037348084800     1.007825032230
         H           -2.353794840327    -1.702561205430     0.808805915200     1.007825032230

  Basis Set: AUG-CC-PVTZ
    Blend: AUG-CC-PVTZ
  Basis Set: (AUG-CC-PVTZ AUX)
    Blend: AUG-CC-PVTZ-JKFIT
	 Reference Energy          =    -439.1089350065118992 [Eh]
	 Singles Energy            =      -0.0000000000000000 [Eh]
	 Same-Spin Energy          =      -0.4513897869642698 [Eh]
	 Opposite-Spin Energy      =      -1.4731861943731563 [Eh]
	 Correlation Energy        =      -1.9245759813374261 [Eh]
	 Total Energy              =    -441.0335109878492972 [Eh]

	 ================> DF-SCS-MP2 Energies <==================
	-----------------------------------------------------------
	 SCS Same-Spin Scale       =       0.3333333333333333 [-]
	 SCS Opposite-Spin Scale   =       1.2000000000000000 [-]
	 SCS Same-Spin Energy      =      -0.1504632623214233 [Eh]
	 SCS Opposite-Spin Energy  =      -1.7678234332477876 [Eh]
	 SCS Correlation Energy    =      -1.9182866955692108 [Eh]
	 SCS Total Energy          =    -441.0272217020811354 [Eh]
	-----------------------------------------------------------

  Dipole Moment: [D]
     X:     2.5452      Y:     1.1312      Z:     0.7383     Total:     2.8815

*** Psi4 exiting successfully. Buy a developer a beer!
