                               Psi4 1.4a3.dev225

  ==> Input File <==

--------------------------------------------------------------------------
#psi4
#
memory 32 gb

molecule  {
0 1
  O       -0.1447520     2.0657680    -0.9147710
  O       -2.4135200    -1.3721290    -0.1231600
  N        2.4623060    -1.2702550     0.0647480
  C        1.2743520    -0.4775570    -0.2805680
  C        1.2187849     0.7059560     0.5989643
  C        0.0292070    -1.3356180    -0.0781670
  C       -0.0652210     1.5501200     0.4236430
  C       -1.2565570    -0.5478520    -0.3033930
  C       -1.3010200     0.6792110     0.6017970
  H        1.2815110    -0.1258050    -1.3254330
  H        1.2829160     0.4071000     1.6706590
  H        2.0904420     1.3917410     0.4518040
  H        0.0420040    -2.2046970    -0.7480580
  H        0.0468530    -1.7199520     0.9526730
  H       -0.0971920     2.3821090     1.1446700
  H       -1.3133970    -0.2220240    -1.3458810
  H       -1.3538320     0.3483370     1.6492240
  H       -2.2017640     1.2636240     0.3898210
  H        3.3008500    -0.7206310    -0.1283000
  H        2.5136850    -2.0796090    -0.5553910
  H        0.6334020     2.6343050    -1.0521070
  H       -2.3814240    -1.6980050     0.7940470
units angstrom
no_reorient  #important for SAPT in psi4, default
symmetry c1  #important for SAPT in psi4, default
}

set PROPERTIES_ORIGIN ["COM"]
properties('MP2/aug-cc-pvtz', properties = ['dipole'])
--------------------------------------------------------------------------

    Molecular point group: c1
  Charge       = 0
  Multiplicity = 1
  Basis Set: AUG-CC-PVTZ
    Blend: AUG-CC-PVTZ
  Basis Set: (AUG-CC-PVTZ AUX)
    Blend: AUG-CC-PVTZ-JKFIT

    Orbital Energies [Eh]
    ---------------------

    Doubly Occupied:

       1A    -20.561455     2A    -20.551828     3A    -15.546156
       4A    -11.287243     5A    -11.272172     6A    -11.254297
       7A    -11.227374     8A    -11.219577     9A    -11.218024
      10A     -1.362374    11A     -1.350252    12A     -1.195485
      13A     -1.087936    14A     -0.993859    15A     -0.989785
      16A     -0.841816    17A     -0.823267    18A     -0.769028
      19A     -0.696328    20A     -0.678425    21A     -0.655946
      22A     -0.641528    23A     -0.624810    24A     -0.611374
      25A     -0.591170    26A     -0.564856    27A     -0.550491
      28A     -0.529545    29A     -0.526184    30A     -0.498327
      31A     -0.491918    32A     -0.476768    33A     -0.448480
      34A     -0.445115    35A     -0.421017    36A     -0.397176

  @DF-RHF Final Energy:  -439.10644691119279

   => Energetics <=

    Nuclear Repulsion Energy =            507.4697434773805185
    One-Electron Energy =               -1606.3496133659511997
    Two-Electron Energy =                 659.7734229773778907
    Total Energy =                       -439.1064469111928474
  Basis Set: (AUG-CC-PVTZ AUX)
    Blend: AUG-CC-PVTZ-RI
    Molecular point group: c1

    Geometry (in Angstrom), charge = 0, multiplicity = 1:

       Center              X                  Y                   Z               Mass
    ------------   -----------------  -----------------  -----------------  -----------------
         O           -0.115988011222     2.066895835233    -0.897721839936    15.994914619570
         O           -2.384756011222    -1.371001164767    -0.106110839936    15.994914619570
         N            2.491069988778    -1.269127164767     0.081797160064    14.003074004430
         C            1.303115988778    -0.476429164767    -0.263518839936    12.000000000000
         C            1.247548888778     0.707083835233     0.616013460064    12.000000000000
         C            0.057970988778    -1.334490164767    -0.061117839936    12.000000000000
         C           -0.036457011222     1.551247835233     0.440692160064    12.000000000000
         C           -1.227793011222    -0.546724164767    -0.286343839936    12.000000000000
         C           -1.272256011222     0.680338835233     0.618846160064    12.000000000000
         H            1.310274988778    -0.124677164767    -1.308383839936     1.007825032230
         H            1.311679988778     0.408227835233     1.687708160064     1.007825032230
         H            2.119205988778     1.392868835233     0.468853160064     1.007825032230
         H            0.070767988778    -2.203569164767    -0.731008839936     1.007825032230
         H            0.075616988778    -1.718824164767     0.969722160064     1.007825032230
         H           -0.068428011222     2.383236835233     1.161719160064     1.007825032230
         H           -1.284633011222    -0.220896164767    -1.328831839936     1.007825032230
         H           -1.325068011222     0.349464835233     1.666273160064     1.007825032230
         H           -2.173000011222     1.264751835233     0.406870160064     1.007825032230
         H            3.329613988778    -0.719503164767    -0.111250839936     1.007825032230
         H            2.542448988778    -2.078481164767    -0.538341839936     1.007825032230
         H            0.662165988778     2.635432835233    -1.035057839936     1.007825032230
         H           -2.352660011222    -1.696877164767     0.811096160064     1.007825032230

  Basis Set: AUG-CC-PVTZ
    Blend: AUG-CC-PVTZ
  Basis Set: (AUG-CC-PVTZ AUX)
    Blend: AUG-CC-PVTZ-JKFIT
	 Reference Energy          =    -439.1064469111927906 [Eh]
	 Singles Energy            =      -0.0000000000000000 [Eh]
	 Same-Spin Energy          =      -0.4519068730031838 [Eh]
	 Opposite-Spin Energy      =      -1.4737589693570272 [Eh]
	 Correlation Energy        =      -1.9256658423602111 [Eh]
	 Total Energy              =    -441.0321127535530081 [Eh]

	 ================> DF-SCS-MP2 Energies <==================
	-----------------------------------------------------------
	 SCS Same-Spin Scale       =       0.3333333333333333 [-]
	 SCS Opposite-Spin Scale   =       1.2000000000000000 [-]
	 SCS Same-Spin Energy      =      -0.1506356243343946 [Eh]
	 SCS Opposite-Spin Energy  =      -1.7685107632284327 [Eh]
	 SCS Correlation Energy    =      -1.9191463875628274 [Eh]
	 SCS Total Energy          =    -441.0255932987556093 [Eh]
	-----------------------------------------------------------

  Dipole Moment: [D]
     X:     2.5112      Y:     1.1302      Z:     0.7436     Total:     2.8525

*** Psi4 exiting successfully. Buy a developer a beer!
