                               Psi4 1.4a3.dev225

  ==> Input File <==

--------------------------------------------------------------------------
#psi4
#
memory 32 gb

molecule  {
0 1
  O       -0.1447520     2.0657680    -0.9147710
  O       -2.4135200    -1.3721290    -0.1231600
  N        2.4623060    -1.2702550     0.0647480
  C        1.2743520    -0.4775570    -0.2805680
  C        1.2169020     0.7460590     0.6287670
  C        0.0292070    -1.3356180    -0.0781670
  C       -0.0652210     1.5501200     0.4236430
  C       -1.2565570    -0.5478520    -0.3033930
  C       -1.3010200     0.6792110     0.6017970
  H        1.2815110    -0.1258050    -1.3254330
  H        1.2829160     0.4071000     1.6706590
  H        2.0904420     1.3917410     0.4518040
  H        0.0420040    -2.2046970    -0.7480580
  H        0.0468530    -1.7199520     0.9526730
  H       -0.0971920     2.3821090     1.1446700
  H       -1.3133970    -0.2220240    -1.3458810
  H       -1.3586343     0.3182497     1.7444694
  H       -2.2017640     1.2636240     0.3898210
  H        3.3008500    -0.7206310    -0.1283000
  H        2.5136850    -2.0796090    -0.5553910
  H        0.6334020     2.6343050    -1.0521070
  H       -2.3814240    -1.6980050     0.7940470
units angstrom
no_reorient  #important for SAPT in psi4, default
symmetry c1  #important for SAPT in psi4, default
}

set PROPERTIES_ORIGIN ["COM"]
properties('MP2/aug-cc-pvtz', properties = ['dipole'])
--------------------------------------------------------------------------

    Molecular point group: c1
  Charge       = 0
  Multiplicity = 1
  Basis Set: AUG-CC-PVTZ
    Blend: AUG-CC-PVTZ
  Basis Set: (AUG-CC-PVTZ AUX)
    Blend: AUG-CC-PVTZ-JKFIT

    Orbital Energies [Eh]
    ---------------------

    Doubly Occupied:

       1A    -20.562999     2A    -20.551654     3A    -15.546174
       4A    -11.287096     5A    -11.273288     6A    -11.256655
       7A    -11.232210     8A    -11.225899     9A    -11.217778
      10A     -1.363755    11A     -1.350200    12A     -1.192439
      13A     -1.086220    14A     -0.996435    15A     -0.983344
      16A     -0.841127    17A     -0.820785    18A     -0.765815
      19A     -0.695602    20A     -0.678281    21A     -0.654854
      22A     -0.642038    23A     -0.626310    24A     -0.610292
      25A     -0.590853    26A     -0.563653    27A     -0.549094
      28A     -0.529855    29A     -0.519321    30A     -0.497518
      31A     -0.490596    32A     -0.473915    33A     -0.454561
      34A     -0.443992    35A     -0.421186    36A     -0.395604

  @DF-RHF Final Energy:  -439.10312742407768

   => Energetics <=

    Nuclear Repulsion Energy =            506.3962810475345577
    One-Electron Energy =               -1604.2160225592895131
    Two-Electron Energy =                 658.7166140876772715
    Total Energy =                       -439.1031274240776838
  Basis Set: (AUG-CC-PVTZ AUX)
    Blend: AUG-CC-PVTZ-RI
    Molecular point group: c1

    Geometry (in Angstrom), charge = 0, multiplicity = 1:

       Center              X                  Y                   Z               Mass
    ------------   -----------------  -----------------  -----------------  -----------------
         O           -0.115778737369     2.063456233851    -0.901182112130    15.994914619570
         O           -2.384546737369    -1.374440766149    -0.109571112130    15.994914619570
         N            2.491279262631    -1.272566766149     0.078336887870    14.003074004430
         C            1.303325262631    -0.479868766149    -0.266979112130    12.000000000000
         C            1.245875262631     0.743747233851     0.642355887870    12.000000000000
         C            0.058180262631    -1.337929766149    -0.064578112130    12.000000000000
         C           -0.036247737369     1.547808233851     0.437231887870    12.000000000000
         C           -1.227583737369    -0.550163766149    -0.289804112130    12.000000000000
         C           -1.272046737369     0.676899233851     0.615385887870    12.000000000000
         H            1.310484262631    -0.128116766149    -1.311844112130     1.007825032230
         H            1.311889262631     0.404788233851     1.684247887870     1.007825032230
         H            2.119415262631     1.389429233851     0.465392887870     1.007825032230
         H            0.070977262631    -2.207008766149    -0.734469112130     1.007825032230
         H            0.075826262631    -1.722263766149     0.966261887870     1.007825032230
         H           -0.068218737369     2.379797233851     1.158258887870     1.007825032230
         H           -1.284423737369    -0.224335766149    -1.332292112130     1.007825032230
         H           -1.329661037369     0.315937933851     1.758058287870     1.007825032230
         H           -2.172790737369     1.261312233851     0.403409887870     1.007825032230
         H            3.329823262631    -0.722942766149    -0.114711112130     1.007825032230
         H            2.542658262631    -2.081920766149    -0.541802112130     1.007825032230
         H            0.662375262631     2.631993233851    -1.038518112130     1.007825032230
         H           -2.352450737369    -1.700316766149     0.807635887870     1.007825032230

  Basis Set: AUG-CC-PVTZ
    Blend: AUG-CC-PVTZ
  Basis Set: (AUG-CC-PVTZ AUX)
    Blend: AUG-CC-PVTZ-JKFIT
	 Reference Energy          =    -439.1031274240776838 [Eh]
	 Singles Energy            =      -0.0000000000000000 [Eh]
	 Same-Spin Energy          =      -0.4515508693706775 [Eh]
	 Opposite-Spin Energy      =      -1.4739696951333765 [Eh]
	 Correlation Energy        =      -1.9255205645040541 [Eh]
	 Total Energy              =    -441.0286479885817243 [Eh]

	 ================> DF-SCS-MP2 Energies <==================
	-----------------------------------------------------------
	 SCS Same-Spin Scale       =       0.3333333333333333 [-]
	 SCS Opposite-Spin Scale   =       1.2000000000000000 [-]
	 SCS Same-Spin Energy      =      -0.1505169564568925 [Eh]
	 SCS Opposite-Spin Energy  =      -1.7687636341600517 [Eh]
	 SCS Correlation Energy    =      -1.9192805906169441 [Eh]
	 SCS Total Energy          =    -441.0224080146946335 [Eh]
	-----------------------------------------------------------

  Dipole Moment: [D]
     X:     2.5516      Y:     1.1473      Z:     0.6778     Total:     2.8786

*** Psi4 exiting successfully. Buy a developer a beer!
