                               Psi4 1.4a3.dev225

  ==> Input File <==

--------------------------------------------------------------------------
#psi4
#
memory 32 gb

molecule  {
0 1
  O       -0.1447520     2.0657680    -0.9147710
  O       -2.4135200    -1.3721290    -0.1231600
  N        2.4623060    -1.2702550     0.0647480
  C        1.2743520    -0.4775570    -0.2805680
  C        1.2169020     0.7460590     0.6287670
  C        0.0292070    -1.3356180    -0.0781670
  C       -0.0652210     1.5501200     0.4236430
  C       -1.2435603    -0.5572592    -0.2560561
  C       -1.3010200     0.6792110     0.6017970
  H        1.2815110    -0.1258050    -1.3254330
  H        1.2829160     0.4071000     1.6706590
  H        2.0904420     1.3917410     0.4518040
  H        0.0420040    -2.2046970    -0.7480580
  H        0.0468530    -1.7199520     0.9526730
  H       -0.0971920     2.3821090     1.1446700
  H       -1.3133970    -0.2220240    -1.3458810
  H       -1.3538320     0.3483370     1.6492240
  H       -2.2017640     1.2636240     0.3898210
  H        3.3008500    -0.7206310    -0.1283000
  H        2.5136850    -2.0796090    -0.5553910
  H        0.6334020     2.6343050    -1.0521070
  H       -2.3814240    -1.6980050     0.7940470
units angstrom
no_reorient  #important for SAPT in psi4, default
symmetry c1  #important for SAPT in psi4, default
}

set PROPERTIES_ORIGIN ["COM"]
properties('MP2/aug-cc-pvtz', properties = ['dipole'])
--------------------------------------------------------------------------

    Molecular point group: c1
  Charge       = 0
  Multiplicity = 1
  Basis Set: AUG-CC-PVTZ
    Blend: AUG-CC-PVTZ
  Basis Set: (AUG-CC-PVTZ AUX)
    Blend: AUG-CC-PVTZ-JKFIT

    Orbital Energies [Eh]
    ---------------------

    Doubly Occupied:

       1A    -20.561737     2A    -20.553501     3A    -15.546532
       4A    -11.286699     5A    -11.273143     6A    -11.257311
       7A    -11.226364     8A    -11.220024     9A    -11.217664
      10A     -1.362733    11A     -1.352168    12A     -1.193106
      13A     -1.090575    14A     -0.998631    15A     -0.988083
      16A     -0.839331    17A     -0.823315    18A     -0.767723
      19A     -0.696406    20A     -0.679015    21A     -0.655981
      22A     -0.643286    23A     -0.627547    24A     -0.607704
      25A     -0.591834    26A     -0.563287    27A     -0.551522
      28A     -0.534529    29A     -0.526933    30A     -0.499127
      31A     -0.491147    32A     -0.467147    33A     -0.454524
      34A     -0.442968    35A     -0.424567    36A     -0.396252

  @DF-RHF Final Energy:  -439.10552281813915

   => Energetics <=

    Nuclear Repulsion Energy =            507.3101212833680052
    One-Electron Energy =               -1606.0064530588306297
    Two-Electron Energy =                 659.5908089573234747
    Total Energy =                       -439.1055228181390930
  Basis Set: (AUG-CC-PVTZ AUX)
    Blend: AUG-CC-PVTZ-RI
    Molecular point group: c1

    Geometry (in Angstrom), charge = 0, multiplicity = 1:

       Center              X                  Y                   Z               Mass
    ------------   -----------------  -----------------  -----------------  -----------------
         O           -0.117005334368     2.064086035901    -0.904782962191    15.994914619570
         O           -2.385773334368    -1.373810964099    -0.113171962191    15.994914619570
         N            2.490052665632    -1.271936964099     0.074736037809    14.003074004430
         C            1.302098665632    -0.479238964099    -0.270579962191    12.000000000000
         C            1.244648665632     0.744377035901     0.638755037809    12.000000000000
         C            0.056953665632    -1.337299964099    -0.068178962191    12.000000000000
         C           -0.037474334368     1.548438035901     0.433631037809    12.000000000000
         C           -1.215813634368    -0.558941164099    -0.246068062191    12.000000000000
         C           -1.273273334368     0.677529035901     0.611785037809    12.000000000000
         H            1.309257665632    -0.127486964099    -1.315444962191     1.007825032230
         H            1.310662665632     0.405418035901     1.680647037809     1.007825032230
         H            2.118188665632     1.390059035901     0.461792037809     1.007825032230
         H            0.069750665632    -2.206378964099    -0.738069962191     1.007825032230
         H            0.074599665632    -1.721633964099     0.962661037809     1.007825032230
         H           -0.069445334368     2.380427035901     1.154658037809     1.007825032230
         H           -1.285650334368    -0.223705964099    -1.335892962191     1.007825032230
         H           -1.326085334368     0.346655035901     1.659212037809     1.007825032230
         H           -2.174017334368     1.261942035901     0.399809037809     1.007825032230
         H            3.328596665632    -0.722312964099    -0.118311962191     1.007825032230
         H            2.541431665632    -2.081290964099    -0.545402962191     1.007825032230
         H            0.661148665632     2.632623035901    -1.042118962191     1.007825032230
         H           -2.353677334368    -1.699686964099     0.804035037809     1.007825032230

  Basis Set: AUG-CC-PVTZ
    Blend: AUG-CC-PVTZ
  Basis Set: (AUG-CC-PVTZ AUX)
    Blend: AUG-CC-PVTZ-JKFIT
	 Reference Energy          =    -439.1055228181391499 [Eh]
	 Singles Energy            =      -0.0000000000000000 [Eh]
	 Same-Spin Energy          =      -0.4520382892522823 [Eh]
	 Opposite-Spin Energy      =      -1.4740841756217176 [Eh]
	 Correlation Energy        =      -1.9261224648739999 [Eh]
	 Total Energy              =    -441.0316452830131766 [Eh]

	 ================> DF-SCS-MP2 Energies <==================
	-----------------------------------------------------------
	 SCS Same-Spin Scale       =       0.3333333333333333 [-]
	 SCS Opposite-Spin Scale   =       1.2000000000000000 [-]
	 SCS Same-Spin Energy      =      -0.1506794297507608 [Eh]
	 SCS Opposite-Spin Energy  =      -1.7689010107460610 [Eh]
	 SCS Correlation Energy    =      -1.9195804404968217 [Eh]
	 SCS Total Energy          =    -441.0251032586359656 [Eh]
	-----------------------------------------------------------

  Dipole Moment: [D]
     X:     2.5661      Y:     1.1221      Z:     0.7906     Total:     2.9101

*** Psi4 exiting successfully. Buy a developer a beer!
