                               Psi4 1.4a3.dev225

  ==> Input File <==

--------------------------------------------------------------------------
#psi4
#
memory 32 gb

molecule  {
0 1
  O       -0.1447520     2.0657680    -0.9147710
  O       -2.4135200    -1.3721290    -0.1231600
  N        2.4623060    -1.2702550     0.0647480
  C        1.2743520    -0.4775570    -0.2805680
  C        1.2169020     0.7460590     0.6287670
  C        0.0292070    -1.3356180    -0.0781670
  C       -0.0652210     1.5501200     0.4236430
  C       -1.2565570    -0.5478520    -0.3033930
  C       -1.3010200     0.6792110     0.6017970
  H        1.2802123    -0.1896144    -1.1358897
  H        1.2829160     0.4071000     1.6706590
  H        2.0904420     1.3917410     0.4518040
  H        0.0420040    -2.2046970    -0.7480580
  H        0.0468530    -1.7199520     0.9526730
  H       -0.0971920     2.3821090     1.1446700
  H       -1.3133970    -0.2220240    -1.3458810
  H       -1.3538320     0.3483370     1.6492240
  H       -2.2017640     1.2636240     0.3898210
  H        3.3008500    -0.7206310    -0.1283000
  H        2.5136850    -2.0796090    -0.5553910
  H        0.6334020     2.6343050    -1.0521070
  H       -2.3814240    -1.6980050     0.7940470
units angstrom
no_reorient  #important for SAPT in psi4, default
symmetry c1  #important for SAPT in psi4, default
}

set PROPERTIES_ORIGIN ["COM"]
properties('MP2/aug-cc-pvtz', properties = ['dipole'])
--------------------------------------------------------------------------

    Molecular point group: c1
  Charge       = 0
  Multiplicity = 1
  Basis Set: AUG-CC-PVTZ
    Blend: AUG-CC-PVTZ
  Basis Set: (AUG-CC-PVTZ AUX)
    Blend: AUG-CC-PVTZ-JKFIT

    Orbital Energies [Eh]
    ---------------------

    Doubly Occupied:

       1A    -20.562966     2A    -20.551515     3A    -15.543946
       4A    -11.285878     5A    -11.271998     6A    -11.231247
       7A    -11.224272     8A    -11.219816     9A    -11.216183
      10A     -1.363520    11A     -1.350025    12A     -1.195845
      13A     -1.087523    14A     -0.995845    15A     -0.990729
      16A     -0.842937    17A     -0.839094    18A     -0.781481
      19A     -0.699699    20A     -0.685987    21A     -0.655481
      22A     -0.643579    23A     -0.625557    24A     -0.611705
      25A     -0.596038    26A     -0.564822    27A     -0.549209
      28A     -0.530086    29A     -0.527121    30A     -0.502621
      31A     -0.493284    32A     -0.475679    33A     -0.453454
      34A     -0.443523    35A     -0.420761    36A     -0.401191

  @DF-RHF Final Energy:  -439.07874671133015

   => Energetics <=

    Nuclear Repulsion Energy =            508.0215325349039404
    One-Electron Energy =               -1607.3313245261308566
    Two-Electron Energy =                 660.2310452798968754
    Total Energy =                       -439.0787467113301545
  Basis Set: (AUG-CC-PVTZ AUX)
    Blend: AUG-CC-PVTZ-RI
    Molecular point group: c1

    Geometry (in Angstrom), charge = 0, multiplicity = 1:

       Center              X                  Y                   Z               Mass
    ------------   -----------------  -----------------  -----------------  -----------------
         O           -0.115805672231     2.063715481517    -0.901907052465    15.994914619570
         O           -2.384573672231    -1.374181518483    -0.110296052465    15.994914619570
         N            2.491252327769    -1.272307518483     0.077611947535    14.003074004430
         C            1.303298327769    -0.479609518483    -0.267704052465    12.000000000000
         C            1.245848327769     0.744006481517     0.641630947535    12.000000000000
         C            0.058153327769    -1.337670518483    -0.065303052465    12.000000000000
         C           -0.036274672231     1.548067481517     0.436506947535    12.000000000000
         C           -1.227610672231    -0.549904518483    -0.290529052465    12.000000000000
         C           -1.272073672231     0.677158481517     0.614660947535    12.000000000000
         H            1.309158627769    -0.191666918483    -1.123025752465     1.007825032230
         H            1.311862327769     0.405047481517     1.683522947535     1.007825032230
         H            2.119388327769     1.389688481517     0.464667947535     1.007825032230
         H            0.070950327769    -2.206749518483    -0.735194052465     1.007825032230
         H            0.075799327769    -1.722004518483     0.965536947535     1.007825032230
         H           -0.068245672231     2.380056481517     1.157533947535     1.007825032230
         H           -1.284450672231    -0.224076518483    -1.333017052465     1.007825032230
         H           -1.324885672231     0.346284481517     1.662087947535     1.007825032230
         H           -2.172817672231     1.261571481517     0.402684947535     1.007825032230
         H            3.329796327769    -0.722683518483    -0.115436052465     1.007825032230
         H            2.542631327769    -2.081661518483    -0.542527052465     1.007825032230
         H            0.662348327769     2.632252481517    -1.039243052465     1.007825032230
         H           -2.352477672231    -1.700057518483     0.806910947535     1.007825032230

  Basis Set: AUG-CC-PVTZ
    Blend: AUG-CC-PVTZ
  Basis Set: (AUG-CC-PVTZ AUX)
    Blend: AUG-CC-PVTZ-JKFIT
	 Reference Energy          =    -439.0787467113301545 [Eh]
	 Singles Energy            =      -0.0000000000000000 [Eh]
	 Same-Spin Energy          =      -0.4513322217021783 [Eh]
	 Opposite-Spin Energy      =      -1.4724056346057075 [Eh]
	 Correlation Energy        =      -1.9237378563078860 [Eh]
	 Total Energy              =    -441.0024845676380210 [Eh]

	 ================> DF-SCS-MP2 Energies <==================
	-----------------------------------------------------------
	 SCS Same-Spin Scale       =       0.3333333333333333 [-]
	 SCS Opposite-Spin Scale   =       1.2000000000000000 [-]
	 SCS Same-Spin Energy      =      -0.1504440739007261 [Eh]
	 SCS Opposite-Spin Energy  =      -1.7668867615268489 [Eh]
	 SCS Correlation Energy    =      -1.9173308354275749 [Eh]
	 SCS Total Energy          =    -440.9960775467577037 [Eh]
	-----------------------------------------------------------

  Dipole Moment: [D]
     X:     2.5029      Y:     1.1773      Z:     0.6603     Total:     2.8437

*** Psi4 exiting successfully. Buy a developer a beer!
