                               Psi4 1.4a3.dev225

  ==> Input File <==

--------------------------------------------------------------------------
#psi4
#
memory 32 gb

molecule  {
0 1
  O       -0.1447520     2.0657680    -0.9147710
  O       -2.4135200    -1.3721290    -0.1231600
  N        2.4623060    -1.2702550     0.0647480
  C        1.2743520    -0.4775570    -0.2805680
  C        1.2169020     0.7460590     0.6287670
  C        0.0292070    -1.3356180    -0.0781670
  C       -0.0652210     1.5501200     0.4236430
  C       -1.2565570    -0.5478520    -0.3033930
  C       -1.3010200     0.6792110     0.6017970
  H        1.2815110    -0.1258050    -1.3254330
  H        1.2829160     0.4071000     1.6706590
  H        2.0904420     1.3917410     0.4518040
  H        0.0408378    -2.1255003    -0.6870127
  H        0.0468530    -1.7199520     0.9526730
  H       -0.0971920     2.3821090     1.1446700
  H       -1.3133970    -0.2220240    -1.3458810
  H       -1.3538320     0.3483370     1.6492240
  H       -2.2017640     1.2636240     0.3898210
  H        3.3008500    -0.7206310    -0.1283000
  H        2.5136850    -2.0796090    -0.5553910
  H        0.6334020     2.6343050    -1.0521070
  H       -2.3814240    -1.6980050     0.7940470
units angstrom
no_reorient  #important for SAPT in psi4, default
symmetry c1  #important for SAPT in psi4, default
}

set PROPERTIES_ORIGIN ["COM"]
properties('MP2/aug-cc-pvtz', properties = ['dipole'])
--------------------------------------------------------------------------

    Molecular point group: c1
  Charge       = 0
  Multiplicity = 1
  Basis Set: AUG-CC-PVTZ
    Blend: AUG-CC-PVTZ
  Basis Set: (AUG-CC-PVTZ AUX)
    Blend: AUG-CC-PVTZ-JKFIT

    Orbital Energies [Eh]
    ---------------------

    Doubly Occupied:

       1A    -20.561449     2A    -20.551603     3A    -15.546162
       4A    -11.285353     5A    -11.271089     6A    -11.255716
       7A    -11.225055     8A    -11.219007     9A    -11.205176
      10A     -1.362221    11A     -1.350048    12A     -1.192587
      13A     -1.087448    14A     -1.000763    15A     -0.986052
      16A     -0.844511    17A     -0.823695    18A     -0.769732
      19A     -0.696228    20A     -0.678444    21A     -0.655545
      22A     -0.649374    23A     -0.625757    24A     -0.611325
      25A     -0.591825    26A     -0.565333    27A     -0.551060
      28A     -0.530815    29A     -0.526809    30A     -0.500954
      31A     -0.492626    32A     -0.475620    33A     -0.453247
      34A     -0.444007    35A     -0.420715    36A     -0.395372

  @DF-RHF Final Energy:  -439.10382479691651

   => Energetics <=

    Nuclear Repulsion Energy =            507.4543915599410866
    One-Electron Energy =               -1606.3109875425816426
    Two-Electron Energy =                 659.7527711857239865
    Total Energy =                       -439.1038247969165695
  Basis Set: (AUG-CC-PVTZ AUX)
    Blend: AUG-CC-PVTZ-RI
    Molecular point group: c1

    Geometry (in Angstrom), charge = 0, multiplicity = 1:

       Center              X                  Y                   Z               Mass
    ------------   -----------------  -----------------  -----------------  -----------------
         O           -0.115806690860     2.062616083862    -0.900919189711    15.994914619570
         O           -2.384574690860    -1.375280916138    -0.109308189711    15.994914619570
         N            2.491251309140    -1.273406916138     0.078599810289    14.003074004430
         C            1.303297309140    -0.480708916138    -0.266716189711    12.000000000000
         C            1.245847309140     0.742907083862     0.642618810289    12.000000000000
         C            0.058152309140    -1.338769916138    -0.064315189711    12.000000000000
         C           -0.036275690860     1.546968083862     0.437494810289    12.000000000000
         C           -1.227611690860    -0.551003916138    -0.289541189711    12.000000000000
         C           -1.272074690860     0.676059083862     0.615648810289    12.000000000000
         H            1.310456309140    -0.128956916138    -1.311581189711     1.007825032230
         H            1.311861309140     0.403948083862     1.684510810289     1.007825032230
         H            2.119387309140     1.388589083862     0.465655810289     1.007825032230
         H            0.069783109140    -2.128652216138    -0.673160889711     1.007825032230
         H            0.075798309140    -1.723103916138     0.966524810289     1.007825032230
         H           -0.068246690860     2.378957083862     1.158521810289     1.007825032230
         H           -1.284451690860    -0.225175916138    -1.332029189711     1.007825032230
         H           -1.324886690860     0.345185083862     1.663075810289     1.007825032230
         H           -2.172818690860     1.260472083862     0.403672810289     1.007825032230
         H            3.329795309140    -0.723782916138    -0.114448189711     1.007825032230
         H            2.542630309140    -2.082760916138    -0.541539189711     1.007825032230
         H            0.662347309140     2.631153083862    -1.038255189711     1.007825032230
         H           -2.352478690860    -1.701156916138     0.807898810289     1.007825032230

  Basis Set: AUG-CC-PVTZ
    Blend: AUG-CC-PVTZ
  Basis Set: (AUG-CC-PVTZ AUX)
    Blend: AUG-CC-PVTZ-JKFIT
	 Reference Energy          =    -439.1038247969165127 [Eh]
	 Singles Energy            =      -0.0000000000000000 [Eh]
	 Same-Spin Energy          =      -0.4514521673302770 [Eh]
	 Opposite-Spin Energy      =      -1.4727090756404926 [Eh]
	 Correlation Energy        =      -1.9241612429707695 [Eh]
	 Total Energy              =    -441.0279860398873097 [Eh]

	 ================> DF-SCS-MP2 Energies <==================
	-----------------------------------------------------------
	 SCS Same-Spin Scale       =       0.3333333333333333 [-]
	 SCS Opposite-Spin Scale   =       1.2000000000000000 [-]
	 SCS Same-Spin Energy      =      -0.1504840557767590 [Eh]
	 SCS Opposite-Spin Energy  =      -1.7672508907685911 [Eh]
	 SCS Correlation Energy    =      -1.9177349465453501 [Eh]
	 SCS Total Energy          =    -441.0215597434618644 [Eh]
	-----------------------------------------------------------

  Dipole Moment: [D]
     X:     2.5458      Y:     1.0671      Z:     0.7189     Total:     2.8525

*** Psi4 exiting successfully. Buy a developer a beer!
