                               Psi4 1.4a3.dev225

  ==> Input File <==

--------------------------------------------------------------------------
#psi4
#
memory 32 gb

molecule  {
0 1
  O       -0.1447520     2.0657680    -0.9147710
  O       -2.4135200    -1.3721290    -0.1231600
  N        2.4623060    -1.2702550     0.0647480
  C        1.2743520    -0.4775570    -0.2805680
  C        1.2169020     0.7460590     0.6287670
  C        0.0292070    -1.3356180    -0.0781670
  C       -0.0652210     1.5501200     0.4236430
  C       -1.2235055    -0.4797182    -0.2286263
  C       -1.3010200     0.6792110     0.6017970
  H        1.2815110    -0.1258050    -1.3254330
  H        1.2829160     0.4071000     1.6706590
  H        2.0904420     1.3917410     0.4518040
  H        0.0420040    -2.2046970    -0.7480580
  H        0.0468530    -1.7199520     0.9526730
  H       -0.0971920     2.3821090     1.1446700
  H       -1.3133970    -0.2220240    -1.3458810
  H       -1.3538320     0.3483370     1.6492240
  H       -2.2017640     1.2636240     0.3898210
  H        3.3008500    -0.7206310    -0.1283000
  H        2.5136850    -2.0796090    -0.5553910
  H        0.6334020     2.6343050    -1.0521070
  H       -2.3814240    -1.6980050     0.7940470
units angstrom
no_reorient  #important for SAPT in psi4, default
symmetry c1  #important for SAPT in psi4, default
}

set PROPERTIES_ORIGIN ["COM"]
properties('MP2/aug-cc-pvtz', properties = ['dipole'])
--------------------------------------------------------------------------

    Molecular point group: c1
  Charge       = 0
  Multiplicity = 1
  Basis Set: AUG-CC-PVTZ
    Blend: AUG-CC-PVTZ
  Basis Set: (AUG-CC-PVTZ AUX)
    Blend: AUG-CC-PVTZ-JKFIT

    Orbital Energies [Eh]
    ---------------------

    Doubly Occupied:

       1A    -20.563754     2A    -20.546480     3A    -15.546443
       4A    -11.289592     5A    -11.274069     6A    -11.256771
       7A    -11.227840     8A    -11.220155     9A    -11.219849
      10A     -1.364806    11A     -1.330676    12A     -1.193450
      13A     -1.100435    14A     -0.999936    15A     -0.994677
      16A     -0.844442    17A     -0.818850    18A     -0.767203
      19A     -0.695734    20A     -0.679976    21A     -0.654842
      22A     -0.644950    23A     -0.628300    24A     -0.602719
      25A     -0.588960    26A     -0.563331    27A     -0.548762
      28A     -0.532837    29A     -0.528392    30A     -0.504900
      31A     -0.490719    32A     -0.464281    33A     -0.456357
      34A     -0.436853    35A     -0.433958    36A     -0.396364

  @DF-RHF Final Energy:  -439.09438664726173

   => Energetics <=

    Nuclear Repulsion Energy =            507.8500822271911375
    One-Electron Energy =               -1607.0656103313742733
    Two-Electron Energy =                 660.1211414569215776
    Total Energy =                       -439.0943866472616719
  Basis Set: (AUG-CC-PVTZ AUX)
    Blend: AUG-CC-PVTZ-RI
    Molecular point group: c1

    Geometry (in Angstrom), charge = 0, multiplicity = 1:

       Center              X                  Y                   Z               Mass
    ------------   -----------------  -----------------  -----------------  -----------------
         O           -0.118841089215     2.056988170722    -0.907293801906    15.994914619570
         O           -2.387609089215    -1.380908829278    -0.115682801906    15.994914619570
         N            2.488216910785    -1.279034829278     0.072225198094    14.003074004430
         C            1.300262910785    -0.486336829278    -0.273090801906    12.000000000000
         C            1.242812910785     0.737279170722     0.636244198094    12.000000000000
         C            0.055117910785    -1.344397829278    -0.070689801906    12.000000000000
         C           -0.039310089215     1.541340170722     0.431120198094    12.000000000000
         C           -1.197594589215    -0.488498029278    -0.221149101906    12.000000000000
         C           -1.275109089215     0.670431170722     0.609274198094    12.000000000000
         H            1.307421910785    -0.134584829278    -1.317955801906     1.007825032230
         H            1.308826910785     0.398320170722     1.678136198094     1.007825032230
         H            2.116352910785     1.382961170722     0.459281198094     1.007825032230
         H            0.067914910785    -2.213476829278    -0.740580801906     1.007825032230
         H            0.072763910785    -1.728731829278     0.960150198094     1.007825032230
         H           -0.071281089215     2.373329170722     1.152147198094     1.007825032230
         H           -1.287486089215    -0.230803829278    -1.338403801906     1.007825032230
         H           -1.327921089215     0.339557170722     1.656701198094     1.007825032230
         H           -2.175853089215     1.254844170722     0.397298198094     1.007825032230
         H            3.326760910785    -0.729410829278    -0.120822801906     1.007825032230
         H            2.539595910785    -2.088388829278    -0.547913801906     1.007825032230
         H            0.659312910785     2.625525170722    -1.044629801906     1.007825032230
         H           -2.355513089215    -1.706784829278     0.801524198094     1.007825032230

  Basis Set: AUG-CC-PVTZ
    Blend: AUG-CC-PVTZ
  Basis Set: (AUG-CC-PVTZ AUX)
    Blend: AUG-CC-PVTZ-JKFIT
	 Reference Energy          =    -439.0943866472617287 [Eh]
	 Singles Energy            =      -0.0000000000000000 [Eh]
	 Same-Spin Energy          =      -0.4529710644207694 [Eh]
	 Opposite-Spin Energy      =      -1.4760510386184931 [Eh]
	 Correlation Energy        =      -1.9290221030392625 [Eh]
	 Total Energy              =    -441.0234087503009732 [Eh]

	 ================> DF-SCS-MP2 Energies <==================
	-----------------------------------------------------------
	 SCS Same-Spin Scale       =       0.3333333333333333 [-]
	 SCS Opposite-Spin Scale   =       1.2000000000000000 [-]
	 SCS Same-Spin Energy      =      -0.1509903548069231 [Eh]
	 SCS Opposite-Spin Energy  =      -1.7712612463421917 [Eh]
	 SCS Correlation Energy    =      -1.9222516011491149 [Eh]
	 SCS Total Energy          =    -441.0166382484108567 [Eh]
	-----------------------------------------------------------

  Dipole Moment: [D]
     X:     2.7087      Y:     1.3310      Z:     0.8229     Total:     3.1282

*** Psi4 exiting successfully. Buy a developer a beer!
