                               Psi4 1.4a3.dev225

  ==> Input File <==

--------------------------------------------------------------------------
#psi4
#
memory 32 gb

molecule  {
0 1
  O       -0.1447520     2.0657680    -0.9147710
  O       -2.4135200    -1.3721290    -0.1231600
  N        2.4623060    -1.2702550     0.0647480
  C        1.2743520    -0.4775570    -0.2805680
  C        1.2169020     0.7460590     0.6287670
  C        0.0292070    -1.3356180    -0.0781670
  C       -0.0652210     1.5501200     0.4236430
  C       -1.2565570    -0.5478520    -0.3033930
  C       -1.3010200     0.6792110     0.6017970
  H        1.2815110    -0.1258050    -1.3254330
  H        1.2708875     0.4688620     1.4808149
  H        2.0904420     1.3917410     0.4518040
  H        0.0420040    -2.2046970    -0.7480580
  H        0.0468530    -1.7199520     0.9526730
  H       -0.0971920     2.3821090     1.1446700
  H       -1.3133970    -0.2220240    -1.3458810
  H       -1.3538320     0.3483370     1.6492240
  H       -2.2017640     1.2636240     0.3898210
  H        3.3008500    -0.7206310    -0.1283000
  H        2.5136850    -2.0796090    -0.5553910
  H        0.6334020     2.6343050    -1.0521070
  H       -2.3814240    -1.6980050     0.7940470
units angstrom
no_reorient  #important for SAPT in psi4, default
symmetry c1  #important for SAPT in psi4, default
}

set PROPERTIES_ORIGIN ["COM"]
properties('MP2/aug-cc-pvtz', properties = ['dipole'])
--------------------------------------------------------------------------

    Molecular point group: c1
  Charge       = 0
  Multiplicity = 1
  Basis Set: AUG-CC-PVTZ
    Blend: AUG-CC-PVTZ
  Basis Set: (AUG-CC-PVTZ AUX)
    Blend: AUG-CC-PVTZ-JKFIT

    Orbital Energies [Eh]
    ---------------------

    Doubly Occupied:

       1A    -20.560342     2A    -20.551599     3A    -15.545954
       4A    -11.284812     5A    -11.271867     6A    -11.254918
       7A    -11.220081     8A    -11.217621     9A    -11.201243
      10A     -1.361325    11A     -1.350006    12A     -1.193243
      13A     -1.090873    14A     -1.006477    15A     -0.988227
      16A     -0.845650    17A     -0.824385    18A     -0.778597
      19A     -0.695465    20A     -0.686857    21A     -0.656709
      22A     -0.640864    23A     -0.628319    24A     -0.615605
      25A     -0.594025    26A     -0.564428    27A     -0.550928
      28A     -0.535427    29A     -0.528926    30A     -0.505088
      31A     -0.493800    32A     -0.475203    33A     -0.452870
      34A     -0.443882    35A     -0.420070    36A     -0.394893

  @DF-RHF Final Energy:  -439.07672468101418

   => Energetics <=

    Nuclear Repulsion Energy =            508.0322557635727776
    One-Electron Energy =               -1607.3568035587177292
    Two-Electron Energy =                 660.2478231141308243
    Total Energy =                       -439.0767246810141842
  Basis Set: (AUG-CC-PVTZ AUX)
    Blend: AUG-CC-PVTZ-RI
    Molecular point group: c1

    Geometry (in Angstrom), charge = 0, multiplicity = 1:

       Center              X                  Y                   Z               Mass
    ------------   -----------------  -----------------  -----------------  -----------------
         O           -0.115723184023     2.062750117783    -0.898990410323    15.994914619570
         O           -2.384491184023    -1.375146882217    -0.107379410323    15.994914619570
         N            2.491334815977    -1.273272882217     0.080528589677    14.003074004430
         C            1.303380815977    -0.480574882217    -0.264787410323    12.000000000000
         C            1.245930815977     0.743041117783     0.644547589677    12.000000000000
         C            0.058235815977    -1.338635882217    -0.062386410323    12.000000000000
         C           -0.036192184023     1.547102117783     0.439423589677    12.000000000000
         C           -1.227528184023    -0.550869882217    -0.287612410323    12.000000000000
         C           -1.271991184023     0.676193117783     0.617577589677    12.000000000000
         H            1.310539815977    -0.128822882217    -1.309652410323     1.007825032230
         H            1.299916315977     0.465844117783     1.496595489677     1.007825032230
         H            2.119470815977     1.388723117783     0.467584589677     1.007825032230
         H            0.071032815977    -2.207714882217    -0.732277410323     1.007825032230
         H            0.075881815977    -1.722969882217     0.968453589677     1.007825032230
         H           -0.068163184023     2.379091117783     1.160450589677     1.007825032230
         H           -1.284368184023    -0.225041882217    -1.330100410323     1.007825032230
         H           -1.324803184023     0.345319117783     1.665004589677     1.007825032230
         H           -2.172735184023     1.260606117783     0.405601589677     1.007825032230
         H            3.329878815977    -0.723648882217    -0.112519410323     1.007825032230
         H            2.542713815977    -2.082626882217    -0.539610410323     1.007825032230
         H            0.662430815977     2.631287117783    -1.036326410323     1.007825032230
         H           -2.352395184023    -1.701022882217     0.809827589677     1.007825032230

  Basis Set: AUG-CC-PVTZ
    Blend: AUG-CC-PVTZ
  Basis Set: (AUG-CC-PVTZ AUX)
    Blend: AUG-CC-PVTZ-JKFIT
	 Reference Energy          =    -439.0767246810141842 [Eh]
	 Singles Energy            =      -0.0000000000000000 [Eh]
	 Same-Spin Energy          =      -0.4513587244103206 [Eh]
	 Opposite-Spin Energy      =      -1.4724139809981640 [Eh]
	 Correlation Energy        =      -1.9237727054084846 [Eh]
	 Total Energy              =    -441.0004973864226940 [Eh]

	 ================> DF-SCS-MP2 Energies <==================
	-----------------------------------------------------------
	 SCS Same-Spin Scale       =       0.3333333333333333 [-]
	 SCS Opposite-Spin Scale   =       1.2000000000000000 [-]
	 SCS Same-Spin Energy      =      -0.1504529081367735 [Eh]
	 SCS Opposite-Spin Energy  =      -1.7668967771977968 [Eh]
	 SCS Correlation Energy    =      -1.9173496853345704 [Eh]
	 SCS Total Energy          =    -440.9940743663487410 [Eh]
	-----------------------------------------------------------

  Dipole Moment: [D]
     X:     2.5432      Y:     1.1209      Z:     0.8164     Total:     2.8967

*** Psi4 exiting successfully. Buy a developer a beer!
