                               Psi4 1.4a3.dev225

  ==> Input File <==

--------------------------------------------------------------------------
#psi4
#
memory 32 gb

molecule  {
0 1
  O       -0.1447520     2.0657680    -0.9147710
  O       -2.4135200    -1.3721290    -0.1231600
  N        2.4623060    -1.2702550     0.0647480
  C        1.2743520    -0.4775570    -0.2805680
  C        1.2169020     0.7460590     0.6287670
  C        0.0292070    -1.3356180    -0.0781670
  C       -0.0652210     1.5501200     0.4236430
  C       -1.2565570    -0.5478520    -0.3033930
  C       -1.3010200     0.6792110     0.6017970
  H        1.2816409    -0.1194241    -1.3443873
  H        1.2829160     0.4071000     1.6706590
  H        2.0904420     1.3917410     0.4518040
  H        0.0420040    -2.2046970    -0.7480580
  H        0.0468530    -1.7199520     0.9526730
  H       -0.0971920     2.3821090     1.1446700
  H       -1.3133970    -0.2220240    -1.3458810
  H       -1.3538320     0.3483370     1.6492240
  H       -2.2017640     1.2636240     0.3898210
  H        3.3008500    -0.7206310    -0.1283000
  H        2.5136850    -2.0796090    -0.5553910
  H        0.6334020     2.6343050    -1.0521070
  H       -2.3814240    -1.6980050     0.7940470
units angstrom
no_reorient  #important for SAPT in psi4, default
symmetry c1  #important for SAPT in psi4, default
}

set PROPERTIES_ORIGIN ["COM"]
properties('MP2/aug-cc-pvtz', properties = ['dipole'])
--------------------------------------------------------------------------

    Molecular point group: c1
  Charge       = 0
  Multiplicity = 1
  Basis Set: AUG-CC-PVTZ
    Blend: AUG-CC-PVTZ
  Basis Set: (AUG-CC-PVTZ AUX)
    Blend: AUG-CC-PVTZ-JKFIT

    Orbital Energies [Eh]
    ---------------------

    Doubly Occupied:

       1A    -20.561747     2A    -20.551665     3A    -15.546366
       4A    -11.285943     5A    -11.271933     6A    -11.258939
       7A    -11.226036     8A    -11.219876     9A    -11.217877
      10A     -1.362555    11A     -1.350116    12A     -1.192221
      13A     -1.087391    14A     -0.996146    15A     -0.985717
      16A     -0.840438    17A     -0.822224    18A     -0.768447
      19A     -0.695872    20A     -0.677140    21A     -0.654704
      22A     -0.641303    23A     -0.625875    24A     -0.611693
      25A     -0.591592    26A     -0.563408    27A     -0.548613
      28A     -0.530435    29A     -0.526721    30A     -0.499673
      31A     -0.489930    32A     -0.475867    33A     -0.453647
      34A     -0.444214    35A     -0.420348    36A     -0.394689

  @DF-RHF Final Energy:  -439.10888523308756

   => Energetics <=

    Nuclear Repulsion Energy =            506.7843538498819385
    One-Electron Energy =               -1605.0037554522591563
    Two-Electron Energy =                 659.1105163692897122
    Total Energy =                       -439.1088852330875625
  Basis Set: (AUG-CC-PVTZ AUX)
    Blend: AUG-CC-PVTZ-RI
    Molecular point group: c1

    Geometry (in Angstrom), charge = 0, multiplicity = 1:

       Center              X                  Y                   Z               Mass
    ------------   -----------------  -----------------  -----------------  -----------------
         O           -0.115816654976     2.063175874806    -0.900304171382    15.994914619570
         O           -2.384584654976    -1.374721125194    -0.108693171382    15.994914619570
         N            2.491241345024    -1.272847125194     0.079214828618    14.003074004430
         C            1.303287345024    -0.480149125194    -0.266101171382    12.000000000000
         C            1.245837345024     0.743466874806     0.643233828618    12.000000000000
         C            0.058142345024    -1.338210125194    -0.063700171382    12.000000000000
         C           -0.036285654976     1.547527874806     0.438109828618    12.000000000000
         C           -1.227621654976    -0.550444125194    -0.288926171382    12.000000000000
         C           -1.272084654976     0.676618874806     0.616263828618    12.000000000000
         H            1.310576245024    -0.122016225194    -1.329920471382     1.007825032230
         H            1.311851345024     0.404507874806     1.685125828618     1.007825032230
         H            2.119377345024     1.389148874806     0.466270828618     1.007825032230
         H            0.070939345024    -2.207289125194    -0.733591171382     1.007825032230
         H            0.075788345024    -1.722544125194     0.967139828618     1.007825032230
         H           -0.068256654976     2.379516874806     1.159136828618     1.007825032230
         H           -1.284461654976    -0.224616125194    -1.331414171382     1.007825032230
         H           -1.324896654976     0.345744874806     1.663690828618     1.007825032230
         H           -2.172828654976     1.261031874806     0.404287828618     1.007825032230
         H            3.329785345024    -0.723223125194    -0.113833171382     1.007825032230
         H            2.542620345024    -2.082201125194    -0.540924171382     1.007825032230
         H            0.662337345024     2.631712874806    -1.037640171382     1.007825032230
         H           -2.352488654976    -1.700597125194     0.808513828618     1.007825032230

  Basis Set: AUG-CC-PVTZ
    Blend: AUG-CC-PVTZ
  Basis Set: (AUG-CC-PVTZ AUX)
    Blend: AUG-CC-PVTZ-JKFIT
	 Reference Energy          =    -439.1088852330875625 [Eh]
	 Singles Energy            =      -0.0000000000000000 [Eh]
	 Same-Spin Energy          =      -0.4515468899301924 [Eh]
	 Opposite-Spin Energy      =      -1.4734344915314204 [Eh]
	 Correlation Energy        =      -1.9249813814616128 [Eh]
	 Total Energy              =    -441.0338666145491970 [Eh]

	 ================> DF-SCS-MP2 Energies <==================
	-----------------------------------------------------------
	 SCS Same-Spin Scale       =       0.3333333333333333 [-]
	 SCS Opposite-Spin Scale   =       1.2000000000000000 [-]
	 SCS Same-Spin Energy      =      -0.1505156299767308 [Eh]
	 SCS Opposite-Spin Energy  =      -1.7681213898377044 [Eh]
	 SCS Correlation Energy    =      -1.9186370198144351 [Eh]
	 SCS Total Energy          =    -441.0275222529019743 [Eh]
	-----------------------------------------------------------

  Dipole Moment: [D]
     X:     2.5412      Y:     1.1203      Z:     0.7592     Total:     2.8791

*** Psi4 exiting successfully. Buy a developer a beer!
