                               Psi4 1.4a3.dev225

  ==> Input File <==

--------------------------------------------------------------------------
#psi4
#
memory 32 gb

molecule  {
0 1
  O       -0.1447520     2.0657680    -0.9147710
  O       -2.4135200    -1.3721290    -0.1231600
  N        2.4623060    -1.2702550     0.0647480
  C        1.2743520    -0.4775570    -0.2805680
  C        1.2169020     0.7460590     0.6287670
  C        0.0292070    -1.3356180    -0.0781670
  C       -0.0652210     1.5501200     0.4236430
  C       -1.2565570    -0.5478520    -0.3033930
  C       -1.3010200     0.6792110     0.6017970
  H        1.2815110    -0.1258050    -1.3254330
  H        1.2799089     0.4225405     1.6231980
  H        2.0904420     1.3917410     0.4518040
  H        0.0420040    -2.2046970    -0.7480580
  H        0.0468530    -1.7199520     0.9526730
  H       -0.0971920     2.3821090     1.1446700
  H       -1.3133970    -0.2220240    -1.3458810
  H       -1.3538320     0.3483370     1.6492240
  H       -2.2017640     1.2636240     0.3898210
  H        3.3008500    -0.7206310    -0.1283000
  H        2.5136850    -2.0796090    -0.5553910
  H        0.6334020     2.6343050    -1.0521070
  H       -2.3814240    -1.6980050     0.7940470
units angstrom
no_reorient  #important for SAPT in psi4, default
symmetry c1  #important for SAPT in psi4, default
}

set PROPERTIES_ORIGIN ["COM"]
properties('MP2/aug-cc-pvtz', properties = ['dipole'])
--------------------------------------------------------------------------

    Molecular point group: c1
  Charge       = 0
  Multiplicity = 1
  Basis Set: AUG-CC-PVTZ
    Blend: AUG-CC-PVTZ
  Basis Set: (AUG-CC-PVTZ AUX)
    Blend: AUG-CC-PVTZ-JKFIT

    Orbital Energies [Eh]
    ---------------------

    Doubly Occupied:

       1A    -20.561401     2A    -20.551617     3A    -15.546011
       4A    -11.285562     5A    -11.271897     6A    -11.255999
       7A    -11.219903     8A    -11.219736     9A    -11.217636
      10A     -1.362242    11A     -1.350061    12A     -1.192444
      13A     -1.087919    14A     -0.997655    15A     -0.986703
      16A     -0.841193    17A     -0.823416    18A     -0.771473
      19A     -0.695834    20A     -0.679765    21A     -0.655198
      22A     -0.641387    23A     -0.626263    24A     -0.612695
      25A     -0.592530    26A     -0.563617    27A     -0.549090
      28A     -0.531003    29A     -0.528007    30A     -0.501165
      31A     -0.492115    32A     -0.475619    33A     -0.453386
      34A     -0.444036    35A     -0.420261    36A     -0.395257

  @DF-RHF Final Energy:  -439.10864712644184

   => Energetics <=

    Nuclear Repulsion Energy =            507.1478937774383553
    One-Electron Energy =               -1605.7128878766743583
    Two-Electron Energy =                 659.4563469727941083
    Total Energy =                       -439.1086471264418378
  Basis Set: (AUG-CC-PVTZ AUX)
    Blend: AUG-CC-PVTZ-RI
    Molecular point group: c1

    Geometry (in Angstrom), charge = 0, multiplicity = 1:

       Center              X                  Y                   Z               Mass
    ------------   -----------------  -----------------  -----------------  -----------------
         O           -0.115792538449     2.063106226707    -0.900085018499    15.994914619570
         O           -2.384560538449    -1.374790773293    -0.108474018499    15.994914619570
         N            2.491265461551    -1.272916773293     0.079433981501    14.003074004430
         C            1.303311461551    -0.480218773293    -0.265882018499    12.000000000000
         C            1.245861461551     0.743397226707     0.643452981501    12.000000000000
         C            0.058166461551    -1.338279773293    -0.063481018499    12.000000000000
         C           -0.036261538449     1.547458226707     0.438328981501    12.000000000000
         C           -1.227597538449    -0.550513773293    -0.288707018499    12.000000000000
         C           -1.272060538449     0.676549226707     0.616482981501    12.000000000000
         H            1.310470461551    -0.128466773293    -1.310747018499     1.007825032230
         H            1.308868361551     0.419878726707     1.637883981501     1.007825032230
         H            2.119401461551     1.389079226707     0.466489981501     1.007825032230
         H            0.070963461551    -2.207358773293    -0.733372018499     1.007825032230
         H            0.075812461551    -1.722613773293     0.967358981501     1.007825032230
         H           -0.068232538449     2.379447226707     1.159355981501     1.007825032230
         H           -1.284437538449    -0.224685773293    -1.331195018499     1.007825032230
         H           -1.324872538449     0.345675226707     1.663909981501     1.007825032230
         H           -2.172804538449     1.260962226707     0.404506981501     1.007825032230
         H            3.329809461551    -0.723292773293    -0.113614018499     1.007825032230
         H            2.542644461551    -2.082270773293    -0.540705018499     1.007825032230
         H            0.662361461551     2.631643226707    -1.037421018499     1.007825032230
         H           -2.352464538449    -1.700666773293     0.808732981501     1.007825032230

  Basis Set: AUG-CC-PVTZ
    Blend: AUG-CC-PVTZ
  Basis Set: (AUG-CC-PVTZ AUX)
    Blend: AUG-CC-PVTZ-JKFIT
	 Reference Energy          =    -439.1086471264418378 [Eh]
	 Singles Energy            =      -0.0000000000000000 [Eh]
	 Same-Spin Energy          =      -0.4514551101723614 [Eh]
	 Opposite-Spin Energy      =      -1.4729261892249115 [Eh]
	 Correlation Energy        =      -1.9243812993972729 [Eh]
	 Total Energy              =    -441.0330284258391202 [Eh]

	 ================> DF-SCS-MP2 Energies <==================
	-----------------------------------------------------------
	 SCS Same-Spin Scale       =       0.3333333333333333 [-]
	 SCS Opposite-Spin Scale   =       1.2000000000000000 [-]
	 SCS Same-Spin Energy      =      -0.1504850367241204 [Eh]
	 SCS Opposite-Spin Energy  =      -1.7675114270698937 [Eh]
	 SCS Correlation Energy    =      -1.9179964637940141 [Eh]
	 SCS Total Energy          =    -441.0266435902358353 [Eh]
	-----------------------------------------------------------

  Dipole Moment: [D]
     X:     2.5398      Y:     1.1248      Z:     0.7683     Total:     2.8820

*** Psi4 exiting successfully. Buy a developer a beer!
