                               Psi4 1.4a3.dev225

  ==> Input File <==

--------------------------------------------------------------------------
#psi4
#
memory 32 gb

molecule  {
0 1
  O       -0.1447520     2.0657680    -0.9147710
  O       -2.4135200    -1.3721290    -0.1231600
  N        2.4623060    -1.2702550     0.0647480
  C        1.2743520    -0.4775570    -0.2805680
  C        1.2169020     0.7460590     0.6287670
  C        0.0292070    -1.3356180    -0.0781670
  C       -0.0652210     1.5501200     0.4236430
  C       -1.2565570    -0.5478520    -0.3033930
  C       -1.3010200     0.6792110     0.6017970
  H        1.2815110    -0.1258050    -1.3254330
  H        1.2829160     0.4071000     1.6706590
  H        2.0904420     1.3917410     0.4518040
  H        0.0420040    -2.2046970    -0.7480580
  H        0.0468530    -1.7199520     0.9526730
  H       -0.0971920     2.3821090     1.1446700
  H       -1.3133970    -0.2220240    -1.3458810
  H       -1.3538320     0.3483370     1.6492240
  H       -2.2017640     1.2636240     0.3898210
  H        3.3008500    -0.7206310    -0.1283000
  H        2.5136850    -2.0796090    -0.5553910
  H        0.6334020     2.6343050    -1.0521070
  H       -2.3814240    -1.6980050     0.7940470
units angstrom
no_reorient  #important for SAPT in psi4, default
symmetry c1  #important for SAPT in psi4, default
}

set PROPERTIES_ORIGIN ["COM"]
properties('MP2/aug-cc-pvtz', properties = ['dipole'])
--------------------------------------------------------------------------

    Molecular point group: c1
  Charge       = 0
  Multiplicity = 1
  Basis Set: AUG-CC-PVTZ
    Blend: AUG-CC-PVTZ
  Basis Set: (AUG-CC-PVTZ AUX)
    Blend: AUG-CC-PVTZ-JKFIT

    Orbital Energies [Eh]
    ---------------------

    Doubly Occupied:

       1A    -20.561878     2A    -20.551639     3A    -15.546056
       4A    -11.285925     5A    -11.271929     6A    -11.256486
       7A    -11.225817     8A    -11.219860     9A    -11.217664
      10A     -1.362657    11A     -1.350097    12A     -1.192330
      13A     -1.087357    14A     -0.996068    15A     -0.985965
      16A     -0.840379    17A     -0.823198    18A     -0.769566
      19A     -0.696023    20A     -0.678022    21A     -0.654740
      22A     -0.641626    23A     -0.625827    24A     -0.611680
      25A     -0.592003    26A     -0.563507    27A     -0.548682
      28A     -0.530385    29A     -0.526745    30A     -0.499871
      31A     -0.490355    32A     -0.475828    33A     -0.453617
      34A     -0.444120    35A     -0.420362    36A     -0.395425

  @DF-RHF Final Energy:  -439.10948801893238

   => Energetics <=

    Nuclear Repulsion Energy =            506.8850666110939756
    One-Electron Energy =               -1605.2017268779218284
    Two-Electron Energy =                 659.2071722478956417
    Total Energy =                       -439.1094880189323248
  Basis Set: (AUG-CC-PVTZ AUX)
    Blend: AUG-CC-PVTZ-RI
    Molecular point group: c1

    Geometry (in Angstrom), charge = 0, multiplicity = 1:

       Center              X                  Y                   Z               Mass
    ------------   -----------------  -----------------  -----------------  -----------------
         O           -0.115815656335     2.063224929682    -0.900449887634    15.994914619570
         O           -2.384583656335    -1.374672070318    -0.108838887634    15.994914619570
         N            2.491242343665    -1.272798070318     0.079069112366    14.003074004430
         C            1.303288343665    -0.480100070318    -0.266246887634    12.000000000000
         C            1.245838343665     0.743515929682     0.643088112366    12.000000000000
         C            0.058143343665    -1.338161070318    -0.063845887634    12.000000000000
         C           -0.036284656335     1.547576929682     0.437964112366    12.000000000000
         C           -1.227620656335    -0.550395070318    -0.289071887634    12.000000000000
         C           -1.272083656335     0.676667929682     0.616118112366    12.000000000000
         H            1.310447343665    -0.128348070318    -1.311111887634     1.007825032230
         H            1.311852343665     0.404556929682     1.684980112366     1.007825032230
         H            2.119378343665     1.389197929682     0.466125112366     1.007825032230
         H            0.070940343665    -2.207240070318    -0.733736887634     1.007825032230
         H            0.075789343665    -1.722495070318     0.966994112366     1.007825032230
         H           -0.068255656335     2.379565929682     1.158991112366     1.007825032230
         H           -1.284460656335    -0.224567070318    -1.331559887634     1.007825032230
         H           -1.324895656335     0.345793929682     1.663545112366     1.007825032230
         H           -2.172827656335     1.261080929682     0.404142112366     1.007825032230
         H            3.329786343665    -0.723174070318    -0.113978887634     1.007825032230
         H            2.542621343665    -2.082152070318    -0.541069887634     1.007825032230
         H            0.662338343665     2.631761929682    -1.037785887634     1.007825032230
         H           -2.352487656335    -1.700548070318     0.808368112366     1.007825032230

  Basis Set: AUG-CC-PVTZ
    Blend: AUG-CC-PVTZ
  Basis Set: (AUG-CC-PVTZ AUX)
    Blend: AUG-CC-PVTZ-JKFIT
	 Reference Energy          =    -439.1094880189323817 [Eh]
	 Singles Energy            =      -0.0000000000000000 [Eh]
	 Same-Spin Energy          =      -0.4515156435651395 [Eh]
	 Opposite-Spin Energy      =      -1.4732752678999128 [Eh]
	 Correlation Energy        =      -1.9247909114650523 [Eh]
	 Total Energy              =    -441.0342789303974200 [Eh]

	 ================> DF-SCS-MP2 Energies <==================
	-----------------------------------------------------------
	 SCS Same-Spin Scale       =       0.3333333333333333 [-]
	 SCS Opposite-Spin Scale   =       1.2000000000000000 [-]
	 SCS Same-Spin Energy      =      -0.1505052145217132 [Eh]
	 SCS Opposite-Spin Energy  =      -1.7679303214798954 [Eh]
	 SCS Correlation Energy    =      -1.9184355360016085 [Eh]
	 SCS Total Energy          =    -441.0279235549339774 [Eh]
	-----------------------------------------------------------

  Dipole Moment: [D]
     X:     2.5375      Y:     1.1274      Z:     0.7451     Total:     2.8749

*** Psi4 exiting successfully. Buy a developer a beer!
