                               Psi4 1.4a3.dev225

  ==> Input File <==

--------------------------------------------------------------------------
#psi4
#
memory 32 gb

molecule  {
0 1
  O       -0.1447520     2.0657680    -0.9147710
  O       -2.4135200    -1.3721290    -0.1231600
  N        2.4623060    -1.2702550     0.0647480
  C        1.2743520    -0.4775570    -0.2805680
  C        1.2169020     0.7460590     0.6287670
  C        0.0292070    -1.3356180    -0.0781670
  C       -0.0652210     1.5501200     0.4236430
  C       -1.2633016    -0.6358621    -0.1703361
  C       -1.3010200     0.6792110     0.6017970
  H        1.2815110    -0.1258050    -1.3254330
  H        1.2829160     0.4071000     1.6706590
  H        2.0904420     1.3917410     0.4518040
  H        0.0420040    -2.2046970    -0.7480580
  H        0.0468530    -1.7199520     0.9526730
  H       -0.0971920     2.3821090     1.1446700
  H       -1.3133970    -0.2220240    -1.3458810
  H       -1.3538320     0.3483370     1.6492240
  H       -2.2017640     1.2636240     0.3898210
  H        3.3008500    -0.7206310    -0.1283000
  H        2.5136850    -2.0796090    -0.5553910
  H        0.6334020     2.6343050    -1.0521070
  H       -2.3814240    -1.6980050     0.7940470
units angstrom
no_reorient  #important for SAPT in psi4, default
symmetry c1  #important for SAPT in psi4, default
}

set PROPERTIES_ORIGIN ["COM"]
properties('MP2/aug-cc-pvtz', properties = ['dipole'])
--------------------------------------------------------------------------

    Molecular point group: c1
  Charge       = 0
  Multiplicity = 1
  Basis Set: AUG-CC-PVTZ
    Blend: AUG-CC-PVTZ
  Basis Set: (AUG-CC-PVTZ AUX)
    Blend: AUG-CC-PVTZ-JKFIT

    Orbital Energies [Eh]
    ---------------------

    Doubly Occupied:

       1A    -20.566357     2A    -20.559714     3A    -15.547126
       4A    -11.286704     5A    -11.279120     6A    -11.258980
       7A    -11.226089     8A    -11.220399     9A    -11.217605
      10A     -1.387369    11A     -1.359826    12A     -1.193719
      13A     -1.089286    14A     -1.002252    15A     -0.985490
      16A     -0.837961    17A     -0.826049    18A     -0.766676
      19A     -0.700105    20A     -0.680410    21A     -0.659301
      22A     -0.646007    23A     -0.635003    24A     -0.605210
      25A     -0.599190    26A     -0.566680    27A     -0.559074
      28A     -0.545471    29A     -0.524885    30A     -0.494939
      31A     -0.493345    32A     -0.464718    33A     -0.454843
      34A     -0.433076    35A     -0.403464    36A     -0.396743

  @DF-RHF Final Energy:  -439.08088618130648

   => Energetics <=

    Nuclear Repulsion Energy =            507.5531153510498825
    One-Electron Energy =               -1606.3216327427401211
    Two-Electron Energy =                 659.6876312103837563
    Total Energy =                       -439.0808861813064823
  Basis Set: (AUG-CC-PVTZ AUX)
    Blend: AUG-CC-PVTZ-RI
    Molecular point group: c1

    Geometry (in Angstrom), charge = 0, multiplicity = 1:

       Center              X                  Y                   Z               Mass
    ------------   -----------------  -----------------  -----------------  -----------------
         O           -0.115198276349     2.071281104148    -0.912629507931    15.994914619570
         O           -2.383966276349    -1.366615895852    -0.121018507931    15.994914619570
         N            2.491859723651    -1.264741895852     0.066889492069    14.003074004430
         C            1.303905723651    -0.472043895852    -0.278426507931    12.000000000000
         C            1.246455723651     0.751572104148     0.630908492069    12.000000000000
         C            0.058760723651    -1.330104895852    -0.076025507931    12.000000000000
         C           -0.035667276349     1.555633104148     0.425784492069    12.000000000000
         C           -1.233747876349    -0.630348995852    -0.168194607931    12.000000000000
         C           -1.271466276349     0.684724104148     0.603938492069    12.000000000000
         H            1.311064723651    -0.120291895852    -1.323291507931     1.007825032230
         H            1.312469723651     0.412613104148     1.672800492069     1.007825032230
         H            2.119995723651     1.397254104148     0.453945492069     1.007825032230
         H            0.071557723651    -2.199183895852    -0.745916507931     1.007825032230
         H            0.076406723651    -1.714438895852     0.954814492069     1.007825032230
         H           -0.067638276349     2.387622104148     1.146811492069     1.007825032230
         H           -1.283843276349    -0.216510895852    -1.343739507931     1.007825032230
         H           -1.324278276349     0.353850104148     1.651365492069     1.007825032230
         H           -2.172210276349     1.269137104148     0.391962492069     1.007825032230
         H            3.330403723651    -0.715117895852    -0.126158507931     1.007825032230
         H            2.543238723651    -2.074095895852    -0.553249507931     1.007825032230
         H            0.662955723651     2.639818104148    -1.049965507931     1.007825032230
         H           -2.351870276349    -1.692491895852     0.796188492069     1.007825032230

  Basis Set: AUG-CC-PVTZ
    Blend: AUG-CC-PVTZ
  Basis Set: (AUG-CC-PVTZ AUX)
    Blend: AUG-CC-PVTZ-JKFIT
	 Reference Energy          =    -439.0808861813064823 [Eh]
	 Singles Energy            =      -0.0000000000000000 [Eh]
	 Same-Spin Energy          =      -0.4529835618531540 [Eh]
	 Opposite-Spin Energy      =      -1.4754710875143986 [Eh]
	 Correlation Energy        =      -1.9284546493675525 [Eh]
	 Total Energy              =    -441.0093408306740344 [Eh]

	 ================> DF-SCS-MP2 Energies <==================
	-----------------------------------------------------------
	 SCS Same-Spin Scale       =       0.3333333333333333 [-]
	 SCS Opposite-Spin Scale   =       1.2000000000000000 [-]
	 SCS Same-Spin Energy      =      -0.1509945206177180 [Eh]
	 SCS Opposite-Spin Energy  =      -1.7705653050172783 [Eh]
	 SCS Correlation Energy    =      -1.9215598256349962 [Eh]
	 SCS Total Energy          =    -441.0024460069414545 [Eh]
	-----------------------------------------------------------

  Dipole Moment: [D]
     X:     2.4160      Y:     0.9119      Z:     0.8912     Total:     2.7318

*** Psi4 exiting successfully. Buy a developer a beer!
