                               Psi4 1.4a3.dev225

  ==> Input File <==

--------------------------------------------------------------------------
#psi4
#
memory 32 gb

molecule  {
0 1
  O       -0.1447520     2.0657680    -0.9147710
  O       -2.4135200    -1.3721290    -0.1231600
  N        2.4623060    -1.2702550     0.0647480
  C        1.2743520    -0.4775570    -0.2805680
  C        1.2169020     0.7460590     0.6287670
  C        0.1108208    -1.2793758    -0.0914335
  C       -0.0652210     1.5501200     0.4236430
  C       -1.2565570    -0.5478520    -0.3033930
  C       -1.3010200     0.6792110     0.6017970
  H        1.2815110    -0.1258050    -1.3254330
  H        1.2829160     0.4071000     1.6706590
  H        2.0904420     1.3917410     0.4518040
  H        0.0420040    -2.2046970    -0.7480580
  H        0.0468530    -1.7199520     0.9526730
  H       -0.0971920     2.3821090     1.1446700
  H       -1.3133970    -0.2220240    -1.3458810
  H       -1.3538320     0.3483370     1.6492240
  H       -2.2017640     1.2636240     0.3898210
  H        3.3008500    -0.7206310    -0.1283000
  H        2.5136850    -2.0796090    -0.5553910
  H        0.6334020     2.6343050    -1.0521070
  H       -2.3814240    -1.6980050     0.7940470
units angstrom
no_reorient  #important for SAPT in psi4, default
symmetry c1  #important for SAPT in psi4, default
}

set PROPERTIES_ORIGIN ["COM"]
properties('MP2/aug-cc-pvtz', properties = ['dipole'])
--------------------------------------------------------------------------

    Molecular point group: c1
  Charge       = 0
  Multiplicity = 1
  Basis Set: AUG-CC-PVTZ
    Blend: AUG-CC-PVTZ
  Basis Set: (AUG-CC-PVTZ AUX)
    Blend: AUG-CC-PVTZ-JKFIT

    Orbital Energies [Eh]
    ---------------------

    Doubly Occupied:

       1A    -20.562135     2A    -20.556126     3A    -15.546169
       4A    -11.286213     5A    -11.274979     6A    -11.251866
       7A    -11.226496     8A    -11.221622     9A    -11.219124
      10A     -1.363004    11A     -1.351608    12A     -1.199215
      13A     -1.089374    14A     -0.997618    15A     -0.989464
      16A     -0.843123    17A     -0.822387    18A     -0.768815
      19A     -0.698048    20A     -0.680305    21A     -0.656475
      22A     -0.641172    23A     -0.626214    24A     -0.610803
      25A     -0.591198    26A     -0.569539    27A     -0.548466
      28A     -0.529569    29A     -0.523689    30A     -0.504140
      31A     -0.484835    32A     -0.480346    33A     -0.454473
      34A     -0.442339    35A     -0.414872    36A     -0.396440

  @DF-RHF Final Energy:  -439.09717822998425

   => Energetics <=

    Nuclear Repulsion Energy =            507.8194381022042876
    One-Electron Energy =               -1606.9887199338954815
    Two-Electron Energy =                 660.0721036017069991
    Total Energy =                       -439.0971782299842516
  Basis Set: (AUG-CC-PVTZ AUX)
    Blend: AUG-CC-PVTZ-RI
    Molecular point group: c1

    Geometry (in Angstrom), charge = 0, multiplicity = 1:

       Center              X                  Y                   Z               Mass
    ------------   -----------------  -----------------  -----------------  -----------------
         O           -0.123286333128     2.058076691292    -0.899235512937    15.994914619570
         O           -2.392054333128    -1.379820308708    -0.107624512937    15.994914619570
         N            2.483771666872    -1.277946308708     0.080283487063    14.003074004430
         C            1.295817666872    -0.485248308708    -0.265032512937    12.000000000000
         C            1.238367666872     0.738367691292     0.644302487063    12.000000000000
         C            0.132286466872    -1.287067108708    -0.075898012937    12.000000000000
         C           -0.043755333128     1.542428691292     0.439178487063    12.000000000000
         C           -1.235091333128    -0.555543308708    -0.287857512937    12.000000000000
         C           -1.279554333128     0.671519691292     0.617332487063    12.000000000000
         H            1.302976666872    -0.133496308708    -1.309897512937     1.007825032230
         H            1.304381666872     0.399408691292     1.686194487063     1.007825032230
         H            2.111907666872     1.384049691292     0.467339487063     1.007825032230
         H            0.063469666872    -2.212388308708    -0.732522512937     1.007825032230
         H            0.068318666872    -1.727643308708     0.968208487063     1.007825032230
         H           -0.075726333128     2.374417691292     1.160205487063     1.007825032230
         H           -1.291931333128    -0.229715308708    -1.330345512937     1.007825032230
         H           -1.332366333128     0.340645691292     1.664759487063     1.007825032230
         H           -2.180298333128     1.255932691292     0.405356487063     1.007825032230
         H            3.322315666872    -0.728322308708    -0.112764512937     1.007825032230
         H            2.535150666872    -2.087300308708    -0.539855512937     1.007825032230
         H            0.654867666872     2.626613691292    -1.036571512937     1.007825032230
         H           -2.359958333128    -1.705696308708     0.809582487063     1.007825032230

  Basis Set: AUG-CC-PVTZ
    Blend: AUG-CC-PVTZ
  Basis Set: (AUG-CC-PVTZ AUX)
    Blend: AUG-CC-PVTZ-JKFIT
	 Reference Energy          =    -439.0971782299842516 [Eh]
	 Singles Energy            =      -0.0000000000000000 [Eh]
	 Same-Spin Energy          =      -0.4526289447729670 [Eh]
	 Opposite-Spin Energy      =      -1.4748024664674109 [Eh]
	 Correlation Energy        =      -1.9274314112403779 [Eh]
	 Total Energy              =    -441.0246096412246288 [Eh]

	 ================> DF-SCS-MP2 Energies <==================
	-----------------------------------------------------------
	 SCS Same-Spin Scale       =       0.3333333333333333 [-]
	 SCS Opposite-Spin Scale   =       1.2000000000000000 [-]
	 SCS Same-Spin Energy      =      -0.1508763149243223 [Eh]
	 SCS Opposite-Spin Energy  =      -1.7697629597608930 [Eh]
	 SCS Correlation Energy    =      -1.9206392746852154 [Eh]
	 SCS Total Energy          =    -441.0178175046694946 [Eh]
	-----------------------------------------------------------

  Dipole Moment: [D]
     X:     2.4730      Y:     1.1510      Z:     0.7463     Total:     2.8280

*** Psi4 exiting successfully. Buy a developer a beer!
