                               Psi4 1.4a3.dev225

  ==> Input File <==

--------------------------------------------------------------------------
#psi4
#
memory 32 gb

molecule  {
0 1
  O       -0.1447520     2.0657680    -0.9147710
  O       -2.4135200    -1.3721290    -0.1231600
  N        2.4623060    -1.2702550     0.0647480
  C        1.2743520    -0.4775570    -0.2805680
  C        1.2169020     0.7460590     0.6287670
  C        0.0292070    -1.3356180    -0.0781670
  C       -0.0652210     1.5501200     0.4236430
  C       -1.2565570    -0.5478520    -0.3033930
  C       -1.3010200     0.6792110     0.6017970
  H        1.2815110    -0.1258050    -1.3254330
  H        1.2829160     0.4071000     1.6706590
  H        2.0904420     1.3917410     0.4518040
  H        0.0420040    -2.2046970    -0.7480580
  H        0.0468530    -1.7199520     0.9526730
  H       -0.0971920     2.3821090     1.1446700
  H       -1.3133970    -0.2220240    -1.3458810
  H       -1.3538320     0.3483370     1.6492240
  H       -2.2017640     1.2636240     0.3898210
  H        3.3172754    -0.7098650    -0.1320814
  H        2.5136850    -2.0796090    -0.5553910
  H        0.6334020     2.6343050    -1.0521070
  H       -2.3814240    -1.6980050     0.7940470
units angstrom
no_reorient  #important for SAPT in psi4, default
symmetry c1  #important for SAPT in psi4, default
}

set PROPERTIES_ORIGIN ["COM"]
properties('MP2/aug-cc-pvtz', properties = ['dipole'])
--------------------------------------------------------------------------

    Molecular point group: c1
  Charge       = 0
  Multiplicity = 1
  Basis Set: AUG-CC-PVTZ
    Blend: AUG-CC-PVTZ
  Basis Set: (AUG-CC-PVTZ AUX)
    Blend: AUG-CC-PVTZ-JKFIT

    Orbital Energies [Eh]
    ---------------------

    Doubly Occupied:

       1A    -20.561868     2A    -20.551690     3A    -15.548322
       4A    -11.285908     5A    -11.272004     6A    -11.256535
       7A    -11.225772     8A    -11.219877     9A    -11.217773
      10A     -1.362649    11A     -1.350144    12A     -1.190408
      13A     -1.086709    14A     -0.996054    15A     -0.985292
      16A     -0.840354    17A     -0.822744    18A     -0.769506
      19A     -0.695660    20A     -0.677923    21A     -0.652862
      22A     -0.641652    23A     -0.624902    24A     -0.611461
      25A     -0.591636    26A     -0.563075    27A     -0.548344
      28A     -0.530369    29A     -0.526694    30A     -0.499863
      31A     -0.490326    32A     -0.475807    33A     -0.453605
      34A     -0.444001    35A     -0.420361    36A     -0.395226

  @DF-RHF Final Energy:  -439.10849840641589

   => Energetics <=

    Nuclear Repulsion Energy =            506.7791243321743764
    One-Electron Energy =               -1605.0004933163527312
    Two-Electron Energy =                 659.1128705777623509
    Total Energy =                       -439.1084984064159471
  Basis Set: (AUG-CC-PVTZ AUX)
    Blend: AUG-CC-PVTZ-RI
    Molecular point group: c1

    Geometry (in Angstrom), charge = 0, multiplicity = 1:

       Center              X                  Y                   Z               Mass
    ------------   -----------------  -----------------  -----------------  -----------------
         O           -0.115941930992     2.063142163177    -0.900420817110    15.994914619570
         O           -2.384709930992    -1.374754836823    -0.108809817110    15.994914619570
         N            2.491116069008    -1.272880836823     0.079098182890    14.003074004430
         C            1.303162069008    -0.480182836823    -0.266217817110    12.000000000000
         C            1.245712069008     0.743433163177     0.643117182890    12.000000000000
         C            0.058017069008    -1.338243836823    -0.063816817110    12.000000000000
         C           -0.036410930992     1.547494163177     0.437993182890    12.000000000000
         C           -1.227746930992    -0.550477836823    -0.289042817110    12.000000000000
         C           -1.272209930992     0.676585163177     0.616147182890    12.000000000000
         H            1.310321069008    -0.128430836823    -1.311082817110     1.007825032230
         H            1.311726069008     0.404474163177     1.685009182890     1.007825032230
         H            2.119252069008     1.389115163177     0.466154182890     1.007825032230
         H            0.070814069008    -2.207322836823    -0.733707817110     1.007825032230
         H            0.075663069008    -1.722577836823     0.967023182890     1.007825032230
         H           -0.068381930992     2.379483163177     1.159020182890     1.007825032230
         H           -1.284586930992    -0.224649836823    -1.331530817110     1.007825032230
         H           -1.325021930992     0.345711163177     1.663574182890     1.007825032230
         H           -2.172953930992     1.260998163177     0.404171182890     1.007825032230
         H            3.346085469008    -0.712490836823    -0.117731217110     1.007825032230
         H            2.542495069008    -2.082234836823    -0.541040817110     1.007825032230
         H            0.662212069008     2.631679163177    -1.037756817110     1.007825032230
         H           -2.352613930992    -1.700630836823     0.808397182890     1.007825032230

  Basis Set: AUG-CC-PVTZ
    Blend: AUG-CC-PVTZ
  Basis Set: (AUG-CC-PVTZ AUX)
    Blend: AUG-CC-PVTZ-JKFIT
	 Reference Energy          =    -439.1084984064158903 [Eh]
	 Singles Energy            =      -0.0000000000000000 [Eh]
	 Same-Spin Energy          =      -0.4516214010756606 [Eh]
	 Opposite-Spin Energy      =      -1.4736359988472538 [Eh]
	 Correlation Energy        =      -1.9252573999229146 [Eh]
	 Total Energy              =    -441.0337558063388315 [Eh]

	 ================> DF-SCS-MP2 Energies <==================
	-----------------------------------------------------------
	 SCS Same-Spin Scale       =       0.3333333333333333 [-]
	 SCS Opposite-Spin Scale   =       1.2000000000000000 [-]
	 SCS Same-Spin Energy      =      -0.1505404670252202 [Eh]
	 SCS Opposite-Spin Energy  =      -1.7683631986167045 [Eh]
	 SCS Correlation Energy    =      -1.9189036656419247 [Eh]
	 SCS Total Energy          =    -441.0274020720578392 [Eh]
	-----------------------------------------------------------

  Dipole Moment: [D]
     X:     2.5347      Y:     1.1296      Z:     0.7464     Total:     2.8736

*** Psi4 exiting successfully. Buy a developer a beer!
