                               Psi4 1.4a3.dev225

  ==> Input File <==

--------------------------------------------------------------------------
#psi4
#
memory 32 gb

molecule  {
0 1
  O       -0.1447520     2.0657680    -0.9147710
  O       -2.4135200    -1.3721290    -0.1231600
  N        2.4623060    -1.2702550     0.0647480
  C        1.2743520    -0.4775570    -0.2805680
  C        1.2244335     0.5856469     0.5095561
  C        0.0292070    -1.3356180    -0.0781670
  C       -0.0652210     1.5501200     0.4236430
  C       -1.2565570    -0.5478520    -0.3033930
  C       -1.3010200     0.6792110     0.6017970
  H        1.2815110    -0.1258050    -1.3254330
  H        1.2829160     0.4071000     1.6706590
  H        2.0904420     1.3917410     0.4518040
  H        0.0420040    -2.2046970    -0.7480580
  H        0.0468530    -1.7199520     0.9526730
  H       -0.0971920     2.3821090     1.1446700
  H       -1.3133970    -0.2220240    -1.3458810
  H       -1.3538320     0.3483370     1.6492240
  H       -2.2017640     1.2636240     0.3898210
  H        3.3008500    -0.7206310    -0.1283000
  H        2.5136850    -2.0796090    -0.5553910
  H        0.6334020     2.6343050    -1.0521070
  H       -2.3814240    -1.6980050     0.7940470
units angstrom
no_reorient  #important for SAPT in psi4, default
symmetry c1  #important for SAPT in psi4, default
}

set PROPERTIES_ORIGIN ["COM"]
properties('MP2/aug-cc-pvtz', properties = ['dipole'])
--------------------------------------------------------------------------

    Molecular point group: c1
  Charge       = 0
  Multiplicity = 1
  Basis Set: AUG-CC-PVTZ
    Blend: AUG-CC-PVTZ
  Basis Set: (AUG-CC-PVTZ AUX)
    Blend: AUG-CC-PVTZ-JKFIT

    Orbital Energies [Eh]
    ---------------------

    Doubly Occupied:

       1A    -20.560652     2A    -20.552767     3A    -15.546969
       4A    -11.292575     5A    -11.273285     6A    -11.246094
       7A    -11.234460     8A    -11.220126     9A    -11.219151
      10A     -1.361840    11A     -1.351056    12A     -1.209783
      13A     -1.091653    14A     -1.006412    15A     -0.987568
      16A     -0.849676    17A     -0.819766    18A     -0.767027
      19A     -0.697800    20A     -0.683438    21A     -0.660777
      22A     -0.642758    23A     -0.623551    24A     -0.611581
      25A     -0.589251    26A     -0.575787    27A     -0.555649
      28A     -0.527668    29A     -0.525585    30A     -0.502960
      31A     -0.496201    32A     -0.464658    33A     -0.442462
      34A     -0.432867    35A     -0.416229    36A     -0.399492

  @DF-RHF Final Energy:  -439.05873409250785

   => Energetics <=

    Nuclear Repulsion Energy =            509.3489525319700419
    One-Electron Energy =               -1609.9362261282037707
    Two-Electron Energy =                 661.5285395037258240
    Total Energy =                       -439.0587340925078479
  Basis Set: (AUG-CC-PVTZ AUX)
    Blend: AUG-CC-PVTZ-RI
    Molecular point group: c1

    Geometry (in Angstrom), charge = 0, multiplicity = 1:

       Center              X                  Y                   Z               Mass
    ------------   -----------------  -----------------  -----------------  -----------------
         O           -0.116505066732     2.077908561038    -0.889537687687    15.994914619570
         O           -2.385273066732    -1.359988438962    -0.097926687687    15.994914619570
         N            2.490552933268    -1.258114438962     0.089981312313    14.003074004430
         C            1.302598933268    -0.465416438962    -0.255334687687    12.000000000000
         C            1.252680433268     0.597787461038     0.534789412313    12.000000000000
         C            0.057453933268    -1.323477438962    -0.052933687687    12.000000000000
         C           -0.036974066732     1.562260561038     0.448876312313    12.000000000000
         C           -1.228310066732    -0.535711438962    -0.278159687687    12.000000000000
         C           -1.272773066732     0.691351561038     0.627030312313    12.000000000000
         H            1.309757933268    -0.113664438962    -1.300199687687     1.007825032230
         H            1.311162933268     0.419240561038     1.695892312313     1.007825032230
         H            2.118688933268     1.403881561038     0.477037312313     1.007825032230
         H            0.070250933268    -2.192556438962    -0.722824687687     1.007825032230
         H            0.075099933268    -1.707811438962     0.977906312313     1.007825032230
         H           -0.068945066732     2.394249561038     1.169903312313     1.007825032230
         H           -1.285150066732    -0.209883438962    -1.320647687687     1.007825032230
         H           -1.325585066732     0.360477561038     1.674457312313     1.007825032230
         H           -2.173517066732     1.275764561038     0.415054312313     1.007825032230
         H            3.329096933268    -0.708490438962    -0.103066687687     1.007825032230
         H            2.541931933268    -2.067468438962    -0.530157687687     1.007825032230
         H            0.661648933268     2.646445561038    -1.026873687687     1.007825032230
         H           -2.353177066732    -1.685864438962     0.819280312313     1.007825032230

  Basis Set: AUG-CC-PVTZ
    Blend: AUG-CC-PVTZ
  Basis Set: (AUG-CC-PVTZ AUX)
    Blend: AUG-CC-PVTZ-JKFIT
	 Reference Energy          =    -439.0587340925078479 [Eh]
	 Singles Energy            =      -0.0000000000000000 [Eh]
	 Same-Spin Energy          =      -0.4546331381260569 [Eh]
	 Opposite-Spin Energy      =      -1.4778183777768390 [Eh]
	 Correlation Energy        =      -1.9324515159028959 [Eh]
	 Total Energy              =    -440.9911856084107171 [Eh]

	 ================> DF-SCS-MP2 Energies <==================
	-----------------------------------------------------------
	 SCS Same-Spin Scale       =       0.3333333333333333 [-]
	 SCS Opposite-Spin Scale   =       1.2000000000000000 [-]
	 SCS Same-Spin Energy      =      -0.1515443793753523 [Eh]
	 SCS Opposite-Spin Energy  =      -1.7733820533322067 [Eh]
	 SCS Correlation Energy    =      -1.9249264327075590 [Eh]
	 SCS Total Energy          =    -440.9836605252153845 [Eh]
	-----------------------------------------------------------

  Dipole Moment: [D]
     X:     2.3944      Y:     1.1098      Z:     0.7074     Total:     2.7323

*** Psi4 exiting successfully. Buy a developer a beer!
