                               Psi4 1.4a3.dev225

  ==> Input File <==

--------------------------------------------------------------------------
#psi4
#
memory 32 gb

molecule  {
0 1
  O       -0.1447520     2.0657680    -0.9147710
  O       -2.4135200    -1.3721290    -0.1231600
  N        2.4623060    -1.2702550     0.0647480
  C        1.2743520    -0.4775570    -0.2805680
  C        1.2169020     0.7460590     0.6287670
  C        0.0292070    -1.3356180    -0.0781670
  C       -0.0652210     1.5501200     0.4236430
  C       -1.2565570    -0.5478520    -0.3033930
  C       -1.2995626     0.6389916     0.5721276
  H        1.2815110    -0.1258050    -1.3254330
  H        1.2829160     0.4071000     1.6706590
  H        2.0904420     1.3917410     0.4518040
  H        0.0420040    -2.2046970    -0.7480580
  H        0.0468530    -1.7199520     0.9526730
  H       -0.0971920     2.3821090     1.1446700
  H       -1.3133970    -0.2220240    -1.3458810
  H       -1.3538320     0.3483370     1.6492240
  H       -2.2017640     1.2636240     0.3898210
  H        3.3008500    -0.7206310    -0.1283000
  H        2.5136850    -2.0796090    -0.5553910
  H        0.6334020     2.6343050    -1.0521070
  H       -2.3814240    -1.6980050     0.7940470
units angstrom
no_reorient  #important for SAPT in psi4, default
symmetry c1  #important for SAPT in psi4, default
}

set PROPERTIES_ORIGIN ["COM"]
properties('MP2/aug-cc-pvtz', properties = ['dipole'])
--------------------------------------------------------------------------

    Molecular point group: c1
  Charge       = 0
  Multiplicity = 1
  Basis Set: AUG-CC-PVTZ
    Blend: AUG-CC-PVTZ
  Basis Set: (AUG-CC-PVTZ AUX)
    Blend: AUG-CC-PVTZ-JKFIT

    Orbital Energies [Eh]
    ---------------------

    Doubly Occupied:

       1A    -20.561834     2A    -20.551394     3A    -15.546170
       4A    -11.287543     5A    -11.269741     6A    -11.256657
       7A    -11.225560     8A    -11.221626     9A    -11.217820
      10A     -1.362731    11A     -1.350942    12A     -1.192560
      13A     -1.089888    14A     -0.997680    15A     -0.986006
      16A     -0.843017    17A     -0.821912    18A     -0.769253
      19A     -0.696383    20A     -0.678587    21A     -0.655017
      22A     -0.641326    23A     -0.627989    24A     -0.612802
      25A     -0.592903    26A     -0.563640    27A     -0.549278
      28A     -0.529998    29A     -0.523276    30A     -0.498782
      31A     -0.489273    32A     -0.474081    33A     -0.450808
      34A     -0.443351    35A     -0.426617    36A     -0.395820

  @DF-RHF Final Energy:  -439.10654436196353

   => Energetics <=

    Nuclear Repulsion Energy =            507.4858393661857576
    One-Electron Energy =               -1606.3802376200612798
    Two-Electron Energy =                 659.7878538919120501
    Total Energy =                       -439.1065443619635289
  Basis Set: (AUG-CC-PVTZ AUX)
    Blend: AUG-CC-PVTZ-RI
    Molecular point group: c1

    Geometry (in Angstrom), charge = 0, multiplicity = 1:

       Center              X                  Y                   Z               Mass
    ------------   -----------------  -----------------  -----------------  -----------------
         O           -0.115949062258     2.066906490132    -0.897734041809    15.994914619570
         O           -2.384717062258    -1.370990509868    -0.106123041809    15.994914619570
         N            2.491108937742    -1.269116509868     0.081784958191    14.003074004430
         C            1.303154937742    -0.476418509868    -0.263531041809    12.000000000000
         C            1.245704937742     0.747197490132     0.645803958191    12.000000000000
         C            0.058009937742    -1.334479509868    -0.061130041809    12.000000000000
         C           -0.036418062258     1.551258490132     0.440679958191    12.000000000000
         C           -1.227754062258    -0.546713509868    -0.286356041809    12.000000000000
         C           -1.270759662258     0.640130090132     0.589164558191    12.000000000000
         H            1.310313937742    -0.124666509868    -1.308396041809     1.007825032230
         H            1.311718937742     0.408238490132     1.687695958191     1.007825032230
         H            2.119244937742     1.392879490132     0.468840958191     1.007825032230
         H            0.070806937742    -2.203558509868    -0.731021041809     1.007825032230
         H            0.075655937742    -1.718813509868     0.969709958191     1.007825032230
         H           -0.068389062258     2.383247490132     1.161706958191     1.007825032230
         H           -1.284594062258    -0.220885509868    -1.328844041809     1.007825032230
         H           -1.325029062258     0.349475490132     1.666260958191     1.007825032230
         H           -2.172961062258     1.264762490132     0.406857958191     1.007825032230
         H            3.329652937742    -0.719492509868    -0.111263041809     1.007825032230
         H            2.542487937742    -2.078470509868    -0.538354041809     1.007825032230
         H            0.662204937742     2.635443490132    -1.035070041809     1.007825032230
         H           -2.352621062258    -1.696866509868     0.811083958191     1.007825032230

  Basis Set: AUG-CC-PVTZ
    Blend: AUG-CC-PVTZ
  Basis Set: (AUG-CC-PVTZ AUX)
    Blend: AUG-CC-PVTZ-JKFIT
	 Reference Energy          =    -439.1065443619635289 [Eh]
	 Singles Energy            =      -0.0000000000000000 [Eh]
	 Same-Spin Energy          =      -0.4518762639155040 [Eh]
	 Opposite-Spin Energy      =      -1.4736885510388436 [Eh]
	 Correlation Energy        =      -1.9255648149543476 [Eh]
	 Total Energy              =    -441.0321091769178565 [Eh]

	 ================> DF-SCS-MP2 Energies <==================
	-----------------------------------------------------------
	 SCS Same-Spin Scale       =       0.3333333333333333 [-]
	 SCS Opposite-Spin Scale   =       1.2000000000000000 [-]
	 SCS Same-Spin Energy      =      -0.1506254213051680 [Eh]
	 SCS Opposite-Spin Energy  =      -1.7684262612466122 [Eh]
	 SCS Correlation Energy    =      -1.9190516825517800 [Eh]
	 SCS Total Energy          =    -441.0255960445152823 [Eh]
	-----------------------------------------------------------

  Dipole Moment: [D]
     X:     2.5605      Y:     1.1542      Z:     0.7431     Total:     2.9052

*** Psi4 exiting successfully. Buy a developer a beer!
