                               Psi4 1.4a3.dev225

  ==> Input File <==

--------------------------------------------------------------------------
#psi4
#
memory 32 gb

molecule  {
0 1
  O       -0.1447520     2.0657680    -0.9147710
  O       -2.4135200    -1.3721290    -0.1231600
  N        2.4195179    -1.3677894    -0.0461980
  C        1.2743520    -0.4775570    -0.2805680
  C        1.2169020     0.7460590     0.6287670
  C        0.0292070    -1.3356180    -0.0781670
  C       -0.0652210     1.5501200     0.4236430
  C       -1.2565570    -0.5478520    -0.3033930
  C       -1.3010200     0.6792110     0.6017970
  H        1.2815110    -0.1258050    -1.3254330
  H        1.2829160     0.4071000     1.6706590
  H        2.0904420     1.3917410     0.4518040
  H        0.0420040    -2.2046970    -0.7480580
  H        0.0468530    -1.7199520     0.9526730
  H       -0.0971920     2.3821090     1.1446700
  H       -1.3133970    -0.2220240    -1.3458810
  H       -1.3538320     0.3483370     1.6492240
  H       -2.2017640     1.2636240     0.3898210
  H        3.3008500    -0.7206310    -0.1283000
  H        2.5136850    -2.0796090    -0.5553910
  H        0.6334020     2.6343050    -1.0521070
  H       -2.3814240    -1.6980050     0.7940470
units angstrom
no_reorient  #important for SAPT in psi4, default
symmetry c1  #important for SAPT in psi4, default
}

set PROPERTIES_ORIGIN ["COM"]
properties('MP2/aug-cc-pvtz', properties = ['dipole'])
--------------------------------------------------------------------------

    Molecular point group: c1
  Charge       = 0
  Multiplicity = 1
  Basis Set: AUG-CC-PVTZ
    Blend: AUG-CC-PVTZ
  Basis Set: (AUG-CC-PVTZ AUX)
    Blend: AUG-CC-PVTZ-JKFIT

    Orbital Energies [Eh]
    ---------------------

    Doubly Occupied:

       1A    -20.563029     2A    -20.550599     3A    -15.534418
       4A    -11.288909     5A    -11.270390     6A    -11.257881
       7A    -11.230408     8A    -11.220386     9A    -11.215519
      10A     -1.363832    11A     -1.349205    12A     -1.198435
      13A     -1.091461    14A     -0.996442    15A     -0.991043
      16A     -0.841003    17A     -0.828810    18A     -0.771052
      19A     -0.697746    20A     -0.686772    21A     -0.666768
      22A     -0.641797    23A     -0.621373    24A     -0.610258
      25A     -0.594909    26A     -0.570552    27A     -0.544559
      28A     -0.530923    29A     -0.526288    30A     -0.500813
      31A     -0.492068    32A     -0.477846    33A     -0.455409
      34A     -0.440352    35A     -0.420255    36A     -0.386211

  @DF-RHF Final Energy:  -439.08248071852478

   => Energetics <=

    Nuclear Repulsion Energy =            506.9929241845778733
    One-Electron Energy =               -1605.2953718483299781
    Two-Electron Energy =                 659.2199669452272701
    Total Energy =                       -439.0824807185247209
  Basis Set: (AUG-CC-PVTZ AUX)
    Blend: AUG-CC-PVTZ-RI
    Molecular point group: c1

    Geometry (in Angstrom), charge = 0, multiplicity = 1:

       Center              X                  Y                   Z               Mass
    ------------   -----------------  -----------------  -----------------  -----------------
         O           -0.111245179749     2.073643216344    -0.888599020331    15.994914619570
         O           -2.380013179749    -1.364253783656    -0.096988020331    15.994914619570
         N            2.453024720251    -1.359914183656    -0.020026020331    14.003074004430
         C            1.307858820251    -0.469681783656    -0.254396020331    12.000000000000
         C            1.250408820251     0.753934216344     0.654938979669    12.000000000000
         C            0.062713820251    -1.327742783656    -0.051995020331    12.000000000000
         C           -0.031714179749     1.557995216344     0.449814979669    12.000000000000
         C           -1.223050179749    -0.539976783656    -0.277221020331    12.000000000000
         C           -1.267513179749     0.687086216344     0.627968979669    12.000000000000
         H            1.315017820251    -0.117929783656    -1.299261020331     1.007825032230
         H            1.316422820251     0.414975216344     1.696830979669     1.007825032230
         H            2.123948820251     1.399616216344     0.477975979669     1.007825032230
         H            0.075510820251    -2.196821783656    -0.721886020331     1.007825032230
         H            0.080359820251    -1.712076783656     0.978844979669     1.007825032230
         H           -0.063685179749     2.389984216344     1.170841979669     1.007825032230
         H           -1.279890179749    -0.214148783656    -1.319709020331     1.007825032230
         H           -1.320325179749     0.356212216344     1.675395979669     1.007825032230
         H           -2.168257179749     1.271499216344     0.415992979669     1.007825032230
         H            3.334356820251    -0.712755783656    -0.102128020331     1.007825032230
         H            2.547191820251    -2.071733783656    -0.529219020331     1.007825032230
         H            0.666908820251     2.642180216344    -1.025935020331     1.007825032230
         H           -2.347917179749    -1.690129783656     0.820218979669     1.007825032230

  Basis Set: AUG-CC-PVTZ
    Blend: AUG-CC-PVTZ
  Basis Set: (AUG-CC-PVTZ AUX)
    Blend: AUG-CC-PVTZ-JKFIT
	 Reference Energy          =    -439.0824807185247778 [Eh]
	 Singles Energy            =      -0.0000000000000000 [Eh]
	 Same-Spin Energy          =      -0.4511777301990496 [Eh]
	 Opposite-Spin Energy      =      -1.4725058107643656 [Eh]
	 Correlation Energy        =      -1.9236835409634152 [Eh]
	 Total Energy              =    -441.0061642594881732 [Eh]

	 ================> DF-SCS-MP2 Energies <==================
	-----------------------------------------------------------
	 SCS Same-Spin Scale       =       0.3333333333333333 [-]
	 SCS Opposite-Spin Scale   =       1.2000000000000000 [-]
	 SCS Same-Spin Energy      =      -0.1503925767330165 [Eh]
	 SCS Opposite-Spin Energy  =      -1.7670069729172386 [Eh]
	 SCS Correlation Energy    =      -1.9173995496502552 [Eh]
	 SCS Total Energy          =    -440.9998802681750476 [Eh]
	-----------------------------------------------------------

  Dipole Moment: [D]
     X:     2.5597      Y:     1.2884      Z:     0.9411     Total:     3.0162

*** Psi4 exiting successfully. Buy a developer a beer!
