                               Psi4 1.4a3.dev225

  ==> Input File <==

--------------------------------------------------------------------------
#psi4
#
memory 32 gb

molecule  {
0 1
  O       -0.1447520     2.0657680    -0.9147710
  O       -2.4135200    -1.3721290    -0.1231600
  N        2.4623060    -1.2702550     0.0647480
  C        1.2743520    -0.4775570    -0.2805680
  C        1.2169020     0.7460590     0.6287670
  C        0.0292070    -1.3356180    -0.0781670
  C       -0.0652210     1.5501200     0.4236430
  C       -1.2565570    -0.5478520    -0.3033930
  C       -1.3010200     0.6792110     0.6017970
  H        1.2815110    -0.1258050    -1.3254330
  H        1.2829160     0.4071000     1.6706590
  H        2.0904420     1.3917410     0.4518040
  H        0.0420040    -2.2046970    -0.7480580
  H        0.0468530    -1.7199520     0.9526730
  H       -0.0957406     2.3443398     1.1119381
  H       -1.3133970    -0.2220240    -1.3458810
  H       -1.3538320     0.3483370     1.6492240
  H       -2.2017640     1.2636240     0.3898210
  H        3.3008500    -0.7206310    -0.1283000
  H        2.5136850    -2.0796090    -0.5553910
  H        0.6334020     2.6343050    -1.0521070
  H       -2.3814240    -1.6980050     0.7940470
units angstrom
no_reorient  #important for SAPT in psi4, default
symmetry c1  #important for SAPT in psi4, default
}

set PROPERTIES_ORIGIN ["COM"]
properties('MP2/aug-cc-pvtz', properties = ['dipole'])
--------------------------------------------------------------------------

    Molecular point group: c1
  Charge       = 0
  Multiplicity = 1
  Basis Set: AUG-CC-PVTZ
    Blend: AUG-CC-PVTZ
  Basis Set: (AUG-CC-PVTZ AUX)
    Blend: AUG-CC-PVTZ-JKFIT

    Orbital Energies [Eh]
    ---------------------

    Doubly Occupied:

       1A    -20.560988     2A    -20.551336     3A    -15.545782
       4A    -11.279562     5A    -11.271601     6A    -11.256156
       7A    -11.225331     8A    -11.219435     9A    -11.217412
      10A     -1.362224    11A     -1.349806    12A     -1.192047
      13A     -1.087609    14A     -0.997187    15A     -0.985825
      16A     -0.843248    17A     -0.824039    18A     -0.769663
      19A     -0.699730    20A     -0.677647    21A     -0.655529
      22A     -0.642105    23A     -0.625510    24A     -0.612676
      25A     -0.591666    26A     -0.563718    27A     -0.548564
      28A     -0.530191    29A     -0.526824    30A     -0.500436
      31A     -0.490026    32A     -0.475599    33A     -0.453251
      34A     -0.444782    35A     -0.421283    36A     -0.395442

  @DF-RHF Final Energy:  -439.10893336081142

   => Energetics <=

    Nuclear Repulsion Energy =            507.1787225945137720
    One-Electron Energy =               -1605.7868507339419466
    Two-Electron Energy =                 659.4991947786166975
    Total Energy =                       -439.1089333608114202
  Basis Set: (AUG-CC-PVTZ AUX)
    Blend: AUG-CC-PVTZ-RI
    Molecular point group: c1

    Geometry (in Angstrom), charge = 0, multiplicity = 1:

       Center              X                  Y                   Z               Mass
    ------------   -----------------  -----------------  -----------------  -----------------
         O           -0.115826814361     2.063515290512    -0.900198252396    15.994914619570
         O           -2.384594814361    -1.374381709488    -0.108587252396    15.994914619570
         N            2.491231185639    -1.272507709488     0.079320747604    14.003074004430
         C            1.303277185639    -0.479809709488    -0.265995252396    12.000000000000
         C            1.245827185639     0.743806290512     0.643339747604    12.000000000000
         C            0.058132185639    -1.337870709488    -0.063594252396    12.000000000000
         C           -0.036295814361     1.547867290512     0.438215747604    12.000000000000
         C           -1.227631814361    -0.550104709488    -0.288820252396    12.000000000000
         C           -1.272094814361     0.676958290512     0.616369747604    12.000000000000
         H            1.310436185639    -0.128057709488    -1.310860252396     1.007825032230
         H            1.311841185639     0.404847290512     1.685231747604     1.007825032230
         H            2.119367185639     1.389488290512     0.466376747604     1.007825032230
         H            0.070929185639    -2.206949709488    -0.733485252396     1.007825032230
         H            0.075778185639    -1.722204709488     0.967245747604     1.007825032230
         H           -0.066815414361     2.342087090512     1.126510847604     1.007825032230
         H           -1.284471814361    -0.224276709488    -1.331308252396     1.007825032230
         H           -1.324906814361     0.346084290512     1.663796747604     1.007825032230
         H           -2.172838814361     1.261371290512     0.404393747604     1.007825032230
         H            3.329775185639    -0.722883709488    -0.113727252396     1.007825032230
         H            2.542610185639    -2.081861709488    -0.540818252396     1.007825032230
         H            0.662327185639     2.632052290512    -1.037534252396     1.007825032230
         H           -2.352498814361    -1.700257709488     0.808619747604     1.007825032230

  Basis Set: AUG-CC-PVTZ
    Blend: AUG-CC-PVTZ
  Basis Set: (AUG-CC-PVTZ AUX)
    Blend: AUG-CC-PVTZ-JKFIT
	 Reference Energy          =    -439.1089333608114202 [Eh]
	 Singles Energy            =      -0.0000000000000000 [Eh]
	 Same-Spin Energy          =      -0.4514471618109660 [Eh]
	 Opposite-Spin Energy      =      -1.4728870254318180 [Eh]
	 Correlation Energy        =      -1.9243341872427839 [Eh]
	 Total Energy              =    -441.0332675480541980 [Eh]

	 ================> DF-SCS-MP2 Energies <==================
	-----------------------------------------------------------
	 SCS Same-Spin Scale       =       0.3333333333333333 [-]
	 SCS Opposite-Spin Scale   =       1.2000000000000000 [-]
	 SCS Same-Spin Energy      =      -0.1504823872703220 [Eh]
	 SCS Opposite-Spin Energy  =      -1.7674644305181817 [Eh]
	 SCS Correlation Energy    =      -1.9179468177885037 [Eh]
	 SCS Total Energy          =    -441.0268801785999244 [Eh]
	-----------------------------------------------------------

  Dipole Moment: [D]
     X:     2.5361      Y:     1.1592      Z:     0.7789     Total:     2.8952

*** Psi4 exiting successfully. Buy a developer a beer!
