                               Psi4 1.4a3.dev225

  ==> Input File <==

--------------------------------------------------------------------------
#psi4
#
memory 32 gb

molecule  {
0 1
  O       -0.1447520     2.0657680    -0.9147710
  O       -2.4135200    -1.3721290    -0.1231600
  N        2.4623060    -1.2702550     0.0647480
  C        1.2743520    -0.4775570    -0.2805680
  C        1.2169020     0.7460590     0.6287670
  C        0.0292070    -1.3356180    -0.0781670
  C       -0.0652210     1.5501200     0.4236430
  C       -1.2635850    -0.5435244    -0.3269827
  C       -1.3010200     0.6792110     0.6017970
  H        1.2815110    -0.1258050    -1.3254330
  H        1.2829160     0.4071000     1.6706590
  H        2.0904420     1.3917410     0.4518040
  H        0.0420040    -2.2046970    -0.7480580
  H        0.0468530    -1.7199520     0.9526730
  H       -0.0971920     2.3821090     1.1446700
  H       -1.3133970    -0.2220240    -1.3458810
  H       -1.3538320     0.3483370     1.6492240
  H       -2.2017640     1.2636240     0.3898210
  H        3.3008500    -0.7206310    -0.1283000
  H        2.5136850    -2.0796090    -0.5553910
  H        0.6334020     2.6343050    -1.0521070
  H       -2.3814240    -1.6980050     0.7940470
units angstrom
no_reorient  #important for SAPT in psi4, default
symmetry c1  #important for SAPT in psi4, default
}

set PROPERTIES_ORIGIN ["COM"]
properties('MP2/aug-cc-pvtz', properties = ['dipole'])
--------------------------------------------------------------------------

    Molecular point group: c1
  Charge       = 0
  Multiplicity = 1
  Basis Set: AUG-CC-PVTZ
    Blend: AUG-CC-PVTZ
  Basis Set: (AUG-CC-PVTZ AUX)
    Blend: AUG-CC-PVTZ-JKFIT

    Orbital Energies [Eh]
    ---------------------

    Doubly Occupied:

       1A    -20.561931     2A    -20.550845     3A    -15.545814
       4A    -11.285548     5A    -11.271585     6A    -11.256082
       7A    -11.225544     8A    -11.219901     9A    -11.217776
      10A     -1.362618    11A     -1.349164    12A     -1.191946
      13A     -1.085787    14A     -0.994854    15A     -0.984923
      16A     -0.841688    17A     -0.822914    18A     -0.770319
      19A     -0.695819    20A     -0.677509    21A     -0.654165
      22A     -0.640790    23A     -0.625256    24A     -0.614116
      25A     -0.592002    26A     -0.563624    27A     -0.547394
      28A     -0.528568    29A     -0.526614    30A     -0.500741
      31A     -0.490288    32A     -0.479531    33A     -0.453168
      34A     -0.444017    35A     -0.417484    36A     -0.394924

  @DF-RHF Final Energy:  -439.10922676524785

   => Energetics <=

    Nuclear Repulsion Energy =            506.6567561858812496
    One-Electron Energy =               -1604.7614674591361563
    Two-Electron Energy =                 658.9954845080070527
    Total Energy =                       -439.1092267652478540
  Basis Set: (AUG-CC-PVTZ AUX)
    Blend: AUG-CC-PVTZ-RI
    Molecular point group: c1

    Geometry (in Angstrom), charge = 0, multiplicity = 1:

       Center              X                  Y                   Z               Mass
    ------------   -----------------  -----------------  -----------------  -----------------
         O           -0.115172334783     2.062828794459    -0.898290558889    15.994914619570
         O           -2.383940334783    -1.375068205541    -0.106679558889    15.994914619570
         N            2.491885665217    -1.273194205541     0.081228441111    14.003074004430
         C            1.303931665217    -0.480496205541    -0.264087558889    12.000000000000
         C            1.246481665217     0.743119794459     0.645247441111    12.000000000000
         C            0.058786665217    -1.338557205541    -0.061686558889    12.000000000000
         C           -0.035641334783     1.547180794459     0.440123441111    12.000000000000
         C           -1.234005334783    -0.546463605541    -0.310502258889    12.000000000000
         C           -1.271440334783     0.676271794459     0.618277441111    12.000000000000
         H            1.311090665217    -0.128744205541    -1.308952558889     1.007825032230
         H            1.312495665217     0.404160794459     1.687139441111     1.007825032230
         H            2.120021665217     1.388801794459     0.468284441111     1.007825032230
         H            0.071583665217    -2.207636205541    -0.731577558889     1.007825032230
         H            0.076432665217    -1.722891205541     0.969153441111     1.007825032230
         H           -0.067612334783     2.379169794459     1.161150441111     1.007825032230
         H           -1.283817334783    -0.224963205541    -1.329400558889     1.007825032230
         H           -1.324252334783     0.345397794459     1.665704441111     1.007825032230
         H           -2.172184334783     1.260684794459     0.406301441111     1.007825032230
         H            3.330429665217    -0.723570205541    -0.111819558889     1.007825032230
         H            2.543264665217    -2.082548205541    -0.538910558889     1.007825032230
         H            0.662981665217     2.631365794459    -1.035626558889     1.007825032230
         H           -2.351844334783    -1.700944205541     0.810527441111     1.007825032230

  Basis Set: AUG-CC-PVTZ
    Blend: AUG-CC-PVTZ
  Basis Set: (AUG-CC-PVTZ AUX)
    Blend: AUG-CC-PVTZ-JKFIT
	 Reference Energy          =    -439.1092267652478540 [Eh]
	 Singles Energy            =      -0.0000000000000000 [Eh]
	 Same-Spin Energy          =      -0.4513030815853640 [Eh]
	 Opposite-Spin Energy      =      -1.4730052625109096 [Eh]
	 Correlation Energy        =      -1.9243083440962736 [Eh]
	 Total Energy              =    -441.0335351093441432 [Eh]

	 ================> DF-SCS-MP2 Energies <==================
	-----------------------------------------------------------
	 SCS Same-Spin Scale       =       0.3333333333333333 [-]
	 SCS Opposite-Spin Scale   =       1.2000000000000000 [-]
	 SCS Same-Spin Energy      =      -0.1504343605284547 [Eh]
	 SCS Opposite-Spin Energy  =      -1.7676063150130914 [Eh]
	 SCS Correlation Energy    =      -1.9180406755415460 [Eh]
	 SCS Total Energy          =    -441.0272674407893874 [Eh]
	-----------------------------------------------------------

  Dipole Moment: [D]
     X:     2.5215      Y:     1.1283      Z:     0.7239     Total:     2.8557

*** Psi4 exiting successfully. Buy a developer a beer!
