                               Psi4 1.4a3.dev225

  ==> Input File <==

--------------------------------------------------------------------------
#psi4
#
memory 32 gb

molecule  {
0 1
  O       -0.1447520     2.0657680    -0.9147710
  O       -2.4135200    -1.3721290    -0.1231600
  N        2.4623060    -1.2702550     0.0647480
  C        1.2743520    -0.4775570    -0.2805680
  C        1.2169020     0.7460590     0.6287670
  C        0.0292070    -1.3356180    -0.0781670
  C       -0.0652210     1.5501200     0.4236430
  C       -1.2565570    -0.5478520    -0.3033930
  C       -1.3010200     0.6792110     0.6017970
  H        1.2821603    -0.0939003    -1.4202047
  H        1.2829160     0.4071000     1.6706590
  H        2.0904420     1.3917410     0.4518040
  H        0.0420040    -2.2046970    -0.7480580
  H        0.0468530    -1.7199520     0.9526730
  H       -0.0971920     2.3821090     1.1446700
  H       -1.3133970    -0.2220240    -1.3458810
  H       -1.3538320     0.3483370     1.6492240
  H       -2.2017640     1.2636240     0.3898210
  H        3.3008500    -0.7206310    -0.1283000
  H        2.5136850    -2.0796090    -0.5553910
  H        0.6334020     2.6343050    -1.0521070
  H       -2.3814240    -1.6980050     0.7940470
units angstrom
no_reorient  #important for SAPT in psi4, default
symmetry c1  #important for SAPT in psi4, default
}

set PROPERTIES_ORIGIN ["COM"]
properties('MP2/aug-cc-pvtz', properties = ['dipole'])
--------------------------------------------------------------------------

    Molecular point group: c1
  Charge       = 0
  Multiplicity = 1
  Basis Set: AUG-CC-PVTZ
    Blend: AUG-CC-PVTZ
  Basis Set: (AUG-CC-PVTZ AUX)
    Blend: AUG-CC-PVTZ-JKFIT

    Orbital Energies [Eh]
    ---------------------

    Doubly Occupied:

       1A    -20.561188     2A    -20.551803     3A    -15.547795
       4A    -11.286047     5A    -11.271976     6A    -11.268453
       7A    -11.227027     8A    -11.219969     9A    -11.218846
      10A     -1.362121    11A     -1.350220    12A     -1.192154
      13A     -1.087620    14A     -0.996538    15A     -0.985047
      16A     -0.840745    17A     -0.819363    18A     -0.764486
      19A     -0.695518    20A     -0.673976    21A     -0.654690
      22A     -0.639779    23A     -0.626115    24A     -0.611784
      25A     -0.590016    26A     -0.563124    27A     -0.548290
      28A     -0.530674    29A     -0.526652    30A     -0.499055
      31A     -0.488051    32A     -0.476019    33A     -0.453795
      34A     -0.444645    35A     -0.420346    36A     -0.391355

  @DF-RHF Final Energy:  -439.10284454323391

   => Energetics <=

    Nuclear Repulsion Energy =            506.3996100517721857
    One-Electron Energy =               -1604.2343398564896688
    Two-Electron Energy =                 658.7318852614835123
    Total Energy =                       -439.1028445432339140
  Basis Set: (AUG-CC-PVTZ AUX)
    Blend: AUG-CC-PVTZ-RI
    Molecular point group: c1

    Geometry (in Angstrom), charge = 0, multiplicity = 1:

       Center              X                  Y                   Z               Mass
    ------------   -----------------  -----------------  -----------------  -----------------
         O           -0.115820648002     2.062979653765    -0.899721304834    15.994914619570
         O           -2.384588648002    -1.374917346235    -0.108110304834    15.994914619570
         N            2.491237351998    -1.273043346235     0.079797695166    14.003074004430
         C            1.303283351998    -0.480345346235    -0.265518304834    12.000000000000
         C            1.245833351998     0.743270653765     0.643816695166    12.000000000000
         C            0.058138351998    -1.338406346235    -0.063117304834    12.000000000000
         C           -0.036289648002     1.547331653765     0.438692695166    12.000000000000
         C           -1.227625648002    -0.550640346235    -0.288343304834    12.000000000000
         C           -1.272088648002     0.676422653765     0.616846695166    12.000000000000
         H            1.311091651998    -0.096688646235    -1.405155004834     1.007825032230
         H            1.311847351998     0.404311653765     1.685708695166     1.007825032230
         H            2.119373351998     1.388952653765     0.466853695166     1.007825032230
         H            0.070935351998    -2.207485346235    -0.733008304834     1.007825032230
         H            0.075784351998    -1.722740346235     0.967722695166     1.007825032230
         H           -0.068260648002     2.379320653765     1.159719695166     1.007825032230
         H           -1.284465648002    -0.224812346235    -1.330831304834     1.007825032230
         H           -1.324900648002     0.345548653765     1.664273695166     1.007825032230
         H           -2.172832648002     1.260835653765     0.404870695166     1.007825032230
         H            3.329781351998    -0.723419346235    -0.113250304834     1.007825032230
         H            2.542616351998    -2.082397346235    -0.540341304834     1.007825032230
         H            0.662333351998     2.631516653765    -1.037057304834     1.007825032230
         H           -2.352492648002    -1.700793346235     0.809096695166     1.007825032230

  Basis Set: AUG-CC-PVTZ
    Blend: AUG-CC-PVTZ
  Basis Set: (AUG-CC-PVTZ AUX)
    Blend: AUG-CC-PVTZ-JKFIT
	 Reference Energy          =    -439.1028445432339140 [Eh]
	 Singles Energy            =      -0.0000000000000000 [Eh]
	 Same-Spin Energy          =      -0.4516832799430754 [Eh]
	 Opposite-Spin Energy      =      -1.4741528015487120 [Eh]
	 Correlation Energy        =      -1.9258360814917874 [Eh]
	 Total Energy              =    -441.0286806247257232 [Eh]

	 ================> DF-SCS-MP2 Energies <==================
	-----------------------------------------------------------
	 SCS Same-Spin Scale       =       0.3333333333333333 [-]
	 SCS Opposite-Spin Scale   =       1.2000000000000000 [-]
	 SCS Same-Spin Energy      =      -0.1505610933143585 [Eh]
	 SCS Opposite-Spin Energy  =      -1.7689833618584543 [Eh]
	 SCS Correlation Energy    =      -1.9195444551728127 [Eh]
	 SCS Total Energy          =    -441.0223889984067114 [Eh]
	-----------------------------------------------------------

  Dipole Moment: [D]
     X:     2.5568      Y:     1.0881      Z:     0.8261     Total:     2.8989

*** Psi4 exiting successfully. Buy a developer a beer!
