                               Psi4 1.4a3.dev225

  ==> Input File <==

--------------------------------------------------------------------------
#psi4
#
memory 32 gb

molecule  {
0 1
  O       -0.1447520     2.0657680    -0.9147710
  O       -2.4135200    -1.3721290    -0.1231600
  N        2.4623060    -1.2702550     0.0647480
  C        1.2743520    -0.4775570    -0.2805680
  C        1.2169020     0.7460590     0.6287670
  C       -0.0524068    -1.3918602    -0.0649005
  C       -0.0652210     1.5501200     0.4236430
  C       -1.2565570    -0.5478520    -0.3033930
  C       -1.3010200     0.6792110     0.6017970
  H        1.2815110    -0.1258050    -1.3254330
  H        1.2829160     0.4071000     1.6706590
  H        2.0904420     1.3917410     0.4518040
  H        0.0420040    -2.2046970    -0.7480580
  H        0.0468530    -1.7199520     0.9526730
  H       -0.0971920     2.3821090     1.1446700
  H       -1.3133970    -0.2220240    -1.3458810
  H       -1.3538320     0.3483370     1.6492240
  H       -2.2017640     1.2636240     0.3898210
  H        3.3008500    -0.7206310    -0.1283000
  H        2.5136850    -2.0796090    -0.5553910
  H        0.6334020     2.6343050    -1.0521070
  H       -2.3814240    -1.6980050     0.7940470
units angstrom
no_reorient  #important for SAPT in psi4, default
symmetry c1  #important for SAPT in psi4, default
}

set PROPERTIES_ORIGIN ["COM"]
properties('MP2/aug-cc-pvtz', properties = ['dipole'])
--------------------------------------------------------------------------

    Molecular point group: c1
  Charge       = 0
  Multiplicity = 1
  Basis Set: AUG-CC-PVTZ
    Blend: AUG-CC-PVTZ
  Basis Set: (AUG-CC-PVTZ AUX)
    Blend: AUG-CC-PVTZ-JKFIT

    Orbital Energies [Eh]
    ---------------------

    Doubly Occupied:

       1A    -20.561770     2A    -20.547493     3A    -15.546025
       4A    -11.285800     5A    -11.269974     6A    -11.259677
       7A    -11.225478     8A    -11.220867     9A    -11.215903
      10A     -1.362505    11A     -1.349409    12A     -1.187546
      13A     -1.085959    14A     -0.998600    15A     -0.981004
      16A     -0.841159    17A     -0.821309    18A     -0.770096
      19A     -0.694687    20A     -0.677049    21A     -0.653812
      22A     -0.642922    23A     -0.625943    24A     -0.612423
      25A     -0.594422    26A     -0.561856    27A     -0.549774
      28A     -0.532484    29A     -0.528759    30A     -0.498565
      31A     -0.494285    32A     -0.473851    33A     -0.452712
      34A     -0.432969    35A     -0.423645    36A     -0.391909

  @DF-RHF Final Energy:  -439.10188880408373

   => Energetics <=

    Nuclear Repulsion Energy =            506.0316211529813017
    One-Electron Energy =               -1603.5217339153552984
    Two-Electron Energy =                 658.3882239582901548
    Total Energy =                       -439.1018888040837282
  Basis Set: (AUG-CC-PVTZ AUX)
    Blend: AUG-CC-PVTZ-RI
    Molecular point group: c1

    Geometry (in Angstrom), charge = 0, multiplicity = 1:

       Center              X                  Y                   Z               Mass
    ------------   -----------------  -----------------  -----------------  -----------------
         O           -0.108344979542     2.068373168072    -0.901664262332    15.994914619570
         O           -2.377112979542    -1.369523831928    -0.110053262332    15.994914619570
         N            2.498713020458    -1.267649831928     0.077854737668    14.003074004430
         C            1.310759020458    -0.474951831928    -0.267461262332    12.000000000000
         C            1.253309020458     0.748664168072     0.641873737668    12.000000000000
         C           -0.015999779542    -1.389255031928    -0.051793762332    12.000000000000
         C           -0.028813979542     1.552725168072     0.436749737668    12.000000000000
         C           -1.220149979542    -0.545246831928    -0.290286262332    12.000000000000
         C           -1.264612979542     0.681816168072     0.614903737668    12.000000000000
         H            1.317918020458    -0.123199831928    -1.312326262332     1.007825032230
         H            1.319323020458     0.409705168072     1.683765737668     1.007825032230
         H            2.126849020458     1.394346168072     0.464910737668     1.007825032230
         H            0.078411020458    -2.202091831928    -0.734951262332     1.007825032230
         H            0.083260020458    -1.717346831928     0.965779737668     1.007825032230
         H           -0.060784979542     2.384714168072     1.157776737668     1.007825032230
         H           -1.276989979542    -0.219418831928    -1.332774262332     1.007825032230
         H           -1.317424979542     0.350942168072     1.662330737668     1.007825032230
         H           -2.165356979542     1.266229168072     0.402927737668     1.007825032230
         H            3.337257020458    -0.718025831928    -0.115193262332     1.007825032230
         H            2.550092020458    -2.077003831928    -0.542284262332     1.007825032230
         H            0.669809020458     2.636910168072    -1.039000262332     1.007825032230
         H           -2.345016979542    -1.695399831928     0.807153737668     1.007825032230

  Basis Set: AUG-CC-PVTZ
    Blend: AUG-CC-PVTZ
  Basis Set: (AUG-CC-PVTZ AUX)
    Blend: AUG-CC-PVTZ-JKFIT
	 Reference Energy          =    -439.1018888040837282 [Eh]
	 Singles Energy            =      -0.0000000000000000 [Eh]
	 Same-Spin Energy          =      -0.4513614600683609 [Eh]
	 Opposite-Spin Energy      =      -1.4734033010923242 [Eh]
	 Correlation Energy        =      -1.9247647611606851 [Eh]
	 Total Energy              =    -441.0266535652444304 [Eh]

	 ================> DF-SCS-MP2 Energies <==================
	-----------------------------------------------------------
	 SCS Same-Spin Scale       =       0.3333333333333333 [-]
	 SCS Opposite-Spin Scale   =       1.2000000000000000 [-]
	 SCS Same-Spin Energy      =      -0.1504538200227870 [Eh]
	 SCS Opposite-Spin Energy  =      -1.7680839613107890 [Eh]
	 SCS Correlation Energy    =      -1.9185377813335760 [Eh]
	 SCS Total Energy          =    -441.0204265854172831 [Eh]
	-----------------------------------------------------------

  Dipole Moment: [D]
     X:     2.5928      Y:     1.1277      Z:     0.7412     Total:     2.9229

*** Psi4 exiting successfully. Buy a developer a beer!
