                               Psi4 1.4a3.dev225

  ==> Input File <==

--------------------------------------------------------------------------
#psi4
#
memory 32 gb

molecule  {
0 1
  O       -0.1447520     2.0657680    -0.9147710
  O       -2.4135200    -1.3721290    -0.1231600
  N        2.4623060    -1.2702550     0.0647480
  C        1.2743520    -0.4775570    -0.2805680
  C        1.2169020     0.7460590     0.6287670
  C        0.0292070    -1.3356180    -0.0781670
  C       -0.0652210     1.5501200     0.4236430
  C       -1.2565570    -0.5478520    -0.3033930
  C       -1.3010200     0.6792110     0.6017970
  H        1.2815110    -0.1258050    -1.3254330
  H        1.2829160     0.4071000     1.6706590
  H        2.0904420     1.3917410     0.4518040
  H        0.0420040    -2.2046970    -0.7480580
  H        0.0468530    -1.7199520     0.9526730
  H       -0.0971920     2.3821090     1.1446700
  H       -1.3133970    -0.2220240    -1.3458810
  H       -1.3538320     0.3483370     1.6492240
  H       -2.2017640     1.2636240     0.3898210
  H        3.3008500    -0.7206310    -0.1283000
  H        2.5126785    -2.0637535    -0.5432423
  H        0.6334020     2.6343050    -1.0521070
  H       -2.3814240    -1.6980050     0.7940470
units angstrom
no_reorient  #important for SAPT in psi4, default
symmetry c1  #important for SAPT in psi4, default
}

set PROPERTIES_ORIGIN ["COM"]
properties('MP2/aug-cc-pvtz', properties = ['dipole'])
--------------------------------------------------------------------------

    Molecular point group: c1
  Charge       = 0
  Multiplicity = 1
  Basis Set: AUG-CC-PVTZ
    Blend: AUG-CC-PVTZ
  Basis Set: (AUG-CC-PVTZ AUX)
    Blend: AUG-CC-PVTZ-JKFIT

    Orbital Energies [Eh]
    ---------------------

    Doubly Occupied:

       1A    -20.561852     2A    -20.551651     3A    -15.543774
       4A    -11.285861     5A    -11.271952     6A    -11.256453
       7A    -11.225726     8A    -11.219850     9A    -11.217714
      10A     -1.362631    11A     -1.350108    12A     -1.194446
      13A     -1.088042    14A     -0.996061    15A     -0.986703
      16A     -0.840438    17A     -0.823690    18A     -0.769610
      19A     -0.696020    20A     -0.678354    21A     -0.657427
      22A     -0.641946    23A     -0.625948    24A     -0.611685
      25A     -0.592401    26A     -0.563923    27A     -0.549181
      28A     -0.530377    29A     -0.526782    30A     -0.499878
      31A     -0.490375    32A     -0.475978    33A     -0.453608
      34A     -0.444185    35A     -0.420402    36A     -0.395649

  @DF-RHF Final Energy:  -439.10985300607553

   => Energetics <=

    Nuclear Repulsion Energy =            506.9934327927383038
    One-Electron Energy =               -1605.4052125603705008
    Two-Electron Energy =                 659.3019267615566150
    Total Energy =                       -439.1098530060755820
  Basis Set: (AUG-CC-PVTZ AUX)
    Blend: AUG-CC-PVTZ-RI
    Molecular point group: c1

    Geometry (in Angstrom), charge = 0, multiplicity = 1:

       Center              X                  Y                   Z               Mass
    ------------   -----------------  -----------------  -----------------  -----------------
         O           -0.115807918597     2.063103036284    -0.900543284016    15.994914619570
         O           -2.384575918597    -1.374793963716    -0.108932284016    15.994914619570
         N            2.491250081403    -1.272919963716     0.078975715984    14.003074004430
         C            1.303296081403    -0.480221963716    -0.266340284016    12.000000000000
         C            1.245846081403     0.743394036284     0.642994715984    12.000000000000
         C            0.058151081403    -1.338282963716    -0.063939284016    12.000000000000
         C           -0.036276918597     1.547455036284     0.437870715984    12.000000000000
         C           -1.227612918597    -0.550516963716    -0.289165284016    12.000000000000
         C           -1.272075918597     0.676546036284     0.616024715984    12.000000000000
         H            1.310455081403    -0.128469963716    -1.311205284016     1.007825032230
         H            1.311860081403     0.404435036284     1.684886715984     1.007825032230
         H            2.119386081403     1.389076036284     0.466031715984     1.007825032230
         H            0.070948081403    -2.207361963716    -0.733830284016     1.007825032230
         H            0.075797081403    -1.722616963716     0.966900715984     1.007825032230
         H           -0.068247918597     2.379444036284     1.158897715984     1.007825032230
         H           -1.284452918597    -0.224688963716    -1.331653284016     1.007825032230
         H           -1.324887918597     0.345672036284     1.663451715984     1.007825032230
         H           -2.172819918597     1.260959036284     0.404048715984     1.007825032230
         H            3.329794081403    -0.723295963716    -0.114072284016     1.007825032230
         H            2.541622581403    -2.066418463716    -0.529014584016     1.007825032230
         H            0.662346081403     2.631640036284    -1.037879284016     1.007825032230
         H           -2.352479918597    -1.700669963716     0.808274715984     1.007825032230

  Basis Set: AUG-CC-PVTZ
    Blend: AUG-CC-PVTZ
  Basis Set: (AUG-CC-PVTZ AUX)
    Blend: AUG-CC-PVTZ-JKFIT
	 Reference Energy          =    -439.1098530060755252 [Eh]
	 Singles Energy            =      -0.0000000000000000 [Eh]
	 Same-Spin Energy          =      -0.4514081790715456 [Eh]
	 Opposite-Spin Energy      =      -1.4729247081758907 [Eh]
	 Correlation Energy        =      -1.9243328872474363 [Eh]
	 Total Energy              =    -441.0341858933229560 [Eh]

	 ================> DF-SCS-MP2 Energies <==================
	-----------------------------------------------------------
	 SCS Same-Spin Scale       =       0.3333333333333333 [-]
	 SCS Opposite-Spin Scale   =       1.2000000000000000 [-]
	 SCS Same-Spin Energy      =      -0.1504693930238485 [Eh]
	 SCS Opposite-Spin Energy  =      -1.7675096498110687 [Eh]
	 SCS Correlation Energy    =      -1.9179790428349173 [Eh]
	 SCS Total Energy          =    -441.0278320489104544 [Eh]
	-----------------------------------------------------------

  Dipole Moment: [D]
     X:     2.5407      Y:     1.1282      Z:     0.7453     Total:     2.8781

*** Psi4 exiting successfully. Buy a developer a beer!
