                               Psi4 1.4a3.dev225

  ==> Input File <==

--------------------------------------------------------------------------
#psi4
#
memory 32 gb

molecule  {
0 1
  O       -0.1447520     2.0657680    -0.9147710
  O       -2.4135200    -1.3721290    -0.1231600
  N        2.4623060    -1.2702550     0.0647480
  C        1.2743520    -0.4775570    -0.2805680
  C        1.2093705     0.9064711     0.7479779
  C        0.0292070    -1.3356180    -0.0781670
  C       -0.0652210     1.5501200     0.4236430
  C       -1.2565570    -0.5478520    -0.3033930
  C       -1.3010200     0.6792110     0.6017970
  H        1.2815110    -0.1258050    -1.3254330
  H        1.2829160     0.4071000     1.6706590
  H        2.0904420     1.3917410     0.4518040
  H        0.0420040    -2.2046970    -0.7480580
  H        0.0468530    -1.7199520     0.9526730
  H       -0.0971920     2.3821090     1.1446700
  H       -1.3133970    -0.2220240    -1.3458810
  H       -1.3538320     0.3483370     1.6492240
  H       -2.2017640     1.2636240     0.3898210
  H        3.3008500    -0.7206310    -0.1283000
  H        2.5136850    -2.0796090    -0.5553910
  H        0.6334020     2.6343050    -1.0521070
  H       -2.3814240    -1.6980050     0.7940470
units angstrom
no_reorient  #important for SAPT in psi4, default
symmetry c1  #important for SAPT in psi4, default
}

set PROPERTIES_ORIGIN ["COM"]
properties('MP2/aug-cc-pvtz', properties = ['dipole'])
--------------------------------------------------------------------------

    Molecular point group: c1
  Charge       = 0
  Multiplicity = 1
  Basis Set: AUG-CC-PVTZ
    Blend: AUG-CC-PVTZ
  Basis Set: (AUG-CC-PVTZ AUX)
    Blend: AUG-CC-PVTZ-JKFIT

    Orbital Energies [Eh]
    ---------------------

    Doubly Occupied:

       1A    -20.564129     2A    -20.551330     3A    -15.546098
       4A    -11.283469     5A    -11.271434     6A    -11.262371
       7A    -11.225737     8A    -11.221540     9A    -11.217238
      10A     -1.364183    11A     -1.349885    12A     -1.184317
      13A     -1.087163    14A     -1.005745    15A     -0.976173
      16A     -0.840190    17A     -0.819534    18A     -0.771232
      19A     -0.697037    20A     -0.679472    21A     -0.652412
      22A     -0.643857    23A     -0.630570    24A     -0.612460
      25A     -0.595046    26A     -0.562443    27A     -0.551830
      28A     -0.535799    29A     -0.525978    30A     -0.506241
      31A     -0.492467    32A     -0.468354    33A     -0.461483
      34A     -0.434211    35A     -0.412922    36A     -0.376629

  @DF-RHF Final Energy:  -439.07986035755118

   => Energetics <=

    Nuclear Repulsion Energy =            504.6136264119490988
    One-Electron Energy =               -1600.6250168064491390
    Two-Electron Energy =                 656.9315300369488568
    Total Energy =                       -439.0798603575511834
  Basis Set: (AUG-CC-PVTZ AUX)
    Blend: AUG-CC-PVTZ-RI
    Molecular point group: c1

    Geometry (in Angstrom), charge = 0, multiplicity = 1:

       Center              X                  Y                   Z               Mass
    ------------   -----------------  -----------------  -----------------  -----------------
         O           -0.115126245938     2.048541298327    -0.911362087582    15.994914619570
         O           -2.383894245938    -1.389355701673    -0.119751087582    15.994914619570
         N            2.491931754062    -1.287481701673     0.068156912418    14.003074004430
         C            1.303977754062    -0.494783701673    -0.277159087582    12.000000000000
         C            1.238996254062     0.889244398327     0.751386812418    12.000000000000
         C            0.058832754062    -1.352844701673    -0.074758087582    12.000000000000
         C           -0.035595245938     1.532893298327     0.427051912418    12.000000000000
         C           -1.226931245938    -0.565078701673    -0.299984087582    12.000000000000
         C           -1.271394245938     0.661984298327     0.605205912418    12.000000000000
         H            1.311136754062    -0.143031701673    -1.322024087582     1.007825032230
         H            1.312541754062     0.389873298327     1.674067912418     1.007825032230
         H            2.120067754062     1.374514298327     0.455212912418     1.007825032230
         H            0.071629754062    -2.221923701673    -0.744649087582     1.007825032230
         H            0.076478754062    -1.737178701673     0.956081912418     1.007825032230
         H           -0.067566245938     2.364882298327     1.148078912418     1.007825032230
         H           -1.283771245938    -0.239250701673    -1.342472087582     1.007825032230
         H           -1.324206245938     0.331110298327     1.652632912418     1.007825032230
         H           -2.172138245938     1.246397298327     0.393229912418     1.007825032230
         H            3.330475754062    -0.737857701673    -0.124891087582     1.007825032230
         H            2.543310754062    -2.096835701673    -0.551982087582     1.007825032230
         H            0.663027754062     2.617078298327    -1.048698087582     1.007825032230
         H           -2.351798245938    -1.715231701673     0.797455912418     1.007825032230

  Basis Set: AUG-CC-PVTZ
    Blend: AUG-CC-PVTZ
  Basis Set: (AUG-CC-PVTZ AUX)
    Blend: AUG-CC-PVTZ-JKFIT
	 Reference Energy          =    -439.0798603575511834 [Eh]
	 Singles Energy            =      -0.0000000000000000 [Eh]
	 Same-Spin Energy          =      -0.4520980699088390 [Eh]
	 Opposite-Spin Energy      =      -1.4752314667039448 [Eh]
	 Correlation Energy        =      -1.9273295366127838 [Eh]
	 Total Energy              =    -441.0071898941639574 [Eh]

	 ================> DF-SCS-MP2 Energies <==================
	-----------------------------------------------------------
	 SCS Same-Spin Scale       =       0.3333333333333333 [-]
	 SCS Opposite-Spin Scale   =       1.2000000000000000 [-]
	 SCS Same-Spin Energy      =      -0.1506993566362796 [Eh]
	 SCS Opposite-Spin Energy  =      -1.7702777600447337 [Eh]
	 SCS Correlation Energy    =      -1.9209771166810135 [Eh]
	 SCS Total Energy          =    -441.0008374742321848 [Eh]
	-----------------------------------------------------------

  Dipole Moment: [D]
     X:     2.5945      Y:     1.0785      Z:     0.7107     Total:     2.8982

*** Psi4 exiting successfully. Buy a developer a beer!
