                               Psi4 1.4a3.dev225

  ==> Input File <==

--------------------------------------------------------------------------
#psi4
#
memory 32 gb

molecule  {
0 1
  O       -0.1447520     2.0657680    -0.9147710
  O       -2.4135200    -1.3721290    -0.1231600
  N        2.4623060    -1.2702550     0.0647480
  C        1.2743520    -0.4775570    -0.2805680
  C        1.2169020     0.7460590     0.6287670
  C        0.0292070    -1.3356180    -0.0781670
  C       -0.0652210     1.5501200     0.4236430
  C       -1.2565570    -0.5478520    -0.3033930
  C       -1.3010200     0.6792110     0.6017970
  H        1.2815110    -0.1258050    -1.3254330
  H        1.2829160     0.4071000     1.6706590
  H        2.0904420     1.3917410     0.4518040
  H        0.0420040    -2.2046970    -0.7480580
  H        0.0468530    -1.7199520     0.9526730
  H       -0.0971920     2.3821090     1.1446700
  H       -1.3133970    -0.2220240    -1.3458810
  H       -1.3538320     0.3483370     1.6492240
  H       -2.2840654     1.3170221     0.3704527
  H        3.3008500    -0.7206310    -0.1283000
  H        2.5136850    -2.0796090    -0.5553910
  H        0.6334020     2.6343050    -1.0521070
  H       -2.3814240    -1.6980050     0.7940470
units angstrom
no_reorient  #important for SAPT in psi4, default
symmetry c1  #important for SAPT in psi4, default
}

set PROPERTIES_ORIGIN ["COM"]
properties('MP2/aug-cc-pvtz', properties = ['dipole'])
--------------------------------------------------------------------------

    Molecular point group: c1
  Charge       = 0
  Multiplicity = 1
  Basis Set: AUG-CC-PVTZ
    Blend: AUG-CC-PVTZ
  Basis Set: (AUG-CC-PVTZ AUX)
    Blend: AUG-CC-PVTZ-JKFIT

    Orbital Energies [Eh]
    ---------------------

    Doubly Occupied:

       1A    -20.561883     2A    -20.551698     3A    -15.546551
       4A    -11.286816     5A    -11.272877     6A    -11.257093
       7A    -11.231227     8A    -11.226678     9A    -11.218599
      10A     -1.362657    11A     -1.350174    12A     -1.192896
      13A     -1.086923    14A     -0.996850    15A     -0.982590
      16A     -0.840846    17A     -0.820130    18A     -0.769535
      19A     -0.695628    20A     -0.676822    21A     -0.655115
      22A     -0.637029    23A     -0.626394    24A     -0.612067
      25A     -0.590606    26A     -0.563651    27A     -0.547649
      28A     -0.527708    29A     -0.523692    30A     -0.499785
      31A     -0.489174    32A     -0.474888    33A     -0.452778
      34A     -0.443675    35A     -0.420231    36A     -0.395842

  @DF-RHF Final Energy:  -439.10277991617687

   => Energetics <=

    Nuclear Repulsion Energy =            506.3702793177498052
    One-Electron Energy =               -1604.1686012657157789
    Two-Electron Energy =                 658.6955420317891594
    Total Energy =                       -439.1027799161769281
  Basis Set: (AUG-CC-PVTZ AUX)
    Blend: AUG-CC-PVTZ-RI
    Molecular point group: c1

    Geometry (in Angstrom), charge = 0, multiplicity = 1:

       Center              X                  Y                   Z               Mass
    ------------   -----------------  -----------------  -----------------  -----------------
         O           -0.115182942303     2.062814417502    -0.900300988646    15.994914619570
         O           -2.383950942303    -1.375082582498    -0.108689988646    15.994914619570
         N            2.491875057697    -1.273208582498     0.079218011354    14.003074004430
         C            1.303921057697    -0.480510582498    -0.266097988646    12.000000000000
         C            1.246471057697     0.743105417502     0.643237011354    12.000000000000
         C            0.058776057697    -1.338571582498    -0.063696988646    12.000000000000
         C           -0.035651942303     1.547166417502     0.438113011354    12.000000000000
         C           -1.226987942303    -0.550805582498    -0.288922988646    12.000000000000
         C           -1.271450942303     0.676257417502     0.616267011354    12.000000000000
         H            1.311080057697    -0.128758582498    -1.310962988646     1.007825032230
         H            1.312485057697     0.404146417502     1.685129011354     1.007825032230
         H            2.120011057697     1.388787417502     0.466274011354     1.007825032230
         H            0.071573057697    -2.207650582498    -0.733587988646     1.007825032230
         H            0.076422057697    -1.722905582498     0.967143011354     1.007825032230
         H           -0.067622942303     2.379155417502     1.159140011354     1.007825032230
         H           -1.283827942303    -0.224977582498    -1.331410988646     1.007825032230
         H           -1.324262942303     0.345383417502     1.663694011354     1.007825032230
         H           -2.254496342303     1.314068517502     0.384922711354     1.007825032230
         H            3.330419057697    -0.723584582498    -0.113829988646     1.007825032230
         H            2.543254057697    -2.082562582498    -0.540920988646     1.007825032230
         H            0.662971057697     2.631351417502    -1.037636988646     1.007825032230
         H           -2.351854942303    -1.700958582498     0.808517011354     1.007825032230

  Basis Set: AUG-CC-PVTZ
    Blend: AUG-CC-PVTZ
  Basis Set: (AUG-CC-PVTZ AUX)
    Blend: AUG-CC-PVTZ-JKFIT
	 Reference Energy          =    -439.1027799161768712 [Eh]
	 Singles Energy            =      -0.0000000000000000 [Eh]
	 Same-Spin Energy          =      -0.4516201819961859 [Eh]
	 Opposite-Spin Energy      =      -1.4741155232690191 [Eh]
	 Correlation Energy        =      -1.9257357052652049 [Eh]
	 Total Energy              =    -441.0285156214420681 [Eh]

	 ================> DF-SCS-MP2 Energies <==================
	-----------------------------------------------------------
	 SCS Same-Spin Scale       =       0.3333333333333333 [-]
	 SCS Opposite-Spin Scale   =       1.2000000000000000 [-]
	 SCS Same-Spin Energy      =      -0.1505400606653953 [Eh]
	 SCS Opposite-Spin Energy  =      -1.7689386279228227 [Eh]
	 SCS Correlation Energy    =      -1.9194786885882180 [Eh]
	 SCS Total Energy          =    -441.0222586047651134 [Eh]
	-----------------------------------------------------------

  Dipole Moment: [D]
     X:     2.5963      Y:     1.0925      Z:     0.7377     Total:     2.9118

*** Psi4 exiting successfully. Buy a developer a beer!
