                               Psi4 1.4a3.dev225

  ==> Input File <==

--------------------------------------------------------------------------
#psi4
#
memory 32 gb

molecule  {
0 1
  O       -0.1447520     2.0657680    -0.9147710
  O       -2.4135200    -1.3721290    -0.1231600
  N        2.4623060    -1.2702550     0.0647480
  C        1.2743520    -0.4775570    -0.2805680
  C        1.2169020     0.7460590     0.6287670
  C        0.0292070    -1.3356180    -0.0781670
  C       -0.0652210     1.5501200     0.4236430
  C       -1.2565570    -0.5478520    -0.3033930
  C       -1.3010200     0.6792110     0.6017970
  H        1.2815110    -0.1258050    -1.3254330
  H        1.2829160     0.4071000     1.6706590
  H        2.0904420     1.3917410     0.4518040
  H        0.0420040    -2.2046970    -0.7480580
  H        0.0468530    -1.7199520     0.9526730
  H       -0.0971920     2.3821090     1.1446700
  H       -1.3133970    -0.2220240    -1.3458810
  H       -1.3528715     0.3543545     1.6301749
  H       -2.2017640     1.2636240     0.3898210
  H        3.3008500    -0.7206310    -0.1283000
  H        2.5136850    -2.0796090    -0.5553910
  H        0.6334020     2.6343050    -1.0521070
  H       -2.3814240    -1.6980050     0.7940470
units angstrom
no_reorient  #important for SAPT in psi4, default
symmetry c1  #important for SAPT in psi4, default
}

set PROPERTIES_ORIGIN ["COM"]
properties('MP2/aug-cc-pvtz', properties = ['dipole'])
--------------------------------------------------------------------------

    Molecular point group: c1
  Charge       = 0
  Multiplicity = 1
  Basis Set: AUG-CC-PVTZ
    Blend: AUG-CC-PVTZ
  Basis Set: (AUG-CC-PVTZ AUX)
    Blend: AUG-CC-PVTZ-JKFIT

    Orbital Energies [Eh]
    ---------------------

    Doubly Occupied:

       1A    -20.561681     2A    -20.551645     3A    -15.546039
       4A    -11.285720     5A    -11.271691     6A    -11.256461
       7A    -11.225810     8A    -11.217652     9A    -11.217306
      10A     -1.362465    11A     -1.350088    12A     -1.192317
      13A     -1.087696    14A     -0.996014    15A     -0.986663
      16A     -0.840250    17A     -0.823863    18A     -0.770413
      19A     -0.696161    20A     -0.677993    21A     -0.654732
      22A     -0.641571    23A     -0.625756    24A     -0.612078
      25A     -0.592275    26A     -0.563514    27A     -0.548635
      28A     -0.531229    29A     -0.527683    30A     -0.500136
      31A     -0.490299    32A     -0.476050    33A     -0.453455
      34A     -0.444131    35A     -0.420220    36A     -0.395397

  @DF-RHF Final Energy:  -439.10953780866049

   => Energetics <=

    Nuclear Repulsion Energy =            506.9885675306780399
    One-Electron Energy =               -1605.4060413527727178
    Two-Electron Energy =                 659.3079360134343005
    Total Energy =                       -439.1095378086604342
  Basis Set: (AUG-CC-PVTZ AUX)
    Blend: AUG-CC-PVTZ-RI
    Molecular point group: c1

    Geometry (in Angstrom), charge = 0, multiplicity = 1:

       Center              X                  Y                   Z               Mass
    ------------   -----------------  -----------------  -----------------  -----------------
         O           -0.115823040436     2.063178668541    -0.900303442582    15.994914619570
         O           -2.384591040436    -1.374718331459    -0.108692442582    15.994914619570
         N            2.491234959564    -1.272844331459     0.079215557418    14.003074004430
         C            1.303280959564    -0.480146331459    -0.266100442582    12.000000000000
         C            1.245830959564     0.743469668541     0.643234557418    12.000000000000
         C            0.058135959564    -1.338207331459    -0.063699442582    12.000000000000
         C           -0.036292040436     1.547530668541     0.438110557418    12.000000000000
         C           -1.227628040436    -0.550441331459    -0.288925442582    12.000000000000
         C           -1.272091040436     0.676621668541     0.616264557418    12.000000000000
         H            1.310439959564    -0.128394331459    -1.310965442582     1.007825032230
         H            1.311844959564     0.404510668541     1.685126557418     1.007825032230
         H            2.119370959564     1.389151668541     0.466271557418     1.007825032230
         H            0.070932959564    -2.207286331459    -0.733590442582     1.007825032230
         H            0.075781959564    -1.722541331459     0.967140557418     1.007825032230
         H           -0.068263040436     2.379519668541     1.159137557418     1.007825032230
         H           -1.284468040436    -0.224613331459    -1.331413442582     1.007825032230
         H           -1.323942540436     0.351765168541     1.644642457418     1.007825032230
         H           -2.172835040436     1.261034668541     0.404288557418     1.007825032230
         H            3.329778959564    -0.723220331459    -0.113832442582     1.007825032230
         H            2.542613959564    -2.082198331459    -0.540923442582     1.007825032230
         H            0.662330959564     2.631715668541    -1.037639442582     1.007825032230
         H           -2.352495040436    -1.700594331459     0.808514557418     1.007825032230

  Basis Set: AUG-CC-PVTZ
    Blend: AUG-CC-PVTZ
  Basis Set: (AUG-CC-PVTZ AUX)
    Blend: AUG-CC-PVTZ-JKFIT
	 Reference Energy          =    -439.1095378086604910 [Eh]
	 Singles Energy            =      -0.0000000000000000 [Eh]
	 Same-Spin Energy          =      -0.4515089533098709 [Eh]
	 Opposite-Spin Energy      =      -1.4731571517407036 [Eh]
	 Correlation Energy        =      -1.9246661050505744 [Eh]
	 Total Energy              =    -441.0342039137110532 [Eh]

	 ================> DF-SCS-MP2 Energies <==================
	-----------------------------------------------------------
	 SCS Same-Spin Scale       =       0.3333333333333333 [-]
	 SCS Opposite-Spin Scale   =       1.2000000000000000 [-]
	 SCS Same-Spin Energy      =      -0.1505029844366236 [Eh]
	 SCS Opposite-Spin Energy  =      -1.7677885820888444 [Eh]
	 SCS Correlation Energy    =      -1.9182915665254681 [Eh]
	 SCS Total Energy          =    -441.0278293751859451 [Eh]
	-----------------------------------------------------------

  Dipole Moment: [D]
     X:     2.5351      Y:     1.1237      Z:     0.7569     Total:     2.8744

*** Psi4 exiting successfully. Buy a developer a beer!
