                               Psi4 1.4a3.dev225

  ==> Input File <==

--------------------------------------------------------------------------
#psi4
#
memory 32 gb

molecule  {
0 1
  O       -0.1447520     2.0657680    -0.9147710
  O       -2.4135200    -1.3721290    -0.1231600
  N        2.4623060    -1.2702550     0.0647480
  C        1.2743520    -0.4775570    -0.2805680
  C        1.2206678     0.6658529     0.5691616
  C        0.0292070    -1.3356180    -0.0781670
  C       -0.0652210     1.5501200     0.4236430
  C       -1.2565570    -0.5478520    -0.3033930
  C       -1.3010200     0.6792110     0.6017970
  H        1.2815110    -0.1258050    -1.3254330
  H        1.2829160     0.4071000     1.6706590
  H        2.0904420     1.3917410     0.4518040
  H        0.0420040    -2.2046970    -0.7480580
  H        0.0468530    -1.7199520     0.9526730
  H       -0.0971920     2.3821090     1.1446700
  H       -1.3133970    -0.2220240    -1.3458810
  H       -1.3538320     0.3483370     1.6492240
  H       -2.2017640     1.2636240     0.3898210
  H        3.3008500    -0.7206310    -0.1283000
  H        2.5136850    -2.0796090    -0.5553910
  H        0.6334020     2.6343050    -1.0521070
  H       -2.3814240    -1.6980050     0.7940470
units angstrom
no_reorient  #important for SAPT in psi4, default
symmetry c1  #important for SAPT in psi4, default
}

set PROPERTIES_ORIGIN ["COM"]
properties('MP2/aug-cc-pvtz', properties = ['dipole'])
--------------------------------------------------------------------------

    Molecular point group: c1
  Charge       = 0
  Multiplicity = 1
  Basis Set: AUG-CC-PVTZ
    Blend: AUG-CC-PVTZ
  Basis Set: (AUG-CC-PVTZ AUX)
    Blend: AUG-CC-PVTZ-JKFIT

    Orbital Energies [Eh]
    ---------------------

    Doubly Occupied:

       1A    -20.561105     2A    -20.552072     3A    -15.546325
       4A    -11.288814     5A    -11.272471     6A    -11.251811
       7A    -11.229406     8A    -11.219361     9A    -11.218528
      10A     -1.362141    11A     -1.350457    12A     -1.199330
      13A     -1.088806    14A     -0.994888    15A     -0.991248
      16A     -0.843975    17A     -0.822671    18A     -0.768432
      19A     -0.696742    20A     -0.679402    21A     -0.657358
      22A     -0.641688    23A     -0.624043    24A     -0.611178
      25A     -0.590394    26A     -0.567332    27A     -0.552719
      28A     -0.528709    29A     -0.525766    30A     -0.497349
      31A     -0.495296    32A     -0.473944    33A     -0.446167
      34A     -0.442054    35A     -0.420979    36A     -0.398421

  @DF-RHF Final Energy:  -439.09763612686123

   => Energetics <=

    Nuclear Repulsion Energy =            508.0713969292059460
    One-Electron Energy =               -1607.5153059488159215
    Two-Electron Energy =                 660.3462728927486296
    Total Energy =                       -439.0976361268612891
  Basis Set: (AUG-CC-PVTZ AUX)
    Blend: AUG-CC-PVTZ-RI
    Molecular point group: c1

    Geometry (in Angstrom), charge = 0, multiplicity = 1:

       Center              X                  Y                   Z               Mass
    ------------   -----------------  -----------------  -----------------  -----------------
         O           -0.116160366110     2.070566749937    -0.894993792238    15.994914619570
         O           -2.384928366110    -1.367330250063    -0.103382792238    15.994914619570
         N            2.490897633890    -1.265456250063     0.084525207762    14.003074004430
         C            1.302943633890    -0.472758250063    -0.260790792238    12.000000000000
         C            1.249259433890     0.670651649937     0.588938807762    12.000000000000
         C            0.057798633890    -1.330819250063    -0.058389792238    12.000000000000
         C           -0.036629366110     1.554918749937     0.443420207762    12.000000000000
         C           -1.227965366110    -0.543053250063    -0.283615792238    12.000000000000
         C           -1.272428366110     0.684009749937     0.621574207762    12.000000000000
         H            1.310102633890    -0.121006250063    -1.305655792238     1.007825032230
         H            1.311507633890     0.411898749937     1.690436207762     1.007825032230
         H            2.119033633890     1.396539749937     0.471581207762     1.007825032230
         H            0.070595633890    -2.199898250063    -0.728280792238     1.007825032230
         H            0.075444633890    -1.715153250063     0.972450207762     1.007825032230
         H           -0.068600366110     2.386907749937     1.164447207762     1.007825032230
         H           -1.284805366110    -0.217225250063    -1.326103792238     1.007825032230
         H           -1.325240366110     0.353135749937     1.669001207762     1.007825032230
         H           -2.173172366110     1.268422749937     0.409598207762     1.007825032230
         H            3.329441633890    -0.715832250063    -0.108522792238     1.007825032230
         H            2.542276633890    -2.074810250063    -0.535613792238     1.007825032230
         H            0.661993633890     2.639103749937    -1.032329792238     1.007825032230
         H           -2.352832366110    -1.693206250063     0.813824207762     1.007825032230

  Basis Set: AUG-CC-PVTZ
    Blend: AUG-CC-PVTZ
  Basis Set: (AUG-CC-PVTZ AUX)
    Blend: AUG-CC-PVTZ-JKFIT
	 Reference Energy          =    -439.0976361268612322 [Eh]
	 Singles Energy            =      -0.0000000000000000 [Eh]
	 Same-Spin Energy          =      -0.4525436394351263 [Eh]
	 Opposite-Spin Energy      =      -1.4746642688872114 [Eh]
	 Correlation Energy        =      -1.9272079083223377 [Eh]
	 Total Energy              =    -441.0248440351835484 [Eh]

	 ================> DF-SCS-MP2 Energies <==================
	-----------------------------------------------------------
	 SCS Same-Spin Scale       =       0.3333333333333333 [-]
	 SCS Opposite-Spin Scale   =       1.2000000000000000 [-]
	 SCS Same-Spin Energy      =      -0.1508478798117088 [Eh]
	 SCS Opposite-Spin Energy  =      -1.7695971226646536 [Eh]
	 SCS Correlation Energy    =      -1.9204450024763624 [Eh]
	 SCS Total Energy          =    -441.0180811293375882 [Eh]
	-----------------------------------------------------------

  Dipole Moment: [D]
     X:     2.4791      Y:     1.1290      Z:     0.7375     Total:     2.8222

*** Psi4 exiting successfully. Buy a developer a beer!
