                               Psi4 1.4a3.dev225

  ==> Input File <==

--------------------------------------------------------------------------
#psi4
#
memory 32 gb

molecule  {
0 1
  O       -0.1447520     2.0657680    -0.9147710
  O       -2.4135200    -1.3721290    -0.1231600
  N        2.4623060    -1.2702550     0.0647480
  C        1.2743520    -0.4775570    -0.2805680
  C        1.1231786     0.6194758     0.6561018
  C        0.0292070    -1.3356180    -0.0781670
  C       -0.0652210     1.5501200     0.4236430
  C       -1.2565570    -0.5478520    -0.3033930
  C       -1.3010200     0.6792110     0.6017970
  H        1.2815110    -0.1258050    -1.3254330
  H        1.2829160     0.4071000     1.6706590
  H        2.0904420     1.3917410     0.4518040
  H        0.0420040    -2.2046970    -0.7480580
  H        0.0468530    -1.7199520     0.9526730
  H       -0.0971920     2.3821090     1.1446700
  H       -1.3133970    -0.2220240    -1.3458810
  H       -1.3538320     0.3483370     1.6492240
  H       -2.2017640     1.2636240     0.3898210
  H        3.3008500    -0.7206310    -0.1283000
  H        2.5136850    -2.0796090    -0.5553910
  H        0.6334020     2.6343050    -1.0521070
  H       -2.3814240    -1.6980050     0.7940470
units angstrom
no_reorient  #important for SAPT in psi4, default
symmetry c1  #important for SAPT in psi4, default
}

set PROPERTIES_ORIGIN ["COM"]
properties('MP2/aug-cc-pvtz', properties = ['dipole'])
--------------------------------------------------------------------------

    Molecular point group: c1
  Charge       = 0
  Multiplicity = 1
  Basis Set: AUG-CC-PVTZ
    Blend: AUG-CC-PVTZ
  Basis Set: (AUG-CC-PVTZ AUX)
    Blend: AUG-CC-PVTZ-JKFIT

    Orbital Energies [Eh]
    ---------------------

    Doubly Occupied:

       1A    -20.565203     2A    -20.552372     3A    -15.547585
       4A    -11.288723     5A    -11.272869     6A    -11.254937
       7A    -11.233829     8A    -11.218424     9A    -11.217587
      10A     -1.364367    11A     -1.350806    12A     -1.198906
      13A     -1.095180    14A     -0.995247    15A     -0.991864
      16A     -0.841139    17A     -0.823605    18A     -0.774421
      19A     -0.699007    20A     -0.686354    21A     -0.658637
      22A     -0.634891    23A     -0.620298    24A     -0.615590
      25A     -0.593447    26A     -0.571138    27A     -0.556005
      28A     -0.532390    29A     -0.518548    30A     -0.506690
      31A     -0.496574    32A     -0.470203    33A     -0.451629
      34A     -0.425204    35A     -0.421555    36A     -0.400761

  @DF-RHF Final Energy:  -439.08353360239170

   => Energetics <=

    Nuclear Repulsion Energy =            508.7340879913537037
    One-Electron Energy =               -1608.7432752547740620
    Two-Electron Energy =                 660.9256536610284911
    Total Energy =                       -439.0835336023917534
  Basis Set: (AUG-CC-PVTZ AUX)
    Blend: AUG-CC-PVTZ-RI
    Molecular point group: c1

    Geometry (in Angstrom), charge = 0, multiplicity = 1:

       Center              X                  Y                   Z               Mass
    ------------   -----------------  -----------------  -----------------  -----------------
         O           -0.107236503920     2.074811967347    -0.902952031340    15.994914619570
         O           -2.376004503920    -1.363085032653    -0.111341031340    15.994914619570
         N            2.499821496080    -1.261211032653     0.076566968660    14.003074004430
         C            1.311867496080    -0.468513032653    -0.268749031340    12.000000000000
         C            1.160694096080     0.628519767347     0.667920768660    12.000000000000
         C            0.066722496080    -1.326574032653    -0.066348031340    12.000000000000
         C           -0.027705503920     1.559163967347     0.435461968660    12.000000000000
         C           -1.219041503920    -0.538808032653    -0.291574031340    12.000000000000
         C           -1.263504503920     0.688254967347     0.613615968660    12.000000000000
         H            1.319026496080    -0.116761032653    -1.313614031340     1.007825032230
         H            1.320431496080     0.416143967347     1.682477968660     1.007825032230
         H            2.127957496080     1.400784967347     0.463622968660     1.007825032230
         H            0.079519496080    -2.195653032653    -0.736239031340     1.007825032230
         H            0.084368496080    -1.710908032653     0.964491968660     1.007825032230
         H           -0.059676503920     2.391152967347     1.156488968660     1.007825032230
         H           -1.275881503920    -0.212980032653    -1.334062031340     1.007825032230
         H           -1.316316503920     0.357380967347     1.661042968660     1.007825032230
         H           -2.164248503920     1.272667967347     0.401639968660     1.007825032230
         H            3.338365496080    -0.711587032653    -0.116481031340     1.007825032230
         H            2.551200496080    -2.070565032653    -0.543572031340     1.007825032230
         H            0.670917496080     2.643348967347    -1.040288031340     1.007825032230
         H           -2.343908503920    -1.688961032653     0.805865968660     1.007825032230

  Basis Set: AUG-CC-PVTZ
    Blend: AUG-CC-PVTZ
  Basis Set: (AUG-CC-PVTZ AUX)
    Blend: AUG-CC-PVTZ-JKFIT
	 Reference Energy          =    -439.0835336023916966 [Eh]
	 Singles Energy            =      -0.0000000000000000 [Eh]
	 Same-Spin Energy          =      -0.4530565249020800 [Eh]
	 Opposite-Spin Energy      =      -1.4757116825129195 [Eh]
	 Correlation Energy        =      -1.9287682074149997 [Eh]
	 Total Energy              =    -441.0123018098066723 [Eh]

	 ================> DF-SCS-MP2 Energies <==================
	-----------------------------------------------------------
	 SCS Same-Spin Scale       =       0.3333333333333333 [-]
	 SCS Opposite-Spin Scale   =       1.2000000000000000 [-]
	 SCS Same-Spin Energy      =      -0.1510188416340267 [Eh]
	 SCS Opposite-Spin Energy  =      -1.7708540190155033 [Eh]
	 SCS Correlation Energy    =      -1.9218728606495299 [Eh]
	 SCS Total Energy          =    -441.0054064630412540 [Eh]
	-----------------------------------------------------------

  Dipole Moment: [D]
     X:     2.4172      Y:     1.0443      Z:     0.7663     Total:     2.7424

*** Psi4 exiting successfully. Buy a developer a beer!
