                               Psi4 1.4a3.dev225

  ==> Input File <==

--------------------------------------------------------------------------
#psi4
#
memory 32 gb

molecule  {
0 1
  O       -0.1447520     2.0657680    -0.9147710
  O       -2.4135200    -1.3721290    -0.1231600
  N        2.4623060    -1.2702550     0.0647480
  C        1.2743520    -0.4775570    -0.2805680
  C        1.2176552     0.7300178     0.6168459
  C        0.0292070    -1.3356180    -0.0781670
  C       -0.0652210     1.5501200     0.4236430
  C       -1.2565570    -0.5478520    -0.3033930
  C       -1.3010200     0.6792110     0.6017970
  H        1.2815110    -0.1258050    -1.3254330
  H        1.2829160     0.4071000     1.6706590
  H        2.0904420     1.3917410     0.4518040
  H        0.0420040    -2.2046970    -0.7480580
  H        0.0468530    -1.7199520     0.9526730
  H       -0.0971920     2.3821090     1.1446700
  H       -1.3133970    -0.2220240    -1.3458810
  H       -1.3538320     0.3483370     1.6492240
  H       -2.2017640     1.2636240     0.3898210
  H        3.3008500    -0.7206310    -0.1283000
  H        2.5136850    -2.0796090    -0.5553910
  H        0.6334020     2.6343050    -1.0521070
  H       -2.3814240    -1.6980050     0.7940470
units angstrom
no_reorient  #important for SAPT in psi4, default
symmetry c1  #important for SAPT in psi4, default
}

set PROPERTIES_ORIGIN ["COM"]
properties('MP2/aug-cc-pvtz', properties = ['dipole'])
--------------------------------------------------------------------------

    Molecular point group: c1
  Charge       = 0
  Multiplicity = 1
  Basis Set: AUG-CC-PVTZ
    Blend: AUG-CC-PVTZ
  Basis Set: (AUG-CC-PVTZ AUX)
    Blend: AUG-CC-PVTZ-JKFIT

    Orbital Energies [Eh]
    ---------------------

    Doubly Occupied:

       1A    -20.561700     2A    -20.551708     3A    -15.546089
       4A    -11.286420     5A    -11.272020     6A    -11.255647
       7A    -11.226377     8A    -11.219739     9A    -11.217793
      10A     -1.362538    11A     -1.350153    12A     -1.193519
      13A     -1.087557    14A     -0.995150    15A     -0.987429
      16A     -0.840861    17A     -0.823303    18A     -0.769357
      19A     -0.696129    20A     -0.678122    21A     -0.655197
      22A     -0.641556    23A     -0.625395    24A     -0.611550
      25A     -0.591667    26A     -0.563942    27A     -0.549295
      28A     -0.530048    29A     -0.526522    30A     -0.499205
      31A     -0.490688    32A     -0.476696    33A     -0.451568
      34A     -0.444675    35A     -0.420694    36A     -0.396198

  @DF-RHF Final Energy:  -439.10890768291080

   => Energetics <=

    Nuclear Repulsion Energy =            507.1172524565324693
    One-Electron Energy =               -1605.6593012907064804
    Two-Electron Energy =                 659.4331411512632712
    Total Energy =                       -439.1089076829107398
  Basis Set: (AUG-CC-PVTZ AUX)
    Blend: AUG-CC-PVTZ-RI
    Molecular point group: c1

    Geometry (in Angstrom), charge = 0, multiplicity = 1:

       Center              X                  Y                   Z               Mass
    ------------   -----------------  -----------------  -----------------  -----------------
         O           -0.115884601951     2.064693291903    -0.899358666724    15.994914619570
         O           -2.384652601951    -1.373203708097    -0.107747666724    15.994914619570
         N            2.491173398049    -1.271329708097     0.080160333276    14.003074004430
         C            1.303219398049    -0.478631708097    -0.265155666724    12.000000000000
         C            1.246522598049     0.728943091903     0.632258233276    12.000000000000
         C            0.058074398049    -1.336692708097    -0.062754666724    12.000000000000
         C           -0.036353601951     1.549045291903     0.439055333276    12.000000000000
         C           -1.227689601951    -0.548926708097    -0.287980666724    12.000000000000
         C           -1.272152601951     0.678136291903     0.617209333276    12.000000000000
         H            1.310378398049    -0.126879708097    -1.310020666724     1.007825032230
         H            1.311783398049     0.406025291903     1.686071333276     1.007825032230
         H            2.119309398049     1.390666291903     0.467216333276     1.007825032230
         H            0.070871398049    -2.205771708097    -0.732645666724     1.007825032230
         H            0.075720398049    -1.721026708097     0.968085333276     1.007825032230
         H           -0.068324601951     2.381034291903     1.160082333276     1.007825032230
         H           -1.284529601951    -0.223098708097    -1.330468666724     1.007825032230
         H           -1.324964601951     0.347262291903     1.664636333276     1.007825032230
         H           -2.172896601951     1.262549291903     0.405233333276     1.007825032230
         H            3.329717398049    -0.721705708097    -0.112887666724     1.007825032230
         H            2.542552398049    -2.080683708097    -0.539978666724     1.007825032230
         H            0.662269398049     2.633230291903    -1.036694666724     1.007825032230
         H           -2.352556601951    -1.699079708097     0.809459333276     1.007825032230

  Basis Set: AUG-CC-PVTZ
    Blend: AUG-CC-PVTZ
  Basis Set: (AUG-CC-PVTZ AUX)
    Blend: AUG-CC-PVTZ-JKFIT
	 Reference Energy          =    -439.1089076829107967 [Eh]
	 Singles Energy            =      -0.0000000000000000 [Eh]
	 Same-Spin Energy          =      -0.4516437879255617 [Eh]
	 Opposite-Spin Energy      =      -1.4734192793322571 [Eh]
	 Correlation Energy        =      -1.9250630672578188 [Eh]
	 Total Energy              =    -441.0339707501686348 [Eh]

	 ================> DF-SCS-MP2 Energies <==================
	-----------------------------------------------------------
	 SCS Same-Spin Scale       =       0.3333333333333333 [-]
	 SCS Opposite-Spin Scale   =       1.2000000000000000 [-]
	 SCS Same-Spin Energy      =      -0.1505479293085206 [Eh]
	 SCS Opposite-Spin Energy  =      -1.7681031351987084 [Eh]
	 SCS Correlation Energy    =      -1.9186510645072290 [Eh]
	 SCS Total Energy          =    -441.0275587474180270 [Eh]
	-----------------------------------------------------------

  Dipole Moment: [D]
     X:     2.5276      Y:     1.1289      Z:     0.7451     Total:     2.8668

*** Psi4 exiting successfully. Buy a developer a beer!
