                               Psi4 1.4a3.dev225

  ==> Input File <==

--------------------------------------------------------------------------
#psi4
#
memory 32 gb

molecule  {
0 1
  O       -0.1447520     2.0657680    -0.9147710
  O       -2.4135200    -1.3721290    -0.1231600
  N        2.4623060    -1.2702550     0.0647480
  C        1.2743520    -0.4775570    -0.2805680
  C        1.2169020     0.7460590     0.6287670
  C        0.0292070    -1.3356180    -0.0781670
  C       -0.0652210     1.5501200     0.4236430
  C       -1.2565570    -0.5478520    -0.3033930
  C       -1.3010200     0.6792110     0.6017970
  H        1.2815110    -0.1258050    -1.3254330
  H        1.2829160     0.4071000     1.6706590
  H        2.0904420     1.3917410     0.4518040
  H        0.0420040    -2.2046970    -0.7480580
  H        0.0468530    -1.7199520     0.9526730
  H       -0.0971920     2.3821090     1.1446700
  H       -1.3133970    -0.2220240    -1.3458810
  H       -1.3538320     0.3483370     1.6492240
  H       -2.2017640     1.2636240     0.3898210
  H        3.3008500    -0.7206310    -0.1283000
  H        2.5136850    -2.0796090    -0.5553910
  H        0.7133391     2.6927089    -1.0662151
  H       -2.3814240    -1.6980050     0.7940470
units angstrom
no_reorient  #important for SAPT in psi4, default
symmetry c1  #important for SAPT in psi4, default
}

set PROPERTIES_ORIGIN ["COM"]
properties('MP2/aug-cc-pvtz', properties = ['dipole'])
--------------------------------------------------------------------------

    Molecular point group: c1
  Charge       = 0
  Multiplicity = 1
  Basis Set: AUG-CC-PVTZ
    Blend: AUG-CC-PVTZ
  Basis Set: (AUG-CC-PVTZ AUX)
    Blend: AUG-CC-PVTZ-JKFIT

    Orbital Energies [Eh]
    ---------------------

    Doubly Occupied:

       1A    -20.570373     2A    -20.551491     3A    -15.545780
       4A    -11.285129     5A    -11.271782     6A    -11.256058
       7A    -11.225235     8A    -11.219863     9A    -11.217432
      10A     -1.351518    11A     -1.343201    12A     -1.191821
      13A     -1.084796    14A     -0.994425    15A     -0.985045
      16A     -0.838127    17A     -0.822580    18A     -0.764061
      19A     -0.689504    20A     -0.671043    21A     -0.654299
      22A     -0.640048    23A     -0.624051    24A     -0.611096
      25A     -0.588875    26A     -0.562428    27A     -0.547364
      28A     -0.529098    29A     -0.525636    30A     -0.496637
      31A     -0.489605    32A     -0.475490    33A     -0.451882
      34A     -0.443514    35A     -0.419888    36A     -0.394995

  @DF-RHF Final Energy:  -439.09599028457433

   => Energetics <=

    Nuclear Repulsion Energy =            506.2891909128791212
    One-Electron Energy =               -1604.1020215943535732
    Two-Electron Energy =                 658.7168403969001247
    Total Energy =                       -439.0959902845743272
  Basis Set: (AUG-CC-PVTZ AUX)
    Blend: AUG-CC-PVTZ-RI
    Molecular point group: c1

    Geometry (in Angstrom), charge = 0, multiplicity = 1:

       Center              X                  Y                   Z               Mass
    ------------   -----------------  -----------------  -----------------  -----------------
         O           -0.116430194178     2.062775934075    -0.900341427841    15.994914619570
         O           -2.385198194178    -1.375121065925    -0.108730427841    15.994914619570
         N            2.490627805822    -1.273247065925     0.079177572159    14.003074004430
         C            1.302673805822    -0.480549065925    -0.266138427841    12.000000000000
         C            1.245223805822     0.743066934075     0.643196572159    12.000000000000
         C            0.057528805822    -1.338610065925    -0.063737427841    12.000000000000
         C           -0.036899194178     1.547127934075     0.438072572159    12.000000000000
         C           -1.228235194178    -0.550844065925    -0.288963427841    12.000000000000
         C           -1.272698194178     0.676218934075     0.616226572159    12.000000000000
         H            1.309832805822    -0.128797065925    -1.311003427841     1.007825032230
         H            1.311237805822     0.404107934075     1.685088572159     1.007825032230
         H            2.118763805822     1.388748934075     0.466233572159     1.007825032230
         H            0.070325805822    -2.207689065925    -0.733628427841     1.007825032230
         H            0.075174805822    -1.722944065925     0.967102572159     1.007825032230
         H           -0.068870194178     2.379116934075     1.159099572159     1.007825032230
         H           -1.285075194178    -0.225016065925    -1.331451427841     1.007825032230
         H           -1.325510194178     0.345344934075     1.663653572159     1.007825032230
         H           -2.173442194178     1.260631934075     0.404250572159     1.007825032230
         H            3.329171805822    -0.723623065925    -0.113870427841     1.007825032230
         H            2.542006805822    -2.082601065925    -0.540961427841     1.007825032230
         H            0.741660905822     2.689716834075    -1.051785527841     1.007825032230
         H           -2.353102194178    -1.700997065925     0.808476572159     1.007825032230

  Basis Set: AUG-CC-PVTZ
    Blend: AUG-CC-PVTZ
  Basis Set: (AUG-CC-PVTZ AUX)
    Blend: AUG-CC-PVTZ-JKFIT
	 Reference Energy          =    -439.0959902845743272 [Eh]
	 Singles Energy            =      -0.0000000000000000 [Eh]
	 Same-Spin Energy          =      -0.4526873781160180 [Eh]
	 Opposite-Spin Energy      =      -1.4766317891821781 [Eh]
	 Correlation Energy        =      -1.9293191672981962 [Eh]
	 Total Energy              =    -441.0253094518725447 [Eh]

	 ================> DF-SCS-MP2 Energies <==================
	-----------------------------------------------------------
	 SCS Same-Spin Scale       =       0.3333333333333333 [-]
	 SCS Opposite-Spin Scale   =       1.2000000000000000 [-]
	 SCS Same-Spin Energy      =      -0.1508957927053393 [Eh]
	 SCS Opposite-Spin Energy  =      -1.7719581470186136 [Eh]
	 SCS Correlation Energy    =      -1.9228539397239530 [Eh]
	 SCS Total Energy          =    -441.0188442242982774 [Eh]
	-----------------------------------------------------------

  Dipole Moment: [D]
     X:     2.5732      Y:     1.1703      Z:     0.7243     Total:     2.9181

*** Psi4 exiting successfully. Buy a developer a beer!
