                               Psi4 1.4a3.dev225

  ==> Input File <==

--------------------------------------------------------------------------
#psi4
#
memory 32 gb

molecule  {
0 1
  O       -0.1447520     2.0657680    -0.9147710
  O       -2.4135200    -1.3721290    -0.1231600
  N        2.4623060    -1.2702550     0.0647480
  C        1.2743520    -0.4775570    -0.2805680
  C        1.2161488     0.7621002     0.6406881
  C        0.0292070    -1.3356180    -0.0781670
  C       -0.0652210     1.5501200     0.4236430
  C       -1.2565570    -0.5478520    -0.3033930
  C       -1.3010200     0.6792110     0.6017970
  H        1.2815110    -0.1258050    -1.3254330
  H        1.2829160     0.4071000     1.6706590
  H        2.0904420     1.3917410     0.4518040
  H        0.0420040    -2.2046970    -0.7480580
  H        0.0468530    -1.7199520     0.9526730
  H       -0.0971920     2.3821090     1.1446700
  H       -1.3133970    -0.2220240    -1.3458810
  H       -1.3538320     0.3483370     1.6492240
  H       -2.2017640     1.2636240     0.3898210
  H        3.3008500    -0.7206310    -0.1283000
  H        2.5136850    -2.0796090    -0.5553910
  H        0.6334020     2.6343050    -1.0521070
  H       -2.3814240    -1.6980050     0.7940470
units angstrom
no_reorient  #important for SAPT in psi4, default
symmetry c1  #important for SAPT in psi4, default
}

set PROPERTIES_ORIGIN ["COM"]
properties('MP2/aug-cc-pvtz', properties = ['dipole'])
--------------------------------------------------------------------------

    Molecular point group: c1
  Charge       = 0
  Multiplicity = 1
  Basis Set: AUG-CC-PVTZ
    Blend: AUG-CC-PVTZ
  Basis Set: (AUG-CC-PVTZ AUX)
    Blend: AUG-CC-PVTZ-JKFIT

    Orbital Energies [Eh]
    ---------------------

    Doubly Occupied:

       1A    -20.562066     2A    -20.551577     3A    -15.546031
       4A    -11.285474     5A    -11.271847     6A    -11.257276
       7A    -11.225348     8A    -11.219991     9A    -11.217554
      10A     -1.362784    11A     -1.350047    12A     -1.191230
      13A     -1.087197    14A     -0.997009    15A     -0.984601
      16A     -0.840015    17A     -0.823000    18A     -0.769766
      19A     -0.695942    20A     -0.677997    21A     -0.654318
      22A     -0.641736    23A     -0.626286    24A     -0.611812
      25A     -0.592341    26A     -0.563176    27A     -0.548266
      28A     -0.530736    29A     -0.526933    30A     -0.500576
      31A     -0.490323    32A     -0.474467    33A     -0.455587
      34A     -0.443414    35A     -0.419941    36A     -0.394536

  @DF-RHF Final Energy:  -439.10928171480396

   => Energetics <=

    Nuclear Repulsion Energy =            506.6547308722542766
    One-Electron Energy =               -1604.7456278944603127
    Two-Electron Energy =                 658.9816153074020804
    Total Energy =                       -439.1092817148039558
  Basis Set: (AUG-CC-PVTZ AUX)
    Blend: AUG-CC-PVTZ-RI
    Molecular point group: c1

    Geometry (in Angstrom), charge = 0, multiplicity = 1:

       Center              X                  Y                   Z               Mass
    ------------   -----------------  -----------------  -----------------  -----------------
         O           -0.115746710718     2.061756567462    -0.901541108545    15.994914619570
         O           -2.384514710718    -1.376140432538    -0.109930108545    15.994914619570
         N            2.491311289282    -1.274266432538     0.077977891455    14.003074004430
         C            1.303357289282    -0.481568432538    -0.267338108545    12.000000000000
         C            1.245154089282     0.758088767462     0.653917991455    12.000000000000
         C            0.058212289282    -1.339629432538    -0.064937108545    12.000000000000
         C           -0.036215710718     1.546108567462     0.436872891455    12.000000000000
         C           -1.227551710718    -0.551863432538    -0.290163108545    12.000000000000
         C           -1.272014710718     0.675199567462     0.615026891455    12.000000000000
         H            1.310516289282    -0.129816432538    -1.312203108545     1.007825032230
         H            1.311921289282     0.403088567462     1.683888891455     1.007825032230
         H            2.119447289282     1.387729567462     0.465033891455     1.007825032230
         H            0.071009289282    -2.208708432538    -0.734828108545     1.007825032230
         H            0.075858289282    -1.723963432538     0.965902891455     1.007825032230
         H           -0.068186710718     2.378097567462     1.157899891455     1.007825032230
         H           -1.284391710718    -0.226035432538    -1.332651108545     1.007825032230
         H           -1.324826710718     0.344325567462     1.662453891455     1.007825032230
         H           -2.172758710718     1.259612567462     0.403050891455     1.007825032230
         H            3.329855289282    -0.724642432538    -0.115070108545     1.007825032230
         H            2.542690289282    -2.083620432538    -0.542161108545     1.007825032230
         H            0.662407289282     2.630293567462    -1.038877108545     1.007825032230
         H           -2.352418710718    -1.702016432538     0.807276891455     1.007825032230

  Basis Set: AUG-CC-PVTZ
    Blend: AUG-CC-PVTZ
  Basis Set: (AUG-CC-PVTZ AUX)
    Blend: AUG-CC-PVTZ-JKFIT
	 Reference Energy          =    -439.1092817148039558 [Eh]
	 Singles Energy            =      -0.0000000000000000 [Eh]
	 Same-Spin Energy          =      -0.4514240985866098 [Eh]
	 Opposite-Spin Energy      =      -1.4731960058707227 [Eh]
	 Correlation Energy        =      -1.9246201044573326 [Eh]
	 Total Energy              =    -441.0339018192613025 [Eh]

	 ================> DF-SCS-MP2 Energies <==================
	-----------------------------------------------------------
	 SCS Same-Spin Scale       =       0.3333333333333333 [-]
	 SCS Opposite-Spin Scale   =       1.2000000000000000 [-]
	 SCS Same-Spin Energy      =      -0.1504746995288699 [Eh]
	 SCS Opposite-Spin Energy  =      -1.7678352070448673 [Eh]
	 SCS Correlation Energy    =      -1.9183099065737372 [Eh]
	 SCS Total Energy          =    -441.0275916213776668 [Eh]
	-----------------------------------------------------------

  Dipole Moment: [D]
     X:     2.5465      Y:     1.1252      Z:     0.7446     Total:     2.8818

*** Psi4 exiting successfully. Buy a developer a beer!
