                               Psi4 1.4a3.dev225

  ==> Input File <==

--------------------------------------------------------------------------
#psi4
#
memory 32 gb

molecule  {
0 1
  O       -0.1447520     2.0657680    -0.9147710
  O       -2.4135200    -1.3721290    -0.1231600
  N        2.4623060    -1.2702550     0.0647480
  C        1.2743520    -0.4775570    -0.2805680
  C        1.2169020     0.7460590     0.6287670
  C        0.0292070    -1.3356180    -0.0781670
  C       -0.0652210     1.5501200     0.4236430
  C       -1.2565570    -0.5478520    -0.3033930
  C       -1.3010200     0.6792110     0.6017970
  H        1.2815110    -0.1258050    -1.3254330
  H        1.2841188     0.4009238     1.6896434
  H        2.0904420     1.3917410     0.4518040
  H        0.0420040    -2.2046970    -0.7480580
  H        0.0468530    -1.7199520     0.9526730
  H       -0.0971920     2.3821090     1.1446700
  H       -1.3133970    -0.2220240    -1.3458810
  H       -1.3538320     0.3483370     1.6492240
  H       -2.2017640     1.2636240     0.3898210
  H        3.3008500    -0.7206310    -0.1283000
  H        2.5136850    -2.0796090    -0.5553910
  H        0.6334020     2.6343050    -1.0521070
  H       -2.3814240    -1.6980050     0.7940470
units angstrom
no_reorient  #important for SAPT in psi4, default
symmetry c1  #important for SAPT in psi4, default
}

set PROPERTIES_ORIGIN ["COM"]
properties('MP2/aug-cc-pvtz', properties = ['dipole'])
--------------------------------------------------------------------------

    Molecular point group: c1
  Charge       = 0
  Multiplicity = 1
  Basis Set: AUG-CC-PVTZ
    Blend: AUG-CC-PVTZ
  Basis Set: (AUG-CC-PVTZ AUX)
    Blend: AUG-CC-PVTZ-JKFIT

    Orbital Energies [Eh]
    ---------------------

    Doubly Occupied:

       1A    -20.562086     2A    -20.551650     3A    -15.546079
       4A    -11.286086     5A    -11.271946     6A    -11.256698
       7A    -11.228205     8A    -11.219846     9A    -11.217680
      10A     -1.362839    11A     -1.350114    12A     -1.192303
      13A     -1.087177    14A     -0.995589    15A     -0.985654
      16A     -0.840125    17A     -0.823130    18A     -0.768878
      19A     -0.696109    20A     -0.677419    21A     -0.654570
      22A     -0.641731    23A     -0.625690    24A     -0.611290
      25A     -0.591796    26A     -0.563485    27A     -0.548553
      28A     -0.530290    29A     -0.526133    30A     -0.499459
      31A     -0.489338    32A     -0.475922    33A     -0.453711
      34A     -0.444157    35A     -0.420407    36A     -0.395499

  @DF-RHF Final Energy:  -439.10893497955061

   => Energetics <=

    Nuclear Repulsion Energy =            506.7836024418350007
    One-Electron Energy =               -1605.0017857955901945
    Two-Electron Energy =                 659.1092483742045260
    Total Energy =                       -439.1089349795506678
  Basis Set: (AUG-CC-PVTZ AUX)
    Blend: AUG-CC-PVTZ-RI
    Molecular point group: c1

    Geometry (in Angstrom), charge = 0, multiplicity = 1:

       Center              X                  Y                   Z               Mass
    ------------   -----------------  -----------------  -----------------  -----------------
         O           -0.115824903182     2.063272410872    -0.900595835289    15.994914619570
         O           -2.384592903182    -1.374624589128    -0.108984835289    15.994914619570
         N            2.491233096818    -1.272750589128     0.078923164711    14.003074004430
         C            1.303279096818    -0.480052589128    -0.266392835289    12.000000000000
         C            1.245829096818     0.743563410872     0.642942164711    12.000000000000
         C            0.058134096818    -1.338113589128    -0.063991835289    12.000000000000
         C           -0.036293903182     1.547624410872     0.437818164711    12.000000000000
         C           -1.227629903182    -0.550347589128    -0.289217835289    12.000000000000
         C           -1.272092903182     0.676715410872     0.615972164711    12.000000000000
         H            1.310438096818    -0.128300589128    -1.311257835289     1.007825032230
         H            1.313045896818     0.398428210872     1.703818564711     1.007825032230
         H            2.119369096818     1.389245410872     0.465979164711     1.007825032230
         H            0.070931096818    -2.207192589128    -0.733882835289     1.007825032230
         H            0.075780096818    -1.722447589128     0.966848164711     1.007825032230
         H           -0.068264903182     2.379613410872     1.158845164711     1.007825032230
         H           -1.284469903182    -0.224519589128    -1.331705835289     1.007825032230
         H           -1.324904903182     0.345841410872     1.663399164711     1.007825032230
         H           -2.172836903182     1.261128410872     0.403996164711     1.007825032230
         H            3.329777096818    -0.723126589128    -0.114124835289     1.007825032230
         H            2.542612096818    -2.082104589128    -0.541215835289     1.007825032230
         H            0.662329096818     2.631809410872    -1.037931835289     1.007825032230
         H           -2.352496903182    -1.700500589128     0.808222164711     1.007825032230

  Basis Set: AUG-CC-PVTZ
    Blend: AUG-CC-PVTZ
  Basis Set: (AUG-CC-PVTZ AUX)
    Blend: AUG-CC-PVTZ-JKFIT
	 Reference Energy          =    -439.1089349795506109 [Eh]
	 Singles Energy            =      -0.0000000000000000 [Eh]
	 Same-Spin Energy          =      -0.4515419699634897 [Eh]
	 Opposite-Spin Energy      =      -1.4734329818949106 [Eh]
	 Correlation Energy        =      -1.9249749518584003 [Eh]
	 Total Energy              =    -441.0339099314090276 [Eh]

	 ================> DF-SCS-MP2 Energies <==================
	-----------------------------------------------------------
	 SCS Same-Spin Scale       =       0.3333333333333333 [-]
	 SCS Opposite-Spin Scale   =       1.2000000000000000 [-]
	 SCS Same-Spin Energy      =      -0.1505139899878299 [Eh]
	 SCS Opposite-Spin Energy  =      -1.7681195782738925 [Eh]
	 SCS Correlation Energy    =      -1.9186335682617224 [Eh]
	 SCS Total Energy          =    -441.0275685478123364 [Eh]
	-----------------------------------------------------------

  Dipole Moment: [D]
     X:     2.5363      Y:     1.1285      Z:     0.7349     Total:     2.8717

*** Psi4 exiting successfully. Buy a developer a beer!
