                               Psi4 1.4a3.dev225

  ==> Input File <==

--------------------------------------------------------------------------
#psi4
#
memory 32 gb

molecule  {
0 1
  O       -0.1447520     2.0657680    -0.9147710
  O       -2.4135200    -1.3721290    -0.1231600
  N        2.4623060    -1.2702550     0.0647480
  C        1.2743520    -0.4775570    -0.2805680
  C        1.2169020     0.7460590     0.6287670
  C        0.0292070    -1.3356180    -0.0781670
  C       -0.0652210     1.5501200     0.4236430
  C       -1.2565570    -0.5478520    -0.3033930
  C       -1.3010200     0.6792110     0.6017970
  H        1.2815110    -0.1258050    -1.3254330
  H        1.2829160     0.4071000     1.6706590
  H        2.0904420     1.3917410     0.4518040
  H        0.0420040    -2.2046970    -0.7480580
  H        0.0468530    -1.7199520     0.9526730
  H       -0.0971920     2.3821090     1.1446700
  H       -1.3133970    -0.2220240    -1.3458810
  H       -1.3562332     0.3332934     1.6968467
  H       -2.2017640     1.2636240     0.3898210
  H        3.3008500    -0.7206310    -0.1283000
  H        2.5136850    -2.0796090    -0.5553910
  H        0.6334020     2.6343050    -1.0521070
  H       -2.3814240    -1.6980050     0.7940470
units angstrom
no_reorient  #important for SAPT in psi4, default
symmetry c1  #important for SAPT in psi4, default
}

set PROPERTIES_ORIGIN ["COM"]
properties('MP2/aug-cc-pvtz', properties = ['dipole'])
--------------------------------------------------------------------------

    Molecular point group: c1
  Charge       = 0
  Multiplicity = 1
  Basis Set: AUG-CC-PVTZ
    Blend: AUG-CC-PVTZ
  Basis Set: (AUG-CC-PVTZ AUX)
    Blend: AUG-CC-PVTZ-JKFIT

    Orbital Energies [Eh]
    ---------------------

    Doubly Occupied:

       1A    -20.562410     2A    -20.551636     3A    -15.546109
       4A    -11.286480     5A    -11.272574     6A    -11.256561
       7A    -11.226129     8A    -11.225849     9A    -11.217711
      10A     -1.363178    11A     -1.350136    12A     -1.192376
      13A     -1.086681    14A     -0.996233    15A     -0.984482
      16A     -0.840731    17A     -0.821817    18A     -0.767581
      19A     -0.695756    20A     -0.678128    21A     -0.654781
      22A     -0.641804    23A     -0.626043    24A     -0.610867
      25A     -0.591379    26A     -0.563544    27A     -0.548855
      28A     -0.529806    29A     -0.523038    30A     -0.498932
      31A     -0.490491    32A     -0.475077    33A     -0.454062
      34A     -0.444078    35A     -0.420750    36A     -0.395507

  @DF-RHF Final Energy:  -439.10741511532484

   => Energetics <=

    Nuclear Repulsion Energy =            506.6350120510547868
    One-Electron Energy =               -1604.7017062501768123
    Two-Electron Energy =                 658.9592790837973553
    Total Energy =                       -439.1074151153247840
  Basis Set: (AUG-CC-PVTZ AUX)
    Blend: AUG-CC-PVTZ-RI
    Molecular point group: c1

    Geometry (in Angstrom), charge = 0, multiplicity = 1:

       Center              X                  Y                   Z               Mass
    ------------   -----------------  -----------------  -----------------  -----------------
         O           -0.115797196467     2.063340581382    -0.900815999882    15.994914619570
         O           -2.384565196467    -1.374556418618    -0.109204999882    15.994914619570
         N            2.491260803533    -1.272682418618     0.078703000118    14.003074004430
         C            1.303306803533    -0.479984418618    -0.266612999882    12.000000000000
         C            1.245856803533     0.743631581382     0.642722000118    12.000000000000
         C            0.058161803533    -1.338045418618    -0.064211999882    12.000000000000
         C           -0.036266196467     1.547692581382     0.437598000118    12.000000000000
         C           -1.227602196467    -0.550279418618    -0.289437999882    12.000000000000
         C           -1.272065196467     0.676783581382     0.615752000118    12.000000000000
         H            1.310465803533    -0.128232418618    -1.311477999882     1.007825032230
         H            1.311870803533     0.404672581382     1.684614000118     1.007825032230
         H            2.119396803533     1.389313581382     0.465759000118     1.007825032230
         H            0.070958803533    -2.207124418618    -0.734102999882     1.007825032230
         H            0.075807803533    -1.722379418618     0.966628000118     1.007825032230
         H           -0.068237196467     2.379681581382     1.158625000118     1.007825032230
         H           -1.284442196467    -0.224451418618    -1.331925999882     1.007825032230
         H           -1.327278396467     0.330865981382     1.710801700118     1.007825032230
         H           -2.172809196467     1.261196581382     0.403776000118     1.007825032230
         H            3.329804803533    -0.723058418618    -0.114344999882     1.007825032230
         H            2.542639803533    -2.082036418618    -0.541435999882     1.007825032230
         H            0.662356803533     2.631877581382    -1.038151999882     1.007825032230
         H           -2.352469196467    -1.700432418618     0.808002000118     1.007825032230

  Basis Set: AUG-CC-PVTZ
    Blend: AUG-CC-PVTZ
  Basis Set: (AUG-CC-PVTZ AUX)
    Blend: AUG-CC-PVTZ-JKFIT
	 Reference Energy          =    -439.1074151153248408 [Eh]
	 Singles Energy            =      -0.0000000000000000 [Eh]
	 Same-Spin Energy          =      -0.4515337188433428 [Eh]
	 Opposite-Spin Energy      =      -1.4736037921396559 [Eh]
	 Correlation Energy        =      -1.9251375109829987 [Eh]
	 Total Energy              =    -441.0325526263078473 [Eh]

	 ================> DF-SCS-MP2 Energies <==================
	-----------------------------------------------------------
	 SCS Same-Spin Scale       =       0.3333333333333333 [-]
	 SCS Opposite-Spin Scale   =       1.2000000000000000 [-]
	 SCS Same-Spin Energy      =      -0.1505112396144476 [Eh]
	 SCS Opposite-Spin Energy  =      -1.7683245505675871 [Eh]
	 SCS Correlation Energy    =      -1.9188357901820348 [Eh]
	 SCS Total Energy          =    -441.0262509055068563 [Eh]
	-----------------------------------------------------------

  Dipole Moment: [D]
     X:     2.5441      Y:     1.1371      Z:     0.7132     Total:     2.8764

*** Psi4 exiting successfully. Buy a developer a beer!
