                               Psi4 1.4a3.dev225

  ==> Input File <==

--------------------------------------------------------------------------
#psi4
#
memory 32 gb

molecule  {
0 1
  O       -0.1447520     2.0657680    -0.9147710
  O       -2.4135200    -1.3721290    -0.1231600
  N        2.4623060    -1.2702550     0.0647480
  C        1.2743520    -0.4775570    -0.2805680
  C        1.2169020     0.7460590     0.6287670
  C        0.0292070    -1.3356180    -0.0781670
  C       -0.0652210     1.5501200     0.4236430
  C       -1.2707426    -0.5833796    -0.3403875
  C       -1.3010200     0.6792110     0.6017970
  H        1.2815110    -0.1258050    -1.3254330
  H        1.2829160     0.4071000     1.6706590
  H        2.0904420     1.3917410     0.4518040
  H        0.0420040    -2.2046970    -0.7480580
  H        0.0468530    -1.7199520     0.9526730
  H       -0.0971920     2.3821090     1.1446700
  H       -1.3133970    -0.2220240    -1.3458810
  H       -1.3538320     0.3483370     1.6492240
  H       -2.2017640     1.2636240     0.3898210
  H        3.3008500    -0.7206310    -0.1283000
  H        2.5136850    -2.0796090    -0.5553910
  H        0.6334020     2.6343050    -1.0521070
  H       -2.3814240    -1.6980050     0.7940470
units angstrom
no_reorient  #important for SAPT in psi4, default
symmetry c1  #important for SAPT in psi4, default
}

set PROPERTIES_ORIGIN ["COM"]
properties('MP2/aug-cc-pvtz', properties = ['dipole'])
--------------------------------------------------------------------------

    Molecular point group: c1
  Charge       = 0
  Multiplicity = 1
  Basis Set: AUG-CC-PVTZ
    Blend: AUG-CC-PVTZ
  Basis Set: (AUG-CC-PVTZ AUX)
    Blend: AUG-CC-PVTZ-JKFIT

    Orbital Energies [Eh]
    ---------------------

    Doubly Occupied:

       1A    -20.560904     2A    -20.554107     3A    -15.545945
       4A    -11.284164     5A    -11.271958     6A    -11.256492
       7A    -11.224868     8A    -11.218949     9A    -11.217237
      10A     -1.363028    11A     -1.358443    12A     -1.191938
      13A     -1.082352    14A     -0.995976    15A     -0.980507
      16A     -0.841372    17A     -0.823503    18A     -0.770225
      19A     -0.696273    20A     -0.677801    21A     -0.654898
      22A     -0.640158    23A     -0.626225    24A     -0.617079
      25A     -0.593941    26A     -0.564361    27A     -0.548925
      28A     -0.529685    29A     -0.525569    30A     -0.496905
      31A     -0.490392    32A     -0.479250    33A     -0.452094
      34A     -0.447328    35A     -0.410057    36A     -0.394351

  @DF-RHF Final Energy:  -439.10797787641155

   => Energetics <=

    Nuclear Repulsion Energy =            506.4276078711893661
    One-Electron Energy =               -1604.2966503531563376
    Two-Electron Energy =                 658.7610646055553616
    Total Energy =                       -439.1079778764116099
  Basis Set: (AUG-CC-PVTZ AUX)
    Blend: AUG-CC-PVTZ-RI
    Molecular point group: c1

    Geometry (in Angstrom), charge = 0, multiplicity = 1:

       Center              X                  Y                   Z               Mass
    ------------   -----------------  -----------------  -----------------  -----------------
         O           -0.114517150044     2.066477017158    -0.897063524634    15.994914619570
         O           -2.383285150044    -1.371419982842    -0.105452524634    15.994914619570
         N            2.492540849956    -1.269545982842     0.082455475366    14.003074004430
         C            1.304586849956    -0.476847982842    -0.262860524634    12.000000000000
         C            1.247136849956     0.746768017158     0.646474475366    12.000000000000
         C            0.059441849956    -1.334908982842    -0.060459524634    12.000000000000
         C           -0.034986150044     1.550829017158     0.441350475366    12.000000000000
         C           -1.240507750044    -0.582670582842    -0.322680024634    12.000000000000
         C           -1.270785150044     0.679920017158     0.619504475366    12.000000000000
         H            1.311745849956    -0.125095982842    -1.307725524634     1.007825032230
         H            1.313150849956     0.407809017158     1.688366475366     1.007825032230
         H            2.120676849956     1.392450017158     0.469511475366     1.007825032230
         H            0.072238849956    -2.203987982842    -0.730350524634     1.007825032230
         H            0.077087849956    -1.719242982842     0.970380475366     1.007825032230
         H           -0.066957150044     2.382818017158     1.162377475366     1.007825032230
         H           -1.283162150044    -0.221314982842    -1.328173524634     1.007825032230
         H           -1.323597150044     0.349046017158     1.666931475366     1.007825032230
         H           -2.171529150044     1.264333017158     0.407528475366     1.007825032230
         H            3.331084849956    -0.719921982842    -0.110592524634     1.007825032230
         H            2.543919849956    -2.078899982842    -0.537683524634     1.007825032230
         H            0.663636849956     2.635014017158    -1.034399524634     1.007825032230
         H           -2.351189150044    -1.697295982842     0.811754475366     1.007825032230

  Basis Set: AUG-CC-PVTZ
    Blend: AUG-CC-PVTZ
  Basis Set: (AUG-CC-PVTZ AUX)
    Blend: AUG-CC-PVTZ-JKFIT
	 Reference Energy          =    -439.1079778764115531 [Eh]
	 Singles Energy            =      -0.0000000000000000 [Eh]
	 Same-Spin Energy          =      -0.4511944944748512 [Eh]
	 Opposite-Spin Energy      =      -1.4726256796186064 [Eh]
	 Correlation Energy        =      -1.9238201740934575 [Eh]
	 Total Energy              =    -441.0317980505050173 [Eh]

	 ================> DF-SCS-MP2 Energies <==================
	-----------------------------------------------------------
	 SCS Same-Spin Scale       =       0.3333333333333333 [-]
	 SCS Opposite-Spin Scale   =       1.2000000000000000 [-]
	 SCS Same-Spin Energy      =      -0.1503981648249504 [Eh]
	 SCS Opposite-Spin Energy  =      -1.7671508155423277 [Eh]
	 SCS Correlation Energy    =      -1.9175489803672781 [Eh]
	 SCS Total Energy          =    -441.0255268567788107 [Eh]
	-----------------------------------------------------------

  Dipole Moment: [D]
     X:     2.4558      Y:     1.0182      Z:     0.7051     Total:     2.7505

*** Psi4 exiting successfully. Buy a developer a beer!
