                               Psi4 1.4a3.dev225

  ==> Input File <==

--------------------------------------------------------------------------
#psi4
#
memory 32 gb

molecule  {
0 1
  O       -0.1447520     2.0657680    -0.9147710
  O       -2.4135200    -1.3721290    -0.1231600
  N        2.4623060    -1.2702550     0.0647480
  C        1.2743520    -0.4775570    -0.2805680
  C        1.2169020     0.7460590     0.6287670
  C        0.0356157    -1.3320204    -0.1037414
  C       -0.0652210     1.5501200     0.4236430
  C       -1.2565570    -0.5478520    -0.3033930
  C       -1.3010200     0.6792110     0.6017970
  H        1.2815110    -0.1258050    -1.3254330
  H        1.2829160     0.4071000     1.6706590
  H        2.0904420     1.3917410     0.4518040
  H        0.0420040    -2.2046970    -0.7480580
  H        0.0468530    -1.7199520     0.9526730
  H       -0.0971920     2.3821090     1.1446700
  H       -1.3133970    -0.2220240    -1.3458810
  H       -1.3538320     0.3483370     1.6492240
  H       -2.2017640     1.2636240     0.3898210
  H        3.3008500    -0.7206310    -0.1283000
  H        2.5136850    -2.0796090    -0.5553910
  H        0.6334020     2.6343050    -1.0521070
  H       -2.3814240    -1.6980050     0.7940470
units angstrom
no_reorient  #important for SAPT in psi4, default
symmetry c1  #important for SAPT in psi4, default
}

set PROPERTIES_ORIGIN ["COM"]
properties('MP2/aug-cc-pvtz', properties = ['dipole'])
--------------------------------------------------------------------------

    Molecular point group: c1
  Charge       = 0
  Multiplicity = 1
  Basis Set: AUG-CC-PVTZ
    Blend: AUG-CC-PVTZ
  Basis Set: (AUG-CC-PVTZ AUX)
    Blend: AUG-CC-PVTZ-JKFIT

    Orbital Energies [Eh]
    ---------------------

    Doubly Occupied:

       1A    -20.561914     2A    -20.552104     3A    -15.546231
       4A    -11.286042     5A    -11.272052     6A    -11.256229
       7A    -11.226146     8A    -11.220151     9A    -11.218487
      10A     -1.362713    11A     -1.350240    12A     -1.192936
      13A     -1.087523    14A     -0.996700    15A     -0.986569
      16A     -0.840555    17A     -0.824045    18A     -0.768400
      19A     -0.696290    20A     -0.677787    21A     -0.655017
      22A     -0.643480    23A     -0.625952    24A     -0.611191
      25A     -0.591437    26A     -0.564625    27A     -0.550102
      28A     -0.530392    29A     -0.524059    30A     -0.500764
      31A     -0.489358    32A     -0.474743    33A     -0.453946
      34A     -0.444291    35A     -0.421341    36A     -0.395272

  @DF-RHF Final Energy:  -439.10856579381618

   => Energetics <=

    Nuclear Repulsion Energy =            506.9332410210794819
    One-Electron Energy =               -1605.2854497423747944
    Two-Electron Energy =                 659.2436429274790726
    Total Energy =                       -439.1085657938161830
  Basis Set: (AUG-CC-PVTZ AUX)
    Blend: AUG-CC-PVTZ-RI
    Molecular point group: c1

    Geometry (in Angstrom), charge = 0, multiplicity = 1:

       Center              X                  Y                   Z               Mass
    ------------   -----------------  -----------------  -----------------  -----------------
         O           -0.116402289066     2.062895616419    -0.898108885542    15.994914619570
         O           -2.385170289066    -1.375001383581    -0.106497885542    15.994914619570
         N            2.490655710934    -1.273127383581     0.081410114458    14.003074004430
         C            1.302701710934    -0.480429383581    -0.263905885542    12.000000000000
         C            1.245251710934     0.743186616419     0.645429114458    12.000000000000
         C            0.063965410934    -1.334892783581    -0.087079285542    12.000000000000
         C           -0.036871289066     1.547247616419     0.440305114458    12.000000000000
         C           -1.228207289066    -0.550724383581    -0.286730885542    12.000000000000
         C           -1.272670289066     0.676338616419     0.618459114458    12.000000000000
         H            1.309860710934    -0.128677383581    -1.308770885542     1.007825032230
         H            1.311265710934     0.404227616419     1.687321114458     1.007825032230
         H            2.118791710934     1.388868616419     0.468466114458     1.007825032230
         H            0.070353710934    -2.207569383581    -0.731395885542     1.007825032230
         H            0.075202710934    -1.722824383581     0.969335114458     1.007825032230
         H           -0.068842289066     2.379236616419     1.161332114458     1.007825032230
         H           -1.285047289066    -0.224896383581    -1.329218885542     1.007825032230
         H           -1.325482289066     0.345464616419     1.665886114458     1.007825032230
         H           -2.173414289066     1.260751616419     0.406483114458     1.007825032230
         H            3.329199710934    -0.723503383581    -0.111637885542     1.007825032230
         H            2.542034710934    -2.082481383581    -0.538728885542     1.007825032230
         H            0.661751710934     2.631432616419    -1.035444885542     1.007825032230
         H           -2.353074289066    -1.700877383581     0.810709114458     1.007825032230

  Basis Set: AUG-CC-PVTZ
    Blend: AUG-CC-PVTZ
  Basis Set: (AUG-CC-PVTZ AUX)
    Blend: AUG-CC-PVTZ-JKFIT
	 Reference Energy          =    -439.1085657938161830 [Eh]
	 Singles Energy            =      -0.0000000000000000 [Eh]
	 Same-Spin Energy          =      -0.4516023611102715 [Eh]
	 Opposite-Spin Energy      =      -1.4733936979383984 [Eh]
	 Correlation Energy        =      -1.9249960590486699 [Eh]
	 Total Energy              =    -441.0335618528648638 [Eh]

	 ================> DF-SCS-MP2 Energies <==================
	-----------------------------------------------------------
	 SCS Same-Spin Scale       =       0.3333333333333333 [-]
	 SCS Opposite-Spin Scale   =       1.2000000000000000 [-]
	 SCS Same-Spin Energy      =      -0.1505341203700905 [Eh]
	 SCS Opposite-Spin Energy  =      -1.7680724375260779 [Eh]
	 SCS Correlation Energy    =      -1.9186065578961684 [Eh]
	 SCS Total Energy          =    -441.0271723517123519 [Eh]
	-----------------------------------------------------------

  Dipole Moment: [D]
     X:     2.5371      Y:     1.1313      Z:     0.7288     Total:     2.8719

*** Psi4 exiting successfully. Buy a developer a beer!
