                               Psi4 1.4a3.dev225

  ==> Input File <==

--------------------------------------------------------------------------
#psi4
#
memory 32 gb

molecule  {
0 1
  O       -0.1447520     2.0657680    -0.9147710
  O       -2.4135200    -1.3721290    -0.1231600
  N        2.4623060    -1.2702550     0.0647480
  C        1.2743520    -0.4775570    -0.2805680
  C        1.2169020     0.7460590     0.6287670
  C        0.0292070    -1.3356180    -0.0781670
  C       -0.0652210     1.5501200     0.4236430
  C       -1.2565570    -0.5478520    -0.3033930
  C       -1.3010200     0.6792110     0.6017970
  H        1.2815110    -0.1258050    -1.3254330
  H        1.2829160     0.4071000     1.6706590
  H        2.0904420     1.3917410     0.4518040
  H        0.0420040    -2.2046970    -0.7480580
  H        0.0468530    -1.7199520     0.9526730
  H       -0.0971920     2.3821090     1.1446700
  H       -1.3133970    -0.2220240    -1.3458810
  H       -1.3538320     0.3483370     1.6492240
  H       -2.2017640     1.2636240     0.3898210
  H        3.3008500    -0.7206310    -0.1283000
  H        2.5136850    -2.0796090    -0.5553910
  H        0.6493894     2.6459858    -1.0549286
  H       -2.3814240    -1.6980050     0.7940470
units angstrom
no_reorient  #important for SAPT in psi4, default
symmetry c1  #important for SAPT in psi4, default
}

set PROPERTIES_ORIGIN ["COM"]
properties('MP2/aug-cc-pvtz', properties = ['dipole'])
--------------------------------------------------------------------------

    Molecular point group: c1
  Charge       = 0
  Multiplicity = 1
  Basis Set: AUG-CC-PVTZ
    Blend: AUG-CC-PVTZ
  Basis Set: (AUG-CC-PVTZ AUX)
    Blend: AUG-CC-PVTZ-JKFIT

    Orbital Energies [Eh]
    ---------------------

    Doubly Occupied:

       1A    -20.563707     2A    -20.551600     3A    -15.545998
       4A    -11.285747     5A    -11.271889     6A    -11.256397
       7A    -11.225695     8A    -11.219839     9A    -11.217612
      10A     -1.358828    11A     -1.349784    12A     -1.192222
      13A     -1.086784    14A     -0.995693    15A     -0.985771
      16A     -0.839843    17A     -0.823063    18A     -0.768286
      19A     -0.694327    20A     -0.676937    21A     -0.654644
      22A     -0.641339    23A     -0.625484    24A     -0.611548
      25A     -0.591419    26A     -0.563284    27A     -0.548421
      28A     -0.530138    29A     -0.526503    30A     -0.499263
      31A     -0.490188    32A     -0.475752    33A     -0.453258
      34A     -0.443986    35A     -0.420256    36A     -0.395333

  @DF-RHF Final Energy:  -439.10785970858205

   => Energetics <=

    Nuclear Repulsion Energy =            506.7591053218347383
    One-Electron Energy =               -1604.9722518389212382
    Two-Electron Energy =                 659.1052868085043883
    Total Energy =                       -439.1078597085820547
  Basis Set: (AUG-CC-PVTZ AUX)
    Blend: AUG-CC-PVTZ-RI
    Molecular point group: c1

    Geometry (in Angstrom), charge = 0, multiplicity = 1:

       Center              X                  Y                   Z               Mass
    ------------   -----------------  -----------------  -----------------  -----------------
         O           -0.115938563750     2.063135130407    -0.900428195829    15.994914619570
         O           -2.384706563750    -1.374761869593    -0.108817195829    15.994914619570
         N            2.491119436250    -1.272887869593     0.079090804171    14.003074004430
         C            1.303165436250    -0.480189869593    -0.266225195829    12.000000000000
         C            1.245715436250     0.743426130407     0.643109804171    12.000000000000
         C            0.058020436250    -1.338250869593    -0.063824195829    12.000000000000
         C           -0.036407563750     1.547487130407     0.437985804171    12.000000000000
         C           -1.227743563750    -0.550484869593    -0.289050195829    12.000000000000
         C           -1.272206563750     0.676578130407     0.616139804171    12.000000000000
         H            1.310324436250    -0.128437869593    -1.311090195829     1.007825032230
         H            1.311729436250     0.404467130407     1.685001804171     1.007825032230
         H            2.119255436250     1.389108130407     0.466146804171     1.007825032230
         H            0.070817436250    -2.207329869593    -0.733715195829     1.007825032230
         H            0.075666436250    -1.722584869593     0.967015804171     1.007825032230
         H           -0.068378563750     2.379476130407     1.159012804171     1.007825032230
         H           -1.284583563750    -0.224656869593    -1.331538195829     1.007825032230
         H           -1.325018563750     0.345704130407     1.663566804171     1.007825032230
         H           -2.172950563750     1.260991130407     0.404163804171     1.007825032230
         H            3.329663436250    -0.723263869593    -0.113957195829     1.007825032230
         H            2.542498436250    -2.082241869593    -0.541048195829     1.007825032230
         H            0.678202836250     2.643352930407    -1.040585795829     1.007825032230
         H           -2.352610563750    -1.700637869593     0.808389804171     1.007825032230

  Basis Set: AUG-CC-PVTZ
    Blend: AUG-CC-PVTZ
  Basis Set: (AUG-CC-PVTZ AUX)
    Blend: AUG-CC-PVTZ-JKFIT
	 Reference Energy          =    -439.1078597085820547 [Eh]
	 Singles Energy            =      -0.0000000000000000 [Eh]
	 Same-Spin Energy          =      -0.4517566921423795 [Eh]
	 Opposite-Spin Energy      =      -1.4739270916259910 [Eh]
	 Correlation Energy        =      -1.9256837837683705 [Eh]
	 Total Energy              =    -441.0335434923504181 [Eh]

	 ================> DF-SCS-MP2 Energies <==================
	-----------------------------------------------------------
	 SCS Same-Spin Scale       =       0.3333333333333333 [-]
	 SCS Opposite-Spin Scale   =       1.2000000000000000 [-]
	 SCS Same-Spin Energy      =      -0.1505855640474598 [Eh]
	 SCS Opposite-Spin Energy  =      -1.7687125099511891 [Eh]
	 SCS Correlation Energy    =      -1.9192980739986489 [Eh]
	 SCS Total Energy          =    -441.0271577825807299 [Eh]
	-----------------------------------------------------------

  Dipole Moment: [D]
     X:     2.5452      Y:     1.1369      Z:     0.7402     Total:     2.8842

*** Psi4 exiting successfully. Buy a developer a beer!
