                               Psi4 1.4a3.dev225

  ==> Input File <==

--------------------------------------------------------------------------
#psi4
#
memory 32 gb

molecule  {
0 1
  O       -0.1447520     2.0657680    -0.9147710
  O       -2.4135200    -1.3721290    -0.1231600
  N        2.4623060    -1.2702550     0.0647480
  C        1.2743520    -0.4775570    -0.2805680
  C        1.2169020     0.7460590     0.6287670
  C        0.0292070    -1.3356180    -0.0781670
  C       -0.0652210     1.5501200     0.4236430
  C       -1.2565570    -0.5478520    -0.3033930
  C       -1.3010200     0.6792110     0.6017970
  H        1.2815110    -0.1258050    -1.3254330
  H        1.2829160     0.4071000     1.6706590
  H        2.0904420     1.3917410     0.4518040
  H        0.0420040    -2.2046970    -0.7480580
  H        0.0468530    -1.7199520     0.9526730
  H       -0.0986434     2.4198782     1.1774019
  H       -1.3133970    -0.2220240    -1.3458810
  H       -1.3538320     0.3483370     1.6492240
  H       -2.2017640     1.2636240     0.3898210
  H        3.3008500    -0.7206310    -0.1283000
  H        2.5136850    -2.0796090    -0.5553910
  H        0.6334020     2.6343050    -1.0521070
  H       -2.3814240    -1.6980050     0.7940470
units angstrom
no_reorient  #important for SAPT in psi4, default
symmetry c1  #important for SAPT in psi4, default
}

set PROPERTIES_ORIGIN ["COM"]
properties('MP2/aug-cc-pvtz', properties = ['dipole'])
--------------------------------------------------------------------------

    Molecular point group: c1
  Charge       = 0
  Multiplicity = 1
  Basis Set: AUG-CC-PVTZ
    Blend: AUG-CC-PVTZ
  Basis Set: (AUG-CC-PVTZ AUX)
    Blend: AUG-CC-PVTZ-JKFIT

    Orbital Energies [Eh]
    ---------------------

    Doubly Occupied:

       1A    -20.562901     2A    -20.551991     3A    -15.546376
       4A    -11.292133     5A    -11.272324     6A    -11.256883
       7A    -11.226383     8A    -11.220357     9A    -11.217965
      10A     -1.363234    11A     -1.350440    12A     -1.192666
      13A     -1.087291    14A     -0.995307    15A     -0.986150
      16A     -0.838416    17A     -0.822280    18A     -0.769614
      19A     -0.692823    20A     -0.678468    21A     -0.654040
      22A     -0.641094    23A     -0.626219    24A     -0.610532
      25A     -0.592397    26A     -0.563312    27A     -0.548843
      28A     -0.530641    29A     -0.526721    30A     -0.499266
      31A     -0.490737    32A     -0.476107    33A     -0.454079
      34A     -0.443478    35A     -0.419273    36A     -0.395383

  @DF-RHF Final Energy:  -439.10715091575571

   => Energetics <=

    Nuclear Repulsion Energy =            506.6061804393875150
    One-Electron Energy =               -1604.6344121100435132
    Two-Electron Energy =                 658.9210807549002311
    Total Energy =                       -439.1071509157557102
  Basis Set: (AUG-CC-PVTZ AUX)
    Blend: AUG-CC-PVTZ-RI
    Molecular point group: c1

    Geometry (in Angstrom), charge = 0, multiplicity = 1:

       Center              X                  Y                   Z               Mass
    ------------   -----------------  -----------------  -----------------  -----------------
         O           -0.115804498309     2.062934568852    -0.900701522873    15.994914619570
         O           -2.384572498309    -1.374962431148    -0.109090522873    15.994914619570
         N            2.491253501691    -1.273088431148     0.078817477127    14.003074004430
         C            1.303299501691    -0.480390431148    -0.266498522873    12.000000000000
         C            1.245849501691     0.743225568852     0.642836477127    12.000000000000
         C            0.058154501691    -1.338451431148    -0.064097522873    12.000000000000
         C           -0.036273498309     1.547286568852     0.437712477127    12.000000000000
         C           -1.227609498309    -0.550685431148    -0.289323522873    12.000000000000
         C           -1.272072498309     0.676377568852     0.615866477127    12.000000000000
         H            1.310458501691    -0.128638431148    -1.311363522873     1.007825032230
         H            1.311863501691     0.404266568852     1.684728477127     1.007825032230
         H            2.119389501691     1.388907568852     0.465873477127     1.007825032230
         H            0.070951501691    -2.207530431148    -0.733988522873     1.007825032230
         H            0.075800501691    -1.722785431148     0.966742477127     1.007825032230
         H           -0.069695898309     2.417044768852     1.191471377127     1.007825032230
         H           -1.284449498309    -0.224857431148    -1.331811522873     1.007825032230
         H           -1.324884498309     0.345503568852     1.663293477127     1.007825032230
         H           -2.172816498309     1.260790568852     0.403890477127     1.007825032230
         H            3.329797501691    -0.723464431148    -0.114230522873     1.007825032230
         H            2.542632501691    -2.082442431148    -0.541321522873     1.007825032230
         H            0.662349501691     2.631471568852    -1.038037522873     1.007825032230
         H           -2.352476498309    -1.700838431148     0.808116477127     1.007825032230

  Basis Set: AUG-CC-PVTZ
    Blend: AUG-CC-PVTZ
  Basis Set: (AUG-CC-PVTZ AUX)
    Blend: AUG-CC-PVTZ-JKFIT
	 Reference Energy          =    -439.1071509157557102 [Eh]
	 Singles Energy            =      -0.0000000000000000 [Eh]
	 Same-Spin Energy          =      -0.4515960186384818 [Eh]
	 Opposite-Spin Energy      =      -1.4737273599236893 [Eh]
	 Correlation Energy        =      -1.9253233785621711 [Eh]
	 Total Energy              =    -441.0324742943178649 [Eh]

	 ================> DF-SCS-MP2 Energies <==================
	-----------------------------------------------------------
	 SCS Same-Spin Scale       =       0.3333333333333333 [-]
	 SCS Opposite-Spin Scale   =       1.2000000000000000 [-]
	 SCS Same-Spin Energy      =      -0.1505320062128273 [Eh]
	 SCS Opposite-Spin Energy  =      -1.7684728319084271 [Eh]
	 SCS Correlation Energy    =      -1.9190048381212543 [Eh]
	 SCS Total Energy          =    -441.0261557538769921 [Eh]
	-----------------------------------------------------------

  Dipole Moment: [D]
     X:     2.5392      Y:     1.0889      Z:     0.7060     Total:     2.8516

*** Psi4 exiting successfully. Buy a developer a beer!
