                               Psi4 1.4a3.dev225

  ==> Input File <==

--------------------------------------------------------------------------
#psi4
#
memory 32 gb

molecule  {
0 1
  O       -0.1447520     2.0657680    -0.9147710
  O       -2.4135200    -1.3721290    -0.1231600
  N        2.4623060    -1.2702550     0.0647480
  C        1.2743520    -0.4775570    -0.2805680
  C        1.2169020     0.7460590     0.6287670
  C        0.0292070    -1.3356180    -0.0781670
  C       -0.0652210     1.5501200     0.4236430
  C       -1.2565570    -0.5478520    -0.3033930
  C       -1.3010200     0.6792110     0.6017970
  H        1.2815110    -0.1258050    -1.3254330
  H        1.2829160     0.4071000     1.6706590
  H        2.0904420     1.3917410     0.4518040
  H        0.0420040    -2.2046970    -0.7480580
  H        0.0468530    -1.7199520     0.9526730
  H       -0.0942893     2.3065706     1.0792061
  H       -1.3133970    -0.2220240    -1.3458810
  H       -1.3538320     0.3483370     1.6492240
  H       -2.2017640     1.2636240     0.3898210
  H        3.3008500    -0.7206310    -0.1283000
  H        2.5136850    -2.0796090    -0.5553910
  H        0.6334020     2.6343050    -1.0521070
  H       -2.3814240    -1.6980050     0.7940470
units angstrom
no_reorient  #important for SAPT in psi4, default
symmetry c1  #important for SAPT in psi4, default
}

set PROPERTIES_ORIGIN ["COM"]
properties('MP2/aug-cc-pvtz', properties = ['dipole'])
--------------------------------------------------------------------------

    Molecular point group: c1
  Charge       = 0
  Multiplicity = 1
  Basis Set: AUG-CC-PVTZ
    Blend: AUG-CC-PVTZ
  Basis Set: (AUG-CC-PVTZ AUX)
    Blend: AUG-CC-PVTZ-JKFIT

    Orbital Energies [Eh]
    ---------------------

    Doubly Occupied:

       1A    -20.560229     2A    -20.551081     3A    -15.545552
       4A    -11.273098     5A    -11.271337     6A    -11.255892
       7A    -11.224923     8A    -11.219081     9A    -11.217205
      10A     -1.361938    11A     -1.349566    12A     -1.191814
      13A     -1.088077    14A     -0.998720    15A     -0.985724
      16A     -0.847159    17A     -0.824748    18A     -0.769907
      19A     -0.703812    20A     -0.677339    21A     -0.656350
      22A     -0.642518    23A     -0.625265    24A     -0.613517
      25A     -0.591386    26A     -0.563942    27A     -0.548488
      28A     -0.530061    29A     -0.526947    30A     -0.500959
      31A     -0.489748    32A     -0.475418    33A     -0.452986
      34A     -0.445445    35A     -0.422068    36A     -0.395453

  @DF-RHF Final Energy:  -439.10452565127224

   => Energetics <=

    Nuclear Repulsion Energy =            507.4889006677372549
    One-Electron Energy =               -1606.3913488476257498
    Two-Electron Energy =                 659.7979225286163683
    Total Energy =                       -439.1045256512721835
  Basis Set: (AUG-CC-PVTZ AUX)
    Blend: AUG-CC-PVTZ-RI
    Molecular point group: c1

    Geometry (in Angstrom), charge = 0, multiplicity = 1:

       Center              X                  Y                   Z               Mass
    ------------   -----------------  -----------------  -----------------  -----------------
         O           -0.115837971618     2.063805651343    -0.899946616388    15.994914619570
         O           -2.384605971618    -1.374091348657    -0.108335616388    15.994914619570
         N            2.491220028382    -1.272217348657     0.079572383612    14.003074004430
         C            1.303266028382    -0.479519348657    -0.265743616388    12.000000000000
         C            1.245816028382     0.744096651343     0.643591383612    12.000000000000
         C            0.058121028382    -1.337580348657    -0.063342616388    12.000000000000
         C           -0.036306971618     1.548157651343     0.438467383612    12.000000000000
         C           -1.227642971618    -0.549814348657    -0.288568616388    12.000000000000
         C           -1.272105971618     0.677248651343     0.616621383612    12.000000000000
         H            1.310425028382    -0.127767348657    -1.310608616388     1.007825032230
         H            1.311830028382     0.405137651343     1.685483383612     1.007825032230
         H            2.119356028382     1.389778651343     0.466628383612     1.007825032230
         H            0.070918028382    -2.206659348657    -0.733233616388     1.007825032230
         H            0.075767028382    -1.721914348657     0.967497383612     1.007825032230
         H           -0.065375271618     2.304608251343     1.094030483612     1.007825032230
         H           -1.284482971618    -0.223986348657    -1.331056616388     1.007825032230
         H           -1.324917971618     0.346374651343     1.664048383612     1.007825032230
         H           -2.172849971618     1.261661651343     0.404645383612     1.007825032230
         H            3.329764028382    -0.722593348657    -0.113475616388     1.007825032230
         H            2.542599028382    -2.081571348657    -0.540566616388     1.007825032230
         H            0.662316028382     2.632342651343    -1.037282616388     1.007825032230
         H           -2.352509971618    -1.699967348657     0.808871383612     1.007825032230

  Basis Set: AUG-CC-PVTZ
    Blend: AUG-CC-PVTZ
  Basis Set: (AUG-CC-PVTZ AUX)
    Blend: AUG-CC-PVTZ-JKFIT
	 Reference Energy          =    -439.1045256512722403 [Eh]
	 Singles Energy            =      -0.0000000000000000 [Eh]
	 Same-Spin Energy          =      -0.4513947795614833 [Eh]
	 Opposite-Spin Energy      =      -1.4725796400462166 [Eh]
	 Correlation Energy        =      -1.9239744196077000 [Eh]
	 Total Energy              =    -441.0285000708799430 [Eh]

	 ================> DF-SCS-MP2 Energies <==================
	-----------------------------------------------------------
	 SCS Same-Spin Scale       =       0.3333333333333333 [-]
	 SCS Opposite-Spin Scale   =       1.2000000000000000 [-]
	 SCS Same-Spin Energy      =      -0.1504649265204944 [Eh]
	 SCS Opposite-Spin Energy  =      -1.7670955680554599 [Eh]
	 SCS Correlation Energy    =      -1.9175604945759543 [Eh]
	 SCS Total Energy          =    -441.0220861458482204 [Eh]
	-----------------------------------------------------------

  Dipole Moment: [D]
     X:     2.5351      Y:     1.1845      Z:     0.8074     Total:     2.9123

*** Psi4 exiting successfully. Buy a developer a beer!
