                               Psi4 1.4a3.dev225

  ==> Input File <==

--------------------------------------------------------------------------
#psi4
#
memory 32 gb

molecule  {
0 1
  O       -0.1447520     2.0657680    -0.9147710
  O       -2.4135200    -1.3721290    -0.1231600
  N        2.4623060    -1.2702550     0.0647480
  C        1.2743520    -0.4775570    -0.2805680
  C        1.2169020     0.7460590     0.6287670
  C        0.0292070    -1.3356180    -0.0781670
  C       -0.0652210     1.5501200     0.4236430
  C       -1.2587546    -0.5787332    -0.2600727
  C       -1.3010200     0.6792110     0.6017970
  H        1.2815110    -0.1258050    -1.3254330
  H        1.2829160     0.4071000     1.6706590
  H        2.0904420     1.3917410     0.4518040
  H        0.0420040    -2.2046970    -0.7480580
  H        0.0468530    -1.7199520     0.9526730
  H       -0.0971920     2.3821090     1.1446700
  H       -1.3133970    -0.2220240    -1.3458810
  H       -1.3538320     0.3483370     1.6492240
  H       -2.2017640     1.2636240     0.3898210
  H        3.3008500    -0.7206310    -0.1283000
  H        2.5136850    -2.0796090    -0.5553910
  H        0.6334020     2.6343050    -1.0521070
  H       -2.3814240    -1.6980050     0.7940470
units angstrom
no_reorient  #important for SAPT in psi4, default
symmetry c1  #important for SAPT in psi4, default
}

set PROPERTIES_ORIGIN ["COM"]
properties('MP2/aug-cc-pvtz', properties = ['dipole'])
--------------------------------------------------------------------------

    Molecular point group: c1
  Charge       = 0
  Multiplicity = 1
  Basis Set: AUG-CC-PVTZ
    Blend: AUG-CC-PVTZ
  Basis Set: (AUG-CC-PVTZ AUX)
    Blend: AUG-CC-PVTZ-JKFIT

    Orbital Energies [Eh]
    ---------------------

    Doubly Occupied:

       1A    -20.561100     2A    -20.556455     3A    -15.546385
       4A    -11.286045     5A    -11.273327     6A    -11.257245
       7A    -11.225818     8A    -11.219491     9A    -11.217129
      10A     -1.364566    11A     -1.359613    12A     -1.192741
      13A     -1.087735    14A     -0.997914    15A     -0.985578
      16A     -0.838568    17A     -0.824100    18A     -0.768125
      19A     -0.697202    20A     -0.678977    21A     -0.656102
      22A     -0.642665    23A     -0.628571    24A     -0.609403
      25A     -0.594161    26A     -0.563738    27A     -0.552815
      28A     -0.535747    29A     -0.525980    30A     -0.497182
      31A     -0.491187    32A     -0.467177    33A     -0.453995
      34A     -0.442763    35A     -0.420264    36A     -0.395903

  @DF-RHF Final Energy:  -439.10581105291584

   => Energetics <=

    Nuclear Repulsion Energy =            507.1343932095913374
    One-Electron Energy =               -1605.6488703366781010
    Two-Electron Energy =                 659.4086660741710375
    Total Energy =                       -439.1058110529157830
  Basis Set: (AUG-CC-PVTZ AUX)
    Blend: AUG-CC-PVTZ-RI
    Molecular point group: c1

    Geometry (in Angstrom), charge = 0, multiplicity = 1:

       Center              X                  Y                   Z               Mass
    ------------   -----------------  -----------------  -----------------  -----------------
         O           -0.115614494775     2.066051699961    -0.904415294954    15.994914619570
         O           -2.384382494775    -1.371845300039    -0.112804294954    15.994914619570
         N            2.491443505225    -1.269971300039     0.075103705046    14.003074004430
         C            1.303489505225    -0.477273300039    -0.270212294954    12.000000000000
         C            1.246039505225     0.746342699961     0.639122705046    12.000000000000
         C            0.058344505225    -1.335334300039    -0.067811294954    12.000000000000
         C           -0.036083494775     1.550403699961     0.433998705046    12.000000000000
         C           -1.229617094775    -0.578449500039    -0.249716994954    12.000000000000
         C           -1.271882494775     0.679494699961     0.612152705046    12.000000000000
         H            1.310648505225    -0.125521300039    -1.315077294954     1.007825032230
         H            1.312053505225     0.407383699961     1.681014705046     1.007825032230
         H            2.119579505225     1.392024699961     0.462159705046     1.007825032230
         H            0.071141505225    -2.204413300039    -0.737702294954     1.007825032230
         H            0.075990505225    -1.719668300039     0.963028705046     1.007825032230
         H           -0.068054494775     2.382392699961     1.155025705046     1.007825032230
         H           -1.284259494775    -0.221740300039    -1.335525294954     1.007825032230
         H           -1.324694494775     0.348620699961     1.659579705046     1.007825032230
         H           -2.172626494775     1.263907699961     0.400176705046     1.007825032230
         H            3.329987505225    -0.720347300039    -0.117944294954     1.007825032230
         H            2.542822505225    -2.079325300039    -0.545035294954     1.007825032230
         H            0.662539505225     2.634588699961    -1.041751294954     1.007825032230
         H           -2.352286494775    -1.697721300039     0.804402705046     1.007825032230

  Basis Set: AUG-CC-PVTZ
    Blend: AUG-CC-PVTZ
  Basis Set: (AUG-CC-PVTZ AUX)
    Blend: AUG-CC-PVTZ-JKFIT
	 Reference Energy          =    -439.1058110529158398 [Eh]
	 Singles Energy            =      -0.0000000000000000 [Eh]
	 Same-Spin Energy          =      -0.4518684371042933 [Eh]
	 Opposite-Spin Energy      =      -1.4736226197584914 [Eh]
	 Correlation Energy        =      -1.9254910568627848 [Eh]
	 Total Energy              =    -441.0313021097786077 [Eh]

	 ================> DF-SCS-MP2 Energies <==================
	-----------------------------------------------------------
	 SCS Same-Spin Scale       =       0.3333333333333333 [-]
	 SCS Opposite-Spin Scale   =       1.2000000000000000 [-]
	 SCS Same-Spin Energy      =      -0.1506228123680977 [Eh]
	 SCS Opposite-Spin Energy  =      -1.7683471437101896 [Eh]
	 SCS Correlation Energy    =      -1.9189699560782874 [Eh]
	 SCS Total Energy          =    -441.0247810089941254 [Eh]
	-----------------------------------------------------------

  Dipole Moment: [D]
     X:     2.4932      Y:     1.0528      Z:     0.7860     Total:     2.8182

*** Psi4 exiting successfully. Buy a developer a beer!
