                               Psi4 1.4a3.dev225

  ==> Input File <==

--------------------------------------------------------------------------
#psi4
#
memory 32 gb

molecule  {
0 1
  O       -0.1447520     2.0657680    -0.9147710
  O       -2.4135200    -1.3721290    -0.1231600
  N        2.4623060    -1.2702550     0.0647480
  C        1.2743520    -0.4775570    -0.2805680
  C        1.2169020     0.7460590     0.6287670
  C        0.0292070    -1.3356180    -0.0781670
  C       -0.0652210     1.5501200     0.4236430
  C       -1.2833444    -0.6198238    -0.3770624
  C       -1.3010200     0.6792110     0.6017970
  H        1.2815110    -0.1258050    -1.3254330
  H        1.2829160     0.4071000     1.6706590
  H        2.0904420     1.3917410     0.4518040
  H        0.0420040    -2.2046970    -0.7480580
  H        0.0468530    -1.7199520     0.9526730
  H       -0.0971920     2.3821090     1.1446700
  H       -1.3133970    -0.2220240    -1.3458810
  H       -1.3538320     0.3483370     1.6492240
  H       -2.2017640     1.2636240     0.3898210
  H        3.3008500    -0.7206310    -0.1283000
  H        2.5136850    -2.0796090    -0.5553910
  H        0.6334020     2.6343050    -1.0521070
  H       -2.3814240    -1.6980050     0.7940470
units angstrom
no_reorient  #important for SAPT in psi4, default
symmetry c1  #important for SAPT in psi4, default
}

set PROPERTIES_ORIGIN ["COM"]
properties('MP2/aug-cc-pvtz', properties = ['dipole'])
--------------------------------------------------------------------------

    Molecular point group: c1
  Charge       = 0
  Multiplicity = 1
  Basis Set: AUG-CC-PVTZ
    Blend: AUG-CC-PVTZ
  Basis Set: (AUG-CC-PVTZ AUX)
    Blend: AUG-CC-PVTZ-JKFIT

    Orbital Energies [Eh]
    ---------------------

    Doubly Occupied:

       1A    -20.559868     2A    -20.556661     3A    -15.545888
       4A    -11.282371     5A    -11.272876     6A    -11.256596
       7A    -11.223933     8A    -11.217416     9A    -11.217288
      10A     -1.370813    11A     -1.359282    12A     -1.191645
      13A     -1.078156    14A     -0.996163    15A     -0.975356
      16A     -0.844368    17A     -0.822448    18A     -0.770496
      19A     -0.696810    20A     -0.678031    21A     -0.655297
      22A     -0.639354    23A     -0.629682    24A     -0.620027
      25A     -0.595811    26A     -0.565461    27A     -0.549145
      28A     -0.528972    29A     -0.524331    30A     -0.494081
      31A     -0.490605    32A     -0.481193    33A     -0.451877
      34A     -0.448821    35A     -0.400894    36A     -0.390178

  @DF-RHF Final Energy:  -439.10124537444869

   => Energetics <=

    Nuclear Repulsion Energy =            505.9796722768082873
    One-Electron Energy =               -1603.3974491082483382
    Two-Electron Energy =                 658.3165314569913562
    Total Energy =                       -439.1012453744486947
  Basis Set: (AUG-CC-PVTZ AUX)
    Blend: AUG-CC-PVTZ-RI
    Molecular point group: c1

    Geometry (in Angstrom), charge = 0, multiplicity = 1:

       Center              X                  Y                   Z               Mass
    ------------   -----------------  -----------------  -----------------  -----------------
         O           -0.113363619945     2.069813007385    -0.893706416838    15.994914619570
         O           -2.382131619945    -1.368083992615    -0.102095416838    15.994914619570
         N            2.493694380055    -1.266209992615     0.085812583162    14.003074004430
         C            1.305740380055    -0.473511992615    -0.259503416838    12.000000000000
         C            1.248290380055     0.750104007385     0.649831583162    12.000000000000
         C            0.060595380055    -1.331572992615    -0.057102416838    12.000000000000
         C           -0.033832619945     1.554165007385     0.444707583162    12.000000000000
         C           -1.251956019945    -0.615778792615    -0.355997816838    12.000000000000
         C           -1.269631619945     0.683256007385     0.622861583162    12.000000000000
         H            1.312899380055    -0.121759992615    -1.304368416838     1.007825032230
         H            1.314304380055     0.411145007385     1.691723583162     1.007825032230
         H            2.121830380055     1.395786007385     0.472868583162     1.007825032230
         H            0.073392380055    -2.200651992615    -0.726993416838     1.007825032230
         H            0.078241380055    -1.715906992615     0.973737583162     1.007825032230
         H           -0.065803619945     2.386154007385     1.165734583162     1.007825032230
         H           -1.282008619945    -0.217978992615    -1.324816416838     1.007825032230
         H           -1.322443619945     0.352382007385     1.670288583162     1.007825032230
         H           -2.170375619945     1.267669007385     0.410885583162     1.007825032230
         H            3.332238380055    -0.716585992615    -0.107235416838     1.007825032230
         H            2.545073380055    -2.075563992615    -0.534326416838     1.007825032230
         H            0.664790380055     2.638350007385    -1.031042416838     1.007825032230
         H           -2.350035619945    -1.693959992615     0.815111583162     1.007825032230

  Basis Set: AUG-CC-PVTZ
    Blend: AUG-CC-PVTZ
  Basis Set: (AUG-CC-PVTZ AUX)
    Blend: AUG-CC-PVTZ-JKFIT
	 Reference Energy          =    -439.1012453744486947 [Eh]
	 Singles Energy            =      -0.0000000000000000 [Eh]
	 Same-Spin Energy          =      -0.4511300792538444 [Eh]
	 Opposite-Spin Energy      =      -1.4724504284953825 [Eh]
	 Correlation Energy        =      -1.9235805077492270 [Eh]
	 Total Energy              =    -441.0248258821979448 [Eh]

	 ================> DF-SCS-MP2 Energies <==================
	-----------------------------------------------------------
	 SCS Same-Spin Scale       =       0.3333333333333333 [-]
	 SCS Opposite-Spin Scale   =       1.2000000000000000 [-]
	 SCS Same-Spin Energy      =      -0.1503766930846148 [Eh]
	 SCS Opposite-Spin Energy  =      -1.7669405141944590 [Eh]
	 SCS Correlation Energy    =      -1.9173172072790738 [Eh]
	 SCS Total Energy          =    -441.0185625817277923 [Eh]
	-----------------------------------------------------------

  Dipole Moment: [D]
     X:     2.3760      Y:     0.9012      Z:     0.6631     Total:     2.6262

*** Psi4 exiting successfully. Buy a developer a beer!
