                               Psi4 1.4a3.dev225

  ==> Input File <==

--------------------------------------------------------------------------
#psi4
#
memory 32 gb

molecule  {
0 1
  O       -0.1447520     2.0657680    -0.9147710
  O       -2.4135200    -1.3721290    -0.1231600
  N        2.4623060    -1.2702550     0.0647480
  C        1.2743520    -0.4775570    -0.2805680
  C        1.2169020     0.7460590     0.6287670
  C        0.0292070    -1.3356180    -0.0781670
  C       -0.0652210     1.5501200     0.4236430
  C       -1.2565570    -0.5478520    -0.3033930
  C       -1.3010200     0.6792110     0.6017970
  H        1.2815110    -0.1258050    -1.3254330
  H        1.2829160     0.4071000     1.6706590
  H        2.0904420     1.3917410     0.4518040
  H        0.0420040    -2.2046970    -0.7480580
  H        0.0468530    -1.7199520     0.9526730
  H       -0.0971920     2.3821090     1.1446700
  H       -1.3133970    -0.2220240    -1.3458810
  H       -1.3538320     0.3483370     1.6492240
  H       -2.2017640     1.2636240     0.3898210
  H        3.3008500    -0.7206310    -0.1283000
  H        2.5136850    -2.0796090    -0.5553910
  H        0.6334020     2.6343050    -1.0521070
  H       -2.3781284    -1.7314657     0.8882251
units angstrom
no_reorient  #important for SAPT in psi4, default
symmetry c1  #important for SAPT in psi4, default
}

set PROPERTIES_ORIGIN ["COM"]
properties('MP2/aug-cc-pvtz', properties = ['dipole'])
--------------------------------------------------------------------------

    Molecular point group: c1
  Charge       = 0
  Multiplicity = 1
  Basis Set: AUG-CC-PVTZ
    Blend: AUG-CC-PVTZ
  Basis Set: (AUG-CC-PVTZ AUX)
    Blend: AUG-CC-PVTZ-JKFIT

    Orbital Energies [Eh]
    ---------------------

    Doubly Occupied:

       1A    -20.561671     2A    -20.560376     3A    -15.545850
       4A    -11.285577     5A    -11.271475     6A    -11.256137
       7A    -11.225579     8A    -11.219401     9A    -11.217231
      10A     -1.362167    11A     -1.332333    12A     -1.191978
      13A     -1.085732    14A     -0.994240    15A     -0.985090
      16A     -0.837075    17A     -0.820540    18A     -0.767398
      19A     -0.692117    20A     -0.674006    21A     -0.654218
      22A     -0.641179    23A     -0.624745    24A     -0.600835
      25A     -0.590898    26A     -0.562388    27A     -0.547648
      28A     -0.527430    29A     -0.526382    30A     -0.499065
      31A     -0.489841    32A     -0.474917    33A     -0.452891
      34A     -0.442532    35A     -0.419336    36A     -0.395132

  @DF-RHF Final Energy:  -439.09614004054816

   => Energetics <=

    Nuclear Repulsion Energy =            506.3441391699516316
    One-Electron Energy =               -1604.2097382171166373
    Two-Electron Energy =                 658.7694590066168985
    Total Energy =                       -439.0961400405481072
  Basis Set: (AUG-CC-PVTZ AUX)
    Blend: AUG-CC-PVTZ-RI
    Molecular point group: c1

    Geometry (in Angstrom), charge = 0, multiplicity = 1:

       Center              X                  Y                   Z               Mass
    ------------   -----------------  -----------------  -----------------  -----------------
         O           -0.115840992142     2.063482167766    -0.901173906976    15.994914619570
         O           -2.384608992142    -1.374414832234    -0.109562906976    15.994914619570
         N            2.491217007858    -1.272540832234     0.078345093024    14.003074004430
         C            1.303263007858    -0.479842832234    -0.266970906976    12.000000000000
         C            1.245813007858     0.743773167766     0.642364093024    12.000000000000
         C            0.058118007858    -1.337903832234    -0.064569906976    12.000000000000
         C           -0.036309992142     1.547834167766     0.437240093024    12.000000000000
         C           -1.227645992142    -0.550137832234    -0.289795906976    12.000000000000
         C           -1.272108992142     0.676925167766     0.615394093024    12.000000000000
         H            1.310422007858    -0.128090832234    -1.311835906976     1.007825032230
         H            1.311827007858     0.404814167766     1.684256093024     1.007825032230
         H            2.119353007858     1.389455167766     0.465401093024     1.007825032230
         H            0.070915007858    -2.206982832234    -0.734460906976     1.007825032230
         H            0.075764007858    -1.722237832234     0.966270093024     1.007825032230
         H           -0.068280992142     2.379823167766     1.158267093024     1.007825032230
         H           -1.284485992142    -0.224309832234    -1.332283906976     1.007825032230
         H           -1.324920992142     0.346051167766     1.662821093024     1.007825032230
         H           -2.172852992142     1.261338167766     0.403418093024     1.007825032230
         H            3.329761007858    -0.722916832234    -0.114702906976     1.007825032230
         H            2.542596007858    -2.081894832234    -0.541793906976     1.007825032230
         H            0.662313007858     2.632019167766    -1.038509906976     1.007825032230
         H           -2.349217392142    -1.733751532234     0.901822193024     1.007825032230

  Basis Set: AUG-CC-PVTZ
    Blend: AUG-CC-PVTZ
  Basis Set: (AUG-CC-PVTZ AUX)
    Blend: AUG-CC-PVTZ-JKFIT
	 Reference Energy          =    -439.0961400405481641 [Eh]
	 Singles Energy            =      -0.0000000000000000 [Eh]
	 Same-Spin Energy          =      -0.4526637456273565 [Eh]
	 Opposite-Spin Energy      =      -1.4765553441358290 [Eh]
	 Correlation Energy        =      -1.9292190897631856 [Eh]
	 Total Energy              =    -441.0253591303113581 [Eh]

	 ================> DF-SCS-MP2 Energies <==================
	-----------------------------------------------------------
	 SCS Same-Spin Scale       =       0.3333333333333333 [-]
	 SCS Opposite-Spin Scale   =       1.2000000000000000 [-]
	 SCS Same-Spin Energy      =      -0.1508879152091188 [Eh]
	 SCS Opposite-Spin Energy  =      -1.7718664129629949 [Eh]
	 SCS Correlation Energy    =      -1.9227543281721136 [Eh]
	 SCS Total Energy          =    -441.0188943687202823 [Eh]
	-----------------------------------------------------------

  Dipole Moment: [D]
     X:     2.5201      Y:     1.1000      Z:     0.7881     Total:     2.8605

*** Psi4 exiting successfully. Buy a developer a beer!
