                               Psi4 1.4a3.dev225

  ==> Input File <==

--------------------------------------------------------------------------
#psi4
#
memory 32 gb

molecule  {
0 1
  O       -0.1447520     2.0657680    -0.9147710
  O       -2.4135200    -1.3721290    -0.1231600
  N        2.4623060    -1.2702550     0.0647480
  C        1.2743520    -0.4775570    -0.2805680
  C        1.2169020     0.7460590     0.6287670
  C       -0.0003230    -1.3475990     0.0233668
  C       -0.0652210     1.5501200     0.4236430
  C       -1.2565570    -0.5478520    -0.3033930
  C       -1.3010200     0.6792110     0.6017970
  H        1.2815110    -0.1258050    -1.3254330
  H        1.2829160     0.4071000     1.6706590
  H        2.0904420     1.3917410     0.4518040
  H        0.0420040    -2.2046970    -0.7480580
  H        0.0468530    -1.7199520     0.9526730
  H       -0.0971920     2.3821090     1.1446700
  H       -1.3133970    -0.2220240    -1.3458810
  H       -1.3538320     0.3483370     1.6492240
  H       -2.2017640     1.2636240     0.3898210
  H        3.3008500    -0.7206310    -0.1283000
  H        2.5136850    -2.0796090    -0.5553910
  H        0.6334020     2.6343050    -1.0521070
  H       -2.3814240    -1.6980050     0.7940470
units angstrom
no_reorient  #important for SAPT in psi4, default
symmetry c1  #important for SAPT in psi4, default
}

set PROPERTIES_ORIGIN ["COM"]
properties('MP2/aug-cc-pvtz', properties = ['dipole'])
--------------------------------------------------------------------------

    Molecular point group: c1
  Charge       = 0
  Multiplicity = 1
  Basis Set: AUG-CC-PVTZ
    Blend: AUG-CC-PVTZ
  Basis Set: (AUG-CC-PVTZ AUX)
    Blend: AUG-CC-PVTZ-JKFIT

    Orbital Energies [Eh]
    ---------------------

    Doubly Occupied:

       1A    -20.561954     2A    -20.549869     3A    -15.545615
       4A    -11.285666     5A    -11.272606     6A    -11.258544
       7A    -11.224794     8A    -11.218969     9A    -11.216352
      10A     -1.362663    11A     -1.349754    12A     -1.190104
      13A     -1.087136    14A     -0.994930    15A     -0.983574
      16A     -0.842303    17A     -0.820075    18A     -0.774967
      19A     -0.695154    20A     -0.680358    21A     -0.654150
      22A     -0.634650    23A     -0.625484    24A     -0.615521
      25A     -0.594993    26A     -0.560938    27A     -0.546259
      28A     -0.536632    29A     -0.529816    30A     -0.498377
      31A     -0.495960    32A     -0.474547    33A     -0.452377
      34A     -0.436754    35A     -0.416076    36A     -0.395389

  @DF-RHF Final Energy:  -439.09654496955267

   => Energetics <=

    Nuclear Repulsion Energy =            506.6622832700443837
    One-Electron Energy =               -1604.7510391773917036
    Two-Electron Energy =                 658.9922109377946526
    Total Energy =                       -439.0965449695527241
  Basis Set: (AUG-CC-PVTZ AUX)
    Blend: AUG-CC-PVTZ-RI
    Molecular point group: c1

    Geometry (in Angstrom), charge = 0, multiplicity = 1:

       Center              X                  Y                   Z               Mass
    ------------   -----------------  -----------------  -----------------  -----------------
         O           -0.113112570758     2.064321633655    -0.909743980096    15.994914619570
         O           -2.381880570758    -1.373575366345    -0.118132980096    15.994914619570
         N            2.493945429242    -1.271701366345     0.069775019904    14.003074004430
         C            1.305991429242    -0.479003366345    -0.275540980096    12.000000000000
         C            1.248541429242     0.744612633655     0.633794019904    12.000000000000
         C            0.031316429242    -1.349045366345     0.028393819904    12.000000000000
         C           -0.033581570758     1.548673633655     0.428670019904    12.000000000000
         C           -1.224917570758    -0.549298366345    -0.298365980096    12.000000000000
         C           -1.269380570758     0.677764633655     0.606824019904    12.000000000000
         H            1.313150429242    -0.127251366345    -1.320405980096     1.007825032230
         H            1.314555429242     0.405653633655     1.675686019904     1.007825032230
         H            2.122081429242     1.390294633655     0.456831019904     1.007825032230
         H            0.073643429242    -2.206143366345    -0.743030980096     1.007825032230
         H            0.078492429242    -1.721398366345     0.957700019904     1.007825032230
         H           -0.065552570758     2.380662633655     1.149697019904     1.007825032230
         H           -1.281757570758    -0.223470366345    -1.340853980096     1.007825032230
         H           -1.322192570758     0.346890633655     1.654251019904     1.007825032230
         H           -2.170124570758     1.262177633655     0.394848019904     1.007825032230
         H            3.332489429242    -0.722077366345    -0.123272980096     1.007825032230
         H            2.545324429242    -2.081055366345    -0.550363980096     1.007825032230
         H            0.665041429242     2.632858633655    -1.047079980096     1.007825032230
         H           -2.349784570758    -1.699451366345     0.799074019904     1.007825032230

  Basis Set: AUG-CC-PVTZ
    Blend: AUG-CC-PVTZ
  Basis Set: (AUG-CC-PVTZ AUX)
    Blend: AUG-CC-PVTZ-JKFIT
	 Reference Energy          =    -439.0965449695526672 [Eh]
	 Singles Energy            =      -0.0000000000000000 [Eh]
	 Same-Spin Energy          =      -0.4514932432343651 [Eh]
	 Opposite-Spin Energy      =      -1.4737319186708249 [Eh]
	 Correlation Energy        =      -1.9252251619051899 [Eh]
	 Total Energy              =    -441.0217701314578562 [Eh]

	 ================> DF-SCS-MP2 Energies <==================
	-----------------------------------------------------------
	 SCS Same-Spin Scale       =       0.3333333333333333 [-]
	 SCS Opposite-Spin Scale   =       1.2000000000000000 [-]
	 SCS Same-Spin Energy      =      -0.1504977477447884 [Eh]
	 SCS Opposite-Spin Energy  =      -1.7684783024049897 [Eh]
	 SCS Correlation Energy    =      -1.9189760501497781 [Eh]
	 SCS Total Energy          =    -441.0155210197024189 [Eh]
	-----------------------------------------------------------

  Dipole Moment: [D]
     X:     2.5423      Y:     1.1375      Z:     0.7920     Total:     2.8956

*** Psi4 exiting successfully. Buy a developer a beer!
