                               Psi4 1.4a3.dev225

  ==> Input File <==

--------------------------------------------------------------------------
#psi4
#
memory 32 gb

molecule  {
0 1
  O       -0.1447520     2.0657680    -0.9147710
  O       -2.4135200    -1.3721290    -0.1231600
  N        2.4623060    -1.2702550     0.0647480
  C        1.2743520    -0.4775570    -0.2805680
  C        1.2169020     0.7460590     0.6287670
  C        0.0292070    -1.3356180    -0.0781670
  C       -0.0652210     1.5501200     0.4236430
  C       -1.2565570    -0.5478520    -0.3033930
  C       -1.3821993     0.6220012     0.6134999
  H        1.2815110    -0.1258050    -1.3254330
  H        1.2829160     0.4071000     1.6706590
  H        2.0904420     1.3917410     0.4518040
  H        0.0420040    -2.2046970    -0.7480580
  H        0.0468530    -1.7199520     0.9526730
  H       -0.0971920     2.3821090     1.1446700
  H       -1.3133970    -0.2220240    -1.3458810
  H       -1.3538320     0.3483370     1.6492240
  H       -2.2017640     1.2636240     0.3898210
  H        3.3008500    -0.7206310    -0.1283000
  H        2.5136850    -2.0796090    -0.5553910
  H        0.6334020     2.6343050    -1.0521070
  H       -2.3814240    -1.6980050     0.7940470
units angstrom
no_reorient  #important for SAPT in psi4, default
symmetry c1  #important for SAPT in psi4, default
}

set PROPERTIES_ORIGIN ["COM"]
properties('MP2/aug-cc-pvtz', properties = ['dipole'])
--------------------------------------------------------------------------

    Molecular point group: c1
  Charge       = 0
  Multiplicity = 1
  Basis Set: AUG-CC-PVTZ
    Blend: AUG-CC-PVTZ
  Basis Set: (AUG-CC-PVTZ AUX)
    Blend: AUG-CC-PVTZ-JKFIT

    Orbital Energies [Eh]
    ---------------------

    Doubly Occupied:

       1A    -20.561555     2A    -20.547743     3A    -15.546033
       4A    -11.288719     5A    -11.270345     6A    -11.256387
       7A    -11.225546     8A    -11.218771     9A    -11.218704
      10A     -1.360525    11A     -1.349526    12A     -1.192132
      13A     -1.082408    14A     -0.995626    15A     -0.983473
      16A     -0.838002    17A     -0.825780    18A     -0.770307
      19A     -0.692987    20A     -0.677394    21A     -0.653849
      22A     -0.644710    23A     -0.623907    24A     -0.612100
      25A     -0.594463    26A     -0.562571    27A     -0.551419
      28A     -0.536917    29A     -0.526846    30A     -0.497037
      31A     -0.487636    32A     -0.477662    33A     -0.445544
      34A     -0.439179    35A     -0.421529    36A     -0.395511

  @DF-RHF Final Energy:  -439.10172020494758

   => Energetics <=

    Nuclear Repulsion Energy =            506.0213038940327124
    One-Electron Energy =               -1603.5003629210359577
    Two-Electron Energy =                 658.3773388220555489
    Total Energy =                       -439.1017202049475827
  Basis Set: (AUG-CC-PVTZ AUX)
    Blend: AUG-CC-PVTZ-RI
    Molecular point group: c1

    Geometry (in Angstrom), charge = 0, multiplicity = 1:

       Center              X                  Y                   Z               Mass
    ------------   -----------------  -----------------  -----------------  -----------------
         O           -0.108384752339     2.068461739207    -0.901521135186    15.994914619570
         O           -2.377152752339    -1.369435260793    -0.109910135186    15.994914619570
         N            2.498673247661    -1.267561260793     0.077997864814    14.003074004430
         C            1.310719247661    -0.474863260793    -0.267318135186    12.000000000000
         C            1.253269247661     0.748752739207     0.642016864814    12.000000000000
         C            0.065574247661    -1.332924260793    -0.064917135186    12.000000000000
         C           -0.028853752339     1.552813739207     0.436892864814    12.000000000000
         C           -1.220189752339    -0.545158260793    -0.290143135186    12.000000000000
         C           -1.345832052339     0.624694939207     0.626749764814    12.000000000000
         H            1.317878247661    -0.123111260793    -1.312183135186     1.007825032230
         H            1.319283247661     0.409793739207     1.683908864814     1.007825032230
         H            2.126809247661     1.394434739207     0.465053864814     1.007825032230
         H            0.078371247661    -2.202003260793    -0.734808135186     1.007825032230
         H            0.083220247661    -1.717258260793     0.965922864814     1.007825032230
         H           -0.060824752339     2.384802739207     1.157919864814     1.007825032230
         H           -1.277029752339    -0.219330260793    -1.332631135186     1.007825032230
         H           -1.317464752339     0.351030739207     1.662473864814     1.007825032230
         H           -2.165396752339     1.266317739207     0.403070864814     1.007825032230
         H            3.337217247661    -0.717937260793    -0.115050135186     1.007825032230
         H            2.550052247661    -2.076915260793    -0.542141135186     1.007825032230
         H            0.669769247661     2.636998739207    -1.038857135186     1.007825032230
         H           -2.345056752339    -1.695311260793     0.807296864814     1.007825032230

  Basis Set: AUG-CC-PVTZ
    Blend: AUG-CC-PVTZ
  Basis Set: (AUG-CC-PVTZ AUX)
    Blend: AUG-CC-PVTZ-JKFIT
	 Reference Energy          =    -439.1017202049475827 [Eh]
	 Singles Energy            =      -0.0000000000000000 [Eh]
	 Same-Spin Energy          =      -0.4513972931309980 [Eh]
	 Opposite-Spin Energy      =      -1.4734336674112645 [Eh]
	 Correlation Energy        =      -1.9248309605422624 [Eh]
	 Total Energy              =    -441.0265511654898205 [Eh]

	 ================> DF-SCS-MP2 Energies <==================
	-----------------------------------------------------------
	 SCS Same-Spin Scale       =       0.3333333333333333 [-]
	 SCS Opposite-Spin Scale   =       1.2000000000000000 [-]
	 SCS Same-Spin Energy      =      -0.1504657643769993 [Eh]
	 SCS Opposite-Spin Energy  =      -1.7681204008935174 [Eh]
	 SCS Correlation Energy    =      -1.9185861652705167 [Eh]
	 SCS Total Energy          =    -441.0203063702181225 [Eh]
	-----------------------------------------------------------

  Dipole Moment: [D]
     X:     2.5683      Y:     1.1610      Z:     0.7428     Total:     2.9148

*** Psi4 exiting successfully. Buy a developer a beer!
