                               Psi4 1.4a3.dev225

  ==> Input File <==

--------------------------------------------------------------------------
#psi4
#
memory 32 gb

molecule  {
0 1
  O       -0.1447520     2.0657680    -0.9147710
  O       -2.4135200    -1.3721290    -0.1231600
  N        2.4623060    -1.2702550     0.0647480
  C        1.2743520    -0.4775570    -0.2805680
  C        1.2169020     0.7460590     0.6287670
  C        0.0292070    -1.3356180    -0.0781670
  C       -0.0652210     1.5501200     0.4236430
  C       -1.2727163    -0.5593647    -0.3008757
  C       -1.3010200     0.6792110     0.6017970
  H        1.2815110    -0.1258050    -1.3254330
  H        1.2829160     0.4071000     1.6706590
  H        2.0904420     1.3917410     0.4518040
  H        0.0420040    -2.2046970    -0.7480580
  H        0.0468530    -1.7199520     0.9526730
  H       -0.0971920     2.3821090     1.1446700
  H       -1.3133970    -0.2220240    -1.3458810
  H       -1.3538320     0.3483370     1.6492240
  H       -2.2017640     1.2636240     0.3898210
  H        3.3008500    -0.7206310    -0.1283000
  H        2.5136850    -2.0796090    -0.5553910
  H        0.6334020     2.6343050    -1.0521070
  H       -2.3814240    -1.6980050     0.7940470
units angstrom
no_reorient  #important for SAPT in psi4, default
symmetry c1  #important for SAPT in psi4, default
}

set PROPERTIES_ORIGIN ["COM"]
properties('MP2/aug-cc-pvtz', properties = ['dipole'])
--------------------------------------------------------------------------

    Molecular point group: c1
  Charge       = 0
  Multiplicity = 1
  Basis Set: AUG-CC-PVTZ
    Blend: AUG-CC-PVTZ
  Basis Set: (AUG-CC-PVTZ AUX)
    Blend: AUG-CC-PVTZ-JKFIT

    Orbital Energies [Eh]
    ---------------------

    Doubly Occupied:

       1A    -20.561448     2A    -20.554195     3A    -15.545811
       4A    -11.285681     5A    -11.272111     6A    -11.256233
       7A    -11.225398     8A    -11.219328     9A    -11.217186
      10A     -1.363038    11A     -1.357554    12A     -1.191894
      13A     -1.085521    14A     -0.994680    15A     -0.984830
      16A     -0.840487    17A     -0.823135    18A     -0.769527
      19A     -0.696709    20A     -0.678087    21A     -0.654636
      22A     -0.641066    23A     -0.627133    24A     -0.613303
      25A     -0.593773    26A     -0.563778    27A     -0.549956
      28A     -0.531859    29A     -0.525929    30A     -0.498274
      31A     -0.490441    32A     -0.474196    33A     -0.453783
      34A     -0.443272    35A     -0.417919    36A     -0.394983

  @DF-RHF Final Energy:  -439.10954668531775

   => Energetics <=

    Nuclear Repulsion Energy =            506.7758474449867663
    One-Electron Energy =               -1604.9764778873729938
    Two-Electron Energy =                 659.0910837570685317
    Total Energy =                       -439.1095466853176958
  Basis Set: (AUG-CC-PVTZ AUX)
    Blend: AUG-CC-PVTZ-RI
    Molecular point group: c1

    Geometry (in Angstrom), charge = 0, multiplicity = 1:

       Center              X                  Y                   Z               Mass
    ------------   -----------------  -----------------  -----------------  -----------------
         O           -0.114336483603     2.064278766910    -0.900680313551    15.994914619570
         O           -2.383104483603    -1.373618233090    -0.109069313551    15.994914619570
         N            2.492721516397    -1.271744233090     0.078838686449    14.003074004430
         C            1.304767516397    -0.479046233090    -0.266477313551    12.000000000000
         C            1.247317516397     0.744569766910     0.642857686449    12.000000000000
         C            0.059622516397    -1.337107233090    -0.064076313551    12.000000000000
         C           -0.034805483603     1.548630766910     0.437733686449    12.000000000000
         C           -1.242300783603    -0.560853933090    -0.286785013551    12.000000000000
         C           -1.270604483603     0.677721766910     0.615887686449    12.000000000000
         H            1.311926516397    -0.127294233090    -1.311342313551     1.007825032230
         H            1.313331516397     0.405610766910     1.684749686449     1.007825032230
         H            2.120857516397     1.390251766910     0.465894686449     1.007825032230
         H            0.072419516397    -2.206186233090    -0.733967313551     1.007825032230
         H            0.077268516397    -1.721441233090     0.966763686449     1.007825032230
         H           -0.066776483603     2.380619766910     1.158760686449     1.007825032230
         H           -1.282981483603    -0.223513233090    -1.331790313551     1.007825032230
         H           -1.323416483603     0.346847766910     1.663314686449     1.007825032230
         H           -2.171348483603     1.262134766910     0.403911686449     1.007825032230
         H            3.331265516397    -0.722120233090    -0.114209313551     1.007825032230
         H            2.544100516397    -2.081098233090    -0.541300313551     1.007825032230
         H            0.663817516397     2.632815766910    -1.038016313551     1.007825032230
         H           -2.351008483603    -1.699494233090     0.808137686449     1.007825032230

  Basis Set: AUG-CC-PVTZ
    Blend: AUG-CC-PVTZ
  Basis Set: (AUG-CC-PVTZ AUX)
    Blend: AUG-CC-PVTZ-JKFIT
	 Reference Energy          =    -439.1095466853177527 [Eh]
	 Singles Energy            =      -0.0000000000000000 [Eh]
	 Same-Spin Energy          =      -0.4514263441755377 [Eh]
	 Opposite-Spin Energy      =      -1.4729605651889126 [Eh]
	 Correlation Energy        =      -1.9243869093644503 [Eh]
	 Total Energy              =    -441.0339335946821961 [Eh]

	 ================> DF-SCS-MP2 Energies <==================
	-----------------------------------------------------------
	 SCS Same-Spin Scale       =       0.3333333333333333 [-]
	 SCS Opposite-Spin Scale   =       1.2000000000000000 [-]
	 SCS Same-Spin Energy      =      -0.1504754480585126 [Eh]
	 SCS Opposite-Spin Energy  =      -1.7675526782266950 [Eh]
	 SCS Correlation Energy    =      -1.9180281262852077 [Eh]
	 SCS Total Energy          =    -441.0275748116029604 [Eh]
	-----------------------------------------------------------

  Dipole Moment: [D]
     X:     2.4697      Y:     1.0820      Z:     0.7470     Total:     2.7979

*** Psi4 exiting successfully. Buy a developer a beer!
