                               Psi4 1.4a3.dev225

  ==> Input File <==

--------------------------------------------------------------------------
#psi4
#
memory 32 gb

molecule  {
0 1
  O       -0.1447520     2.0657680    -0.9147710
  O       -2.4135200    -1.3721290    -0.1231600
  N        2.4623060    -1.2702550     0.0647480
  C        1.2743520    -0.4775570    -0.2805680
  C        1.2965782     0.8814517     0.5991848
  C        0.0292070    -1.3356180    -0.0781670
  C       -0.0652210     1.5501200     0.4236430
  C       -1.2565570    -0.5478520    -0.3033930
  C       -1.3010200     0.6792110     0.6017970
  H        1.2815110    -0.1258050    -1.3254330
  H        1.2829160     0.4071000     1.6706590
  H        2.0904420     1.3917410     0.4518040
  H        0.0420040    -2.2046970    -0.7480580
  H        0.0468530    -1.7199520     0.9526730
  H       -0.0971920     2.3821090     1.1446700
  H       -1.3133970    -0.2220240    -1.3458810
  H       -1.3538320     0.3483370     1.6492240
  H       -2.2017640     1.2636240     0.3898210
  H        3.3008500    -0.7206310    -0.1283000
  H        2.5136850    -2.0796090    -0.5553910
  H        0.6334020     2.6343050    -1.0521070
  H       -2.3814240    -1.6980050     0.7940470
units angstrom
no_reorient  #important for SAPT in psi4, default
symmetry c1  #important for SAPT in psi4, default
}

set PROPERTIES_ORIGIN ["COM"]
properties('MP2/aug-cc-pvtz', properties = ['dipole'])
--------------------------------------------------------------------------

    Molecular point group: c1
  Charge       = 0
  Multiplicity = 1
  Basis Set: AUG-CC-PVTZ
    Blend: AUG-CC-PVTZ
  Basis Set: (AUG-CC-PVTZ AUX)
    Blend: AUG-CC-PVTZ-JKFIT

    Orbital Energies [Eh]
    ---------------------

    Doubly Occupied:

       1A    -20.559014     2A    -20.552135     3A    -15.545355
       4A    -11.286809     5A    -11.272418     6A    -11.260866
       7A    -11.224646     8A    -11.223134     9A    -11.219541
      10A     -1.361900    11A     -1.350598    12A     -1.187447
      13A     -1.082691    14A     -1.000162    15A     -0.982939
      16A     -0.846091    17A     -0.821529    18A     -0.770262
      19A     -0.694728    20A     -0.678373    21A     -0.657311
      22A     -0.650569    23A     -0.626820    24A     -0.610291
      25A     -0.592079    26A     -0.560757    27A     -0.551080
      28A     -0.537289    29A     -0.523951    30A     -0.499977
      31A     -0.488351    32A     -0.466876    33A     -0.456489
      34A     -0.442780    35A     -0.417196    36A     -0.386598

  @DF-RHF Final Energy:  -439.07892724980485

   => Energetics <=

    Nuclear Repulsion Energy =            505.0896472301456583
    One-Electron Energy =               -1601.5590473552063031
    Two-Electron Energy =                 657.3904728752559095
    Total Energy =                       -439.0789272498047922
  Basis Set: (AUG-CC-PVTZ AUX)
    Blend: AUG-CC-PVTZ-RI
    Molecular point group: c1

    Geometry (in Angstrom), charge = 0, multiplicity = 1:

       Center              X                  Y                   Z               Mass
    ------------   -----------------  -----------------  -----------------  -----------------
         O           -0.123108971170     2.050831497422    -0.897742023829    15.994914619570
         O           -2.391876971170    -1.387065502578    -0.106131023829    15.994914619570
         N            2.483949028830    -1.285191502578     0.081776976171    14.003074004430
         C            1.295995028830    -0.492493502578    -0.263539023829    12.000000000000
         C            1.318221228830     0.866515197422     0.616213776171    12.000000000000
         C            0.050850028830    -1.350554502578    -0.061138023829    12.000000000000
         C           -0.043577971170     1.535183497422     0.440671976171    12.000000000000
         C           -1.234913971170    -0.562788502578    -0.286364023829    12.000000000000
         C           -1.279376971170     0.664274497422     0.618825976171    12.000000000000
         H            1.303154028830    -0.140741502578    -1.308404023829     1.007825032230
         H            1.304559028830     0.392163497422     1.687687976171     1.007825032230
         H            2.112085028830     1.376804497422     0.468832976171     1.007825032230
         H            0.063647028830    -2.219633502578    -0.731029023829     1.007825032230
         H            0.068496028830    -1.734888502578     0.969701976171     1.007825032230
         H           -0.075548971170     2.367172497422     1.161698976171     1.007825032230
         H           -1.291753971170    -0.236960502578    -1.328852023829     1.007825032230
         H           -1.332188971170     0.333400497422     1.666252976171     1.007825032230
         H           -2.180120971170     1.248687497422     0.406849976171     1.007825032230
         H            3.322493028830    -0.735567502578    -0.111271023829     1.007825032230
         H            2.535328028830    -2.094545502578    -0.538362023829     1.007825032230
         H            0.655045028830     2.619368497422    -1.035078023829     1.007825032230
         H           -2.359780971170    -1.712941502578     0.811075976171     1.007825032230

  Basis Set: AUG-CC-PVTZ
    Blend: AUG-CC-PVTZ
  Basis Set: (AUG-CC-PVTZ AUX)
    Blend: AUG-CC-PVTZ-JKFIT
	 Reference Energy          =    -439.0789272498048490 [Eh]
	 Singles Energy            =      -0.0000000000000000 [Eh]
	 Same-Spin Energy          =      -0.4513567112166222 [Eh]
	 Opposite-Spin Energy      =      -1.4742202252764032 [Eh]
	 Correlation Energy        =      -1.9255769364930253 [Eh]
	 Total Energy              =    -441.0045041862978792 [Eh]

	 ================> DF-SCS-MP2 Energies <==================
	-----------------------------------------------------------
	 SCS Same-Spin Scale       =       0.3333333333333333 [-]
	 SCS Opposite-Spin Scale   =       1.2000000000000000 [-]
	 SCS Same-Spin Energy      =      -0.1504522370722074 [Eh]
	 SCS Opposite-Spin Energy  =      -1.7690642703316837 [Eh]
	 SCS Correlation Energy    =      -1.9195165074038911 [Eh]
	 SCS Total Energy          =    -440.9984437572087472 [Eh]
	-----------------------------------------------------------

  Dipole Moment: [D]
     X:     2.5349      Y:     1.1148      Z:     0.6889     Total:     2.8536

*** Psi4 exiting successfully. Buy a developer a beer!
