                               Psi4 1.4a3.dev225

  ==> Input File <==

--------------------------------------------------------------------------
#psi4
#
memory 32 gb

molecule  {
0 1
  O       -0.1447520     2.0657680    -0.9147710
  O       -2.4135200    -1.3721290    -0.1231600
  N        2.4623060    -1.2702550     0.0647480
  C        1.2743520    -0.4775570    -0.2805680
  C        1.2169020     0.7460590     0.6287670
  C        0.0292070    -1.3356180    -0.0781670
  C       -0.0652210     1.5501200     0.4236430
  C       -1.2565570    -0.5478520    -0.3033930
  C       -1.3010200     0.6792110     0.6017970
  H        1.2815110    -0.1258050    -1.3254330
  H        1.2829160     0.4071000     1.6706590
  H        2.0904420     1.3917410     0.4518040
  H        0.0420040    -2.2046970    -0.7480580
  H        0.0468530    -1.7199520     0.9526730
  H       -0.0971920     2.3821090     1.1446700
  H       -1.3133970    -0.2220240    -1.3458810
  H       -1.3538320     0.3483370     1.6492240
  H       -2.3663667     1.3704201     0.3510843
  H        3.3008500    -0.7206310    -0.1283000
  H        2.5136850    -2.0796090    -0.5553910
  H        0.6334020     2.6343050    -1.0521070
  H       -2.3814240    -1.6980050     0.7940470
units angstrom
no_reorient  #important for SAPT in psi4, default
symmetry c1  #important for SAPT in psi4, default
}

set PROPERTIES_ORIGIN ["COM"]
properties('MP2/aug-cc-pvtz', properties = ['dipole'])
--------------------------------------------------------------------------

    Molecular point group: c1
  Charge       = 0
  Multiplicity = 1
  Basis Set: AUG-CC-PVTZ
    Blend: AUG-CC-PVTZ
  Basis Set: (AUG-CC-PVTZ AUX)
    Blend: AUG-CC-PVTZ-JKFIT

    Orbital Energies [Eh]
    ---------------------

    Doubly Occupied:

       1A    -20.561982     2A    -20.551861     3A    -15.547169
       4A    -11.287938     5A    -11.274063     6A    -11.257850
       7A    -11.241778     8A    -11.227744     9A    -11.219747
      10A     -1.362775    11A     -1.350365    12A     -1.193604
      13A     -1.087137    14A     -0.997825    15A     -0.980596
      16A     -0.841513    17A     -0.818292    18A     -0.769850
      19A     -0.695673    20A     -0.676296    21A     -0.655682
      22A     -0.633864    23A     -0.627125    24A     -0.612593
      25A     -0.589662    26A     -0.563995    27A     -0.547434
      28A     -0.528508    29A     -0.518474    30A     -0.499764
      31A     -0.487740    32A     -0.473195    33A     -0.451657
      34A     -0.442510    35A     -0.419551    36A     -0.396327

  @DF-RHF Final Energy:  -439.08908012920330

   => Energetics <=

    Nuclear Repulsion Energy =            505.9000135984097710
    One-Electron Energy =               -1603.1939032557115752
    Two-Electron Energy =                 658.2048095280986217
    Total Energy =                       -439.0890801292032393
  Basis Set: (AUG-CC-PVTZ AUX)
    Blend: AUG-CC-PVTZ-RI
    Molecular point group: c1

    Geometry (in Angstrom), charge = 0, multiplicity = 1:

       Center              X                  Y                   Z               Mass
    ------------   -----------------  -----------------  -----------------  -----------------
         O           -0.114550229039     2.062403906090    -0.900152088889    15.994914619570
         O           -2.383318229039    -1.375493093910    -0.108541088889    15.994914619570
         N            2.492507770961    -1.273619093910     0.079366911111    14.003074004430
         C            1.304553770961    -0.480921093910    -0.265949088889    12.000000000000
         C            1.247103770961     0.742694906090     0.643385911111    12.000000000000
         C            0.059408770961    -1.338982093910    -0.063548088889    12.000000000000
         C           -0.035019229039     1.546755906090     0.438261911111    12.000000000000
         C           -1.226355229039    -0.551216093910    -0.288774088889    12.000000000000
         C           -1.270818229039     0.675846906090     0.616415911111    12.000000000000
         H            1.311712770961    -0.129169093910    -1.310814088889     1.007825032230
         H            1.313117770961     0.403735906090     1.685277911111     1.007825032230
         H            2.120643770961     1.388376906090     0.466422911111     1.007825032230
         H            0.072205770961    -2.208061093910    -0.733439088889     1.007825032230
         H            0.077054770961    -1.723316093910     0.967291911111     1.007825032230
         H           -0.066990229039     2.378744906090     1.159288911111     1.007825032230
         H           -1.283195229039    -0.225388093910    -1.331262088889     1.007825032230
         H           -1.323630229039     0.344972906090     1.663842911111     1.007825032230
         H           -2.336164929039     1.367056006090     0.365703211111     1.007825032230
         H            3.331051770961    -0.723995093910    -0.113681088889     1.007825032230
         H            2.543886770961    -2.082973093910    -0.540772088889     1.007825032230
         H            0.663603770961     2.630940906090    -1.037488088889     1.007825032230
         H           -2.351222229039    -1.701369093910     0.808665911111     1.007825032230

  Basis Set: AUG-CC-PVTZ
    Blend: AUG-CC-PVTZ
  Basis Set: (AUG-CC-PVTZ AUX)
    Blend: AUG-CC-PVTZ-JKFIT
	 Reference Energy          =    -439.0890801292032961 [Eh]
	 Singles Energy            =      -0.0000000000000000 [Eh]
	 Same-Spin Energy          =      -0.4517313437004771 [Eh]
	 Opposite-Spin Energy      =      -1.4751150221849609 [Eh]
	 Correlation Energy        =      -1.9268463658854380 [Eh]
	 Total Energy              =    -441.0159264950887064 [Eh]

	 ================> DF-SCS-MP2 Energies <==================
	-----------------------------------------------------------
	 SCS Same-Spin Scale       =       0.3333333333333333 [-]
	 SCS Opposite-Spin Scale   =       1.2000000000000000 [-]
	 SCS Same-Spin Energy      =      -0.1505771145668257 [Eh]
	 SCS Opposite-Spin Energy  =      -1.7701380266219531 [Eh]
	 SCS Correlation Energy    =      -1.9207151411887788 [Eh]
	 SCS Total Energy          =    -441.0097952703920896 [Eh]
	-----------------------------------------------------------

  Dipole Moment: [D]
     X:     2.6703      Y:     1.0482      Z:     0.7301     Total:     2.9601

*** Psi4 exiting successfully. Buy a developer a beer!
