                               Psi4 1.4a3.dev225

  ==> Input File <==

--------------------------------------------------------------------------
#psi4
#
memory 32 gb

molecule  {
0 1
  O       -1.6162430     0.8314800    -0.3809140
  O       -1.1510000    -1.1772170     0.5605200
  N        1.5455560    -1.0219050    -0.2870820
  C        0.6665940     0.1335400    -0.4023590
  C        1.1923300     1.2755990     0.4679010
  C       -0.7726990    -0.1733030    -0.0203720
  H        0.6629820     0.4626600    -1.4478320
  H        2.2238070     1.4912930     0.1836440
  H        0.5830780     2.1739270     0.3501650
  H        1.1794500     0.9804810     1.5223570
  H        1.2015560    -1.7655910    -0.8946420
  H        1.4531697    -1.4019703     0.6774400
  H       -2.5041220     0.5561110    -0.0708870
units angstrom
no_reorient  #important for SAPT in psi4, default
symmetry c1  #important for SAPT in psi4, default
}

set PROPERTIES_ORIGIN ["COM"]
properties('MP2/aug-cc-pvtz', properties = ['dipole'])
--------------------------------------------------------------------------

    Molecular point group: c1
  Charge       = 0
  Multiplicity = 1
  Basis Set: AUG-CC-PVTZ
    Blend: AUG-CC-PVTZ
  Basis Set: (AUG-CC-PVTZ AUX)
    Blend: AUG-CC-PVTZ-JKFIT

    Orbital Energies [Eh]
    ---------------------

    Doubly Occupied:

       1A    -20.621937     2A    -20.558214     3A    -15.554101
       4A    -11.390590     5A    -11.283657     6A    -11.231429
       7A     -1.465258     8A     -1.362604     9A     -1.199322
      10A     -1.022237    11A     -0.907315    12A     -0.793748
      13A     -0.713323    14A     -0.706112    15A     -0.671146
      16A     -0.632152    17A     -0.608220    18A     -0.594063
      19A     -0.549959    20A     -0.532320    21A     -0.510866
      22A     -0.487069    23A     -0.461911    24A     -0.414845

  @DF-RHF Final Energy:  -321.99686637142759

   => Energetics <=

    Nuclear Repulsion Energy =            248.7711698927383850
    One-Electron Energy =                -932.9912743193824554
    Two-Electron Energy =                 362.2232380552164841
    Total Energy =                       -321.9968663714275863
  Basis Set: (AUG-CC-PVTZ AUX)
    Blend: AUG-CC-PVTZ-RI
    Molecular point group: c1

    Geometry (in Angstrom), charge = 0, multiplicity = 1:

       Center              X                  Y                   Z               Mass
    ------------   -----------------  -----------------  -----------------  -----------------
         O           -1.562933353774     0.859480326033    -0.377742025912    15.994914619570
         O           -1.097690353774    -1.149216673967     0.563691974088    15.994914619570
         N            1.598865646226    -0.993904673967    -0.283910025912    14.003074004430
         C            0.719903646226     0.161540326033    -0.399187025912    12.000000000000
         C            1.245639646226     1.303599326033     0.471072974088    12.000000000000
         C           -0.719389353774    -0.145302673967    -0.017200025912    12.000000000000
         H            0.716291646226     0.490660326033    -1.444660025912     1.007825032230
         H            2.277116646226     1.519293326033     0.186815974088     1.007825032230
         H            0.636387646226     2.201927326033     0.353336974088     1.007825032230
         H            1.232759646226     1.008481326033     1.525528974088     1.007825032230
         H            1.254865646226    -1.737590673967    -0.891470025912     1.007825032230
         H            1.506479346226    -1.373969973967     0.680611974088     1.007825032230
         H           -2.450812353774     0.584111326033    -0.067715025912     1.007825032230

  Basis Set: AUG-CC-PVTZ
    Blend: AUG-CC-PVTZ
  Basis Set: (AUG-CC-PVTZ AUX)
    Blend: AUG-CC-PVTZ-JKFIT
	 Reference Energy          =    -321.9968663714275863 [Eh]
	 Singles Energy            =      -0.0000000000000000 [Eh]
	 Same-Spin Energy          =      -0.3168498801480021 [Eh]
	 Opposite-Spin Energy      =      -1.0000086067148302 [Eh]
	 Correlation Energy        =      -1.3168584868628321 [Eh]
	 Total Energy              =    -323.3137248582904135 [Eh]

	 ================> DF-SCS-MP2 Energies <==================
	-----------------------------------------------------------
	 SCS Same-Spin Scale       =       0.3333333333333333 [-]
	 SCS Opposite-Spin Scale   =       1.2000000000000000 [-]
	 SCS Same-Spin Energy      =      -0.1056166267160007 [Eh]
	 SCS Opposite-Spin Energy  =      -1.2000103280577961 [Eh]
	 SCS Correlation Energy    =      -1.3056269547737966 [Eh]
	 SCS Total Energy          =    -323.3024933262013860 [Eh]
	-----------------------------------------------------------

  Dipole Moment: [D]
     X:    -0.7864      Y:     1.0483      Z:    -0.3434     Total:     1.3547

*** Psi4 exiting successfully. Buy a developer a beer!
