                               Psi4 1.3.2 release

  ==> Input File <==

--------------------------------------------------------------------------
#psi4
#
memory 32 gb

molecule  {
0 1
  O        1.4293010    -1.0173190    -0.5083850
  O        1.2616920     1.0439120     0.4876630
  N       -1.5520946     1.1432728    -0.0315046
  C       -0.7590880    -0.0423940    -0.3475120
  C       -1.3403730    -1.2419500     0.4105850
  C        0.7359733     0.0329554    -0.0821254
  H       -0.8593930    -0.2237720    -1.4273650
  H       -2.4052960    -1.3157140     0.1877600
  H       -0.8411410    -2.1737420     0.1227770
  H       -1.2225590    -1.1039570     1.4923070
  H       -1.0898030     1.9609300    -0.5079820
  H       -1.3695700     1.3697580     0.9773170
  H        2.3653570    -0.8358360    -0.2741470
units angstrom
no_reorient  #important for SAPT in psi4, default
symmetry c1  #important for SAPT in psi4, default
}

set PROPERTIES_ORIGIN ["COM"]
properties('MP2/aug-cc-pvtz', properties = ['dipole'])
--------------------------------------------------------------------------

    Molecular point group: c1
  Charge       = 0
  Multiplicity = 1
  Basis Set: AUG-CC-PVTZ
    Blend: AUG-CC-PVTZ
  Basis Set: (AUG-CC-PVTZ AUX)
    Blend: AUG-CC-PVTZ-JKFIT

    Orbital Energies [Eh]
    ---------------------

    Doubly Occupied:

       1A    -20.638082     2A    -20.552074     3A    -15.561650
       4A    -11.399500     5A    -11.286142     6A    -11.232536
       7A     -1.476097     8A     -1.339090     9A     -1.195306
      10A     -1.021920    11A     -0.912447    12A     -0.805017
      13A     -0.714842    14A     -0.705800    15A     -0.666569
      16A     -0.633911    17A     -0.605336    18A     -0.587188
      19A     -0.547644    20A     -0.525223    21A     -0.510229
      22A     -0.472628    23A     -0.456022    24A     -0.423654

  @DF-RHF Final Energy:  -321.98332904010965

   => Energetics <=

    Nuclear Repulsion Energy =            247.3543285719586038
    One-Electron Energy =                -930.1375020397223352
    Two-Electron Energy =                 360.7998444276540795
    Total Energy =                       -321.9833290401096519
  Basis Set: (AUG-CC-PVTZ AUX)
    Blend: AUG-CC-PVTZ-RI
    Molecular point group: c1

    Geometry (in Angstrom), charge = 0, multiplicity = 1:

       Center              X                  Y                   Z               Mass
    ------------   -----------------  -----------------  -----------------  -----------------
         O            1.435124623610    -1.006959581806    -0.503599876056    15.994914619570
         O            1.267515623610     1.054271418194     0.492448123944    15.994914619570
         N           -1.546270976390     1.153632218194    -0.026719476056    14.003074004430
         C           -0.753264376390    -0.032034581806    -0.342726876056    12.000000000000
         C           -1.334549376390    -1.231590581806     0.415370123944    12.000000000000
         C            0.741796923610     0.043314818194    -0.077340276056    12.000000000000
         H           -0.853569376390    -0.213412581806    -1.422579876056     1.007825032230
         H           -2.399472376390    -1.305354581806     0.192545123944     1.007825032230
         H           -0.835317376390    -2.163382581806     0.127562123944     1.007825032230
         H           -1.216735376390    -1.093597581806     1.497092123944     1.007825032230
         H           -1.083979376390     1.971289418194    -0.503196876056     1.007825032230
         H           -1.363746376390     1.380117418194     0.982102123944     1.007825032230
         H            2.371180623610    -0.825476581806    -0.269361876056     1.007825032230

  Basis Set: AUG-CC-PVTZ
    Blend: AUG-CC-PVTZ
  Basis Set: (AUG-CC-PVTZ AUX)
    Blend: AUG-CC-PVTZ-JKFIT
	 Reference Energy          =    -321.9833290401096519 [Eh]
	 Singles Energy            =      -0.0000000000000000 [Eh]
	 Same-Spin Energy          =      -0.3183164103918624 [Eh]
	 Opposite-Spin Energy      =      -1.0035282215399004 [Eh]
	 Correlation Energy        =      -1.3218446319317629 [Eh]
	 Total Energy              =    -323.3051736720414056 [Eh]

	 ================> DF-SCS-MP2 Energies <==================
	-----------------------------------------------------------
	 SCS Same-Spin Scale       =       0.3333333333333333 [-]
	 SCS Opposite-Spin Scale   =       1.2000000000000000 [-]
	 SCS Same-Spin Energy      =      -0.1061054701306208 [Eh]
	 SCS Opposite-Spin Energy  =      -1.2042338658478804 [Eh]
	 SCS Correlation Energy    =      -1.3103393359785012 [Eh]
	 SCS Total Energy          =    -323.2936683760881351 [Eh]
	-----------------------------------------------------------

  Dipole Moment: [D]
     X:     0.7726      Y:    -1.4776      Z:    -0.4645     Total:     1.7309

*** Psi4 exiting successfully. Buy a developer a beer!
