                               Psi4 1.4a3.dev225

  ==> Input File <==

--------------------------------------------------------------------------
#psi4
#
memory 32 gb

molecule  {
0 1
  O       -1.6162430     0.8314800    -0.3809140
  O       -1.1510000    -1.1772170     0.5605200
  N        1.5455560    -1.0219050    -0.2870820
  C        0.6665940     0.1335400    -0.4023590
  C        1.1751386     1.2382541     0.4394438
  C       -0.7726990    -0.1733030    -0.0203720
  H        0.6629820     0.4626600    -1.4478320
  H        2.2238070     1.4912930     0.1836440
  H        0.5830780     2.1739270     0.3501650
  H        1.1794500     0.9804810     1.5223570
  H        1.2015560    -1.7655910    -0.8946420
  H        1.4549450    -1.3946670     0.6589060
  H       -2.5041220     0.5561110    -0.0708870
units angstrom
no_reorient  #important for SAPT in psi4, default
symmetry c1  #important for SAPT in psi4, default
}

set PROPERTIES_ORIGIN ["COM"]
properties('MP2/aug-cc-pvtz', properties = ['dipole'])
--------------------------------------------------------------------------

    Molecular point group: c1
  Charge       = 0
  Multiplicity = 1
  Basis Set: AUG-CC-PVTZ
    Blend: AUG-CC-PVTZ
  Basis Set: (AUG-CC-PVTZ AUX)
    Blend: AUG-CC-PVTZ-JKFIT

    Orbital Energies [Eh]
    ---------------------

    Doubly Occupied:

       1A    -20.622281     2A    -20.558842     3A    -15.552111
       4A    -11.391161     5A    -11.281895     6A    -11.232950
       7A     -1.465773     8A     -1.363110     9A     -1.204597
      10A     -1.029628    11A     -0.904861    12A     -0.794967
      13A     -0.714673    14A     -0.707904    15A     -0.674625
      16A     -0.633068    17A     -0.609850    18A     -0.596361
      19A     -0.546218    20A     -0.530705    21A     -0.510068
      22A     -0.488499    23A     -0.461032    24A     -0.416246

  @DF-RHF Final Energy:  -321.99481356355028

   => Energetics <=

    Nuclear Repulsion Energy =            249.6642917301979594
    One-Electron Energy =                -934.7353578671265950
    Two-Electron Energy =                 363.0762525733783264
    Total Energy =                       -321.9948135635502808
  Basis Set: (AUG-CC-PVTZ AUX)
    Blend: AUG-CC-PVTZ-RI
    Molecular point group: c1

    Geometry (in Angstrom), charge = 0, multiplicity = 1:

       Center              X                  Y                   Z               Mass
    ------------   -----------------  -----------------  -----------------  -----------------
         O           -1.560636745803     0.864430240046    -0.373697390102    15.994914619570
         O           -1.095393745803    -1.144266759954     0.567736609898    15.994914619570
         N            1.601162254197    -0.988954759954    -0.279865390102    14.003074004430
         C            0.722200254197     0.166490240046    -0.395142390102    12.000000000000
         C            1.230744854197     1.271204340046     0.446660409898    12.000000000000
         C           -0.717092745803    -0.140352759954    -0.013155390102    12.000000000000
         H            0.718588254197     0.495610240046    -1.440615390102     1.007825032230
         H            2.279413254197     1.524243240046     0.190860609898     1.007825032230
         H            0.638684254197     2.206877240046     0.357381609898     1.007825032230
         H            1.235056254197     1.013431240046     1.529573609898     1.007825032230
         H            1.257162254197    -1.732640759954    -0.887425390102     1.007825032230
         H            1.510551254197    -1.361716759954     0.666122609898     1.007825032230
         H           -2.448515745803     0.589061240046    -0.063670390102     1.007825032230

  Basis Set: AUG-CC-PVTZ
    Blend: AUG-CC-PVTZ
  Basis Set: (AUG-CC-PVTZ AUX)
    Blend: AUG-CC-PVTZ-JKFIT
	 Reference Energy          =    -321.9948135635502808 [Eh]
	 Singles Energy            =      -0.0000000000000000 [Eh]
	 Same-Spin Energy          =      -0.3171643244427147 [Eh]
	 Opposite-Spin Energy      =      -1.0001426808484450 [Eh]
	 Correlation Energy        =      -1.3173070052911597 [Eh]
	 Total Energy              =    -323.3121205688414648 [Eh]

	 ================> DF-SCS-MP2 Energies <==================
	-----------------------------------------------------------
	 SCS Same-Spin Scale       =       0.3333333333333333 [-]
	 SCS Opposite-Spin Scale   =       1.2000000000000000 [-]
	 SCS Same-Spin Energy      =      -0.1057214414809049 [Eh]
	 SCS Opposite-Spin Energy  =      -1.2001712170181340 [Eh]
	 SCS Correlation Energy    =      -1.3058926584990389 [Eh]
	 SCS Total Energy          =    -323.3007062220493140 [Eh]
	-----------------------------------------------------------

  Dipole Moment: [D]
     X:    -0.8037      Y:     1.0523      Z:    -0.3520     Total:     1.3701

*** Psi4 exiting successfully. Buy a developer a beer!
