                               Psi4 1.3.2 release

  ==> Input File <==

--------------------------------------------------------------------------
#psi4
#
memory 32 gb

molecule  {
0 1
  O        1.4293010    -1.0173190    -0.5083850
  O        1.2616920     1.0439120     0.4876630
  N       -1.5094500     1.1665790    -0.0160500
  C       -0.7590880    -0.0423940    -0.3475120
  C       -1.3403730    -1.2419500     0.4105850
  C        0.7916851     0.1104220    -0.0411984
  H       -0.8593930    -0.2237720    -1.4273650
  H       -2.4052960    -1.3157140     0.1877600
  H       -0.8411410    -2.1737420     0.1227770
  H       -1.2225590    -1.1039570     1.4923070
  H       -1.0898030     1.9609300    -0.5079820
  H       -1.3695700     1.3697580     0.9773170
  H        2.3502211    -0.7910241    -0.2540208
units angstrom
no_reorient  #important for SAPT in psi4, default
symmetry c1  #important for SAPT in psi4, default
}

set PROPERTIES_ORIGIN ["COM"]
properties('MP2/aug-cc-pvtz', properties = ['dipole'])
--------------------------------------------------------------------------

    Molecular point group: c1
  Charge       = 0
  Multiplicity = 1
  Basis Set: AUG-CC-PVTZ
    Blend: AUG-CC-PVTZ
  Basis Set: (AUG-CC-PVTZ AUX)
    Blend: AUG-CC-PVTZ-JKFIT

    Orbital Energies [Eh]
    ---------------------

    Doubly Occupied:

       1A    -20.623094     2A    -20.569705     3A    -15.550183
       4A    -11.388395     5A    -11.282206     6A    -11.228222
       7A     -1.477267     8A     -1.388812     9A     -1.193182
      10A     -1.010941    11A     -0.890966    12A     -0.784762
      13A     -0.722265    14A     -0.702637    15A     -0.672847
      16A     -0.634009    17A     -0.616034    18A     -0.594956
      19A     -0.554377    20A     -0.526976    21A     -0.509485
      22A     -0.503247    23A     -0.464520    24A     -0.404053

  @DF-RHF Final Energy:  -321.99152175326651

   => Energetics <=

    Nuclear Repulsion Energy =            247.9722502702706493
    One-Electron Energy =                -931.3412621725985900
    Two-Electron Energy =                 361.3774901490613729
    Total Energy =                       -321.9915217532665110
  Basis Set: (AUG-CC-PVTZ AUX)
    Blend: AUG-CC-PVTZ-RI
    Molecular point group: c1

    Geometry (in Angstrom), charge = 0, multiplicity = 1:

       Center              X                  Y                   Z               Mass
    ------------   -----------------  -----------------  -----------------  -----------------
         O            1.421082227757    -1.021571082300    -0.511773245741    15.994914619570
         O            1.253473227757     1.039659917700     0.484274754259    15.994914619570
         N           -1.517668772243     1.162326917700    -0.019438245741    14.003074004430
         C           -0.767306772243    -0.046646082300    -0.350900245741    12.000000000000
         C           -1.348591772243    -1.246202082300     0.407196754259    12.000000000000
         C            0.783466327757     0.106169917700    -0.044586645741    12.000000000000
         H           -0.867611772243    -0.228024082300    -1.430753245741     1.007825032230
         H           -2.413514772243    -1.319966082300     0.184371754259     1.007825032230
         H           -0.849359772243    -2.177994082300     0.119388754259     1.007825032230
         H           -1.230777772243    -1.108209082300     1.488918754259     1.007825032230
         H           -1.098021772243     1.956677917700    -0.511370245741     1.007825032230
         H           -1.377788772243     1.365505917700     0.973928754259     1.007825032230
         H            2.342002327757    -0.795276182300    -0.257409045741     1.007825032230

  Basis Set: AUG-CC-PVTZ
    Blend: AUG-CC-PVTZ
  Basis Set: (AUG-CC-PVTZ AUX)
    Blend: AUG-CC-PVTZ-JKFIT
	 Reference Energy          =    -321.9915217532665110 [Eh]
	 Singles Energy            =      -0.0000000000000000 [Eh]
	 Same-Spin Energy          =      -0.3161276276391873 [Eh]
	 Opposite-Spin Energy      =      -0.9991094166986783 [Eh]
	 Correlation Energy        =      -1.3152370443378656 [Eh]
	 Total Energy              =    -323.3067587976044024 [Eh]

	 ================> DF-SCS-MP2 Energies <==================
	-----------------------------------------------------------
	 SCS Same-Spin Scale       =       0.3333333333333333 [-]
	 SCS Opposite-Spin Scale   =       1.2000000000000000 [-]
	 SCS Same-Spin Energy      =      -0.1053758758797291 [Eh]
	 SCS Opposite-Spin Energy  =      -1.1989313000384139 [Eh]
	 SCS Correlation Energy    =      -1.3043071759181430 [Eh]
	 SCS Total Energy          =    -323.2958289291846654 [Eh]
	-----------------------------------------------------------

  Dipole Moment: [D]
     X:     0.8772      Y:    -0.8771      Z:    -0.1736     Total:     1.2526

*** Psi4 exiting successfully. Buy a developer a beer!
