                               Psi4 1.3.2 release

  ==> Input File <==

--------------------------------------------------------------------------
#psi4
#
memory 32 gb

molecule  {
0 1
  O        1.4293010    -1.0173190    -0.5083850
  O        1.2616920     1.0439120     0.4876630
  N       -1.4658912     1.1884123    -0.0009992
  C       -0.7590880    -0.0423940    -0.3475120
  C       -1.3403730    -1.2419500     0.4105850
  C        0.7210652     0.1321562    -0.0475212
  H       -0.8593930    -0.2237720    -1.4273650
  H       -2.4052960    -1.3157140     0.1877600
  H       -0.8411410    -2.1737420     0.1227770
  H       -1.2225590    -1.1039570     1.4923070
  H       -1.0898030     1.9609300    -0.5079820
  H       -1.3695700     1.3697580     0.9773170
  H        2.3653570    -0.8358360    -0.2741470
units angstrom
no_reorient  #important for SAPT in psi4, default
symmetry c1  #important for SAPT in psi4, default
}

set PROPERTIES_ORIGIN ["COM"]
properties('MP2/aug-cc-pvtz', properties = ['dipole'])
--------------------------------------------------------------------------

    Molecular point group: c1
  Charge       = 0
  Multiplicity = 1
  Basis Set: AUG-CC-PVTZ
    Blend: AUG-CC-PVTZ
  Basis Set: (AUG-CC-PVTZ AUX)
    Blend: AUG-CC-PVTZ-JKFIT

    Orbital Energies [Eh]
    ---------------------

    Doubly Occupied:

       1A    -20.606826     2A    -20.569379     3A    -15.545745
       4A    -11.390218     5A    -11.286828     6A    -11.233769
       7A     -1.457347     8A     -1.363737     9A     -1.203620
      10A     -1.022883    11A     -0.903511    12A     -0.781473
      13A     -0.711074    14A     -0.701804    15A     -0.679905
      16A     -0.623189    17A     -0.608802    18A     -0.603630
      19A     -0.553750    20A     -0.533625    21A     -0.513313
      22A     -0.496954    23A     -0.464641    24A     -0.408421

  @DF-RHF Final Energy:  -321.99397804013745

   => Energetics <=

    Nuclear Repulsion Energy =            248.3567844243064826
    One-Electron Energy =                -932.1726367749640758
    Two-Electron Energy =                 361.8218743105201156
    Total Energy =                       -321.9939780401374492
  Basis Set: (AUG-CC-PVTZ AUX)
    Blend: AUG-CC-PVTZ-RI
    Molecular point group: c1

    Geometry (in Angstrom), charge = 0, multiplicity = 1:

       Center              X                  Y                   Z               Mass
    ------------   -----------------  -----------------  -----------------  -----------------
         O            1.423577827474    -1.027426160951    -0.513060198753    15.994914619570
         O            1.255968827474     1.033804839049     0.482987801247    15.994914619570
         N           -1.471614372526     1.178305139049    -0.005674398753    14.003074004430
         C           -0.764811172526    -0.052501160951    -0.352187198753    12.000000000000
         C           -1.346096172526    -1.252057160951     0.405909801247    12.000000000000
         C            0.715342027474     0.122049039049    -0.052196398753    12.000000000000
         H           -0.865116172526    -0.233879160951    -1.432040198753     1.007825032230
         H           -2.411019172526    -1.325821160951     0.183084801247     1.007825032230
         H           -0.846864172526    -2.183849160951     0.118101801247     1.007825032230
         H           -1.228282172526    -1.114064160951     1.487631801247     1.007825032230
         H           -1.095526172526     1.950822839049    -0.512657198753     1.007825032230
         H           -1.375293172526     1.359650839049     0.972641801247     1.007825032230
         H            2.359633827474    -0.845943160951    -0.278822198753     1.007825032230

  Basis Set: AUG-CC-PVTZ
    Blend: AUG-CC-PVTZ
  Basis Set: (AUG-CC-PVTZ AUX)
    Blend: AUG-CC-PVTZ-JKFIT
	 Reference Energy          =    -321.9939780401374492 [Eh]
	 Singles Energy            =      -0.0000000000000000 [Eh]
	 Same-Spin Energy          =      -0.3163010779325683 [Eh]
	 Opposite-Spin Energy      =      -0.9993382219430854 [Eh]
	 Correlation Energy        =      -1.3156392998756536 [Eh]
	 Total Energy              =    -323.3096173400131192 [Eh]

	 ================> DF-SCS-MP2 Energies <==================
	-----------------------------------------------------------
	 SCS Same-Spin Scale       =       0.3333333333333333 [-]
	 SCS Opposite-Spin Scale   =       1.2000000000000000 [-]
	 SCS Same-Spin Energy      =      -0.1054336926441894 [Eh]
	 SCS Opposite-Spin Energy  =      -1.1992058663317025 [Eh]
	 SCS Correlation Energy    =      -1.3046395589758919 [Eh]
	 SCS Total Energy          =    -323.2986175991133564 [Eh]
	-----------------------------------------------------------

  Dipole Moment: [D]
     X:     0.3796      Y:    -0.7964      Z:    -0.1649     Total:     0.8975

*** Psi4 exiting successfully. Buy a developer a beer!
