                               Psi4 1.3.2 release

  ==> Input File <==

--------------------------------------------------------------------------
#psi4
#
memory 32 gb

molecule  {
0 1
  O        1.4293010    -1.0173190    -0.5083850
  O        1.2616920     1.0439120     0.4876630
  N       -1.5094500     1.1665790    -0.0160500
  C       -0.7590880    -0.0423940    -0.3475120
  C       -1.3282552    -1.2445611     0.4156268
  C        0.7287653     0.0719759    -0.0567753
  H       -0.8593930    -0.2237720    -1.4273650
  H       -2.4052960    -1.3157140     0.1877600
  H       -0.8411410    -2.1737420     0.1227770
  H       -1.2225590    -1.1039570     1.4923070
  H       -1.0898030     1.9609300    -0.5079820
  H       -1.3695700     1.3697580     0.9773170
  H        2.3653570    -0.8358360    -0.2741470
units angstrom
no_reorient  #important for SAPT in psi4, default
symmetry c1  #important for SAPT in psi4, default
}

set PROPERTIES_ORIGIN ["COM"]
properties('MP2/aug-cc-pvtz', properties = ['dipole'])
--------------------------------------------------------------------------

    Molecular point group: c1
  Charge       = 0
  Multiplicity = 1
  Basis Set: AUG-CC-PVTZ
    Blend: AUG-CC-PVTZ
  Basis Set: (AUG-CC-PVTZ AUX)
    Blend: AUG-CC-PVTZ-JKFIT

    Orbital Energies [Eh]
    ---------------------

    Doubly Occupied:

       1A    -20.624519     2A    -20.559597     3A    -15.553499
       4A    -11.394988     5A    -11.286215     6A    -11.232981
       7A     -1.458750     8A     -1.357298     9A     -1.199026
      10A     -1.023078    11A     -0.906844    12A     -0.794072
      13A     -0.711298    14A     -0.702613    15A     -0.672358
      16A     -0.627048    17A     -0.608272    18A     -0.597174
      19A     -0.546634    20A     -0.532014    21A     -0.514037
      22A     -0.484921    23A     -0.460224    24A     -0.416333

  @DF-RHF Final Energy:  -321.99361459666574

   => Energetics <=

    Nuclear Repulsion Energy =            247.8674985968107194
    One-Electron Energy =                -931.1946421592335810
    Two-Electron Energy =                 361.3335289657571252
    Total Energy =                       -321.9936145966657364
  Basis Set: (AUG-CC-PVTZ AUX)
    Blend: AUG-CC-PVTZ-RI
    Molecular point group: c1

    Geometry (in Angstrom), charge = 0, multiplicity = 1:

       Center              X                  Y                   Z               Mass
    ------------   -----------------  -----------------  -----------------  -----------------
         O            1.427756962813    -1.015531071333    -0.510125758791    15.994914619570
         O            1.260147962813     1.045699928667     0.485922241209    15.994914619570
         N           -1.510994037187     1.168366928667    -0.017790758791    14.003074004430
         C           -0.760632037187    -0.040606071333    -0.349252758791    12.000000000000
         C           -1.329799237187    -1.242773171333     0.413886041209    12.000000000000
         C            0.727221262813     0.073763828667    -0.058516058791    12.000000000000
         H           -0.860937037187    -0.221984071333    -1.429105758791     1.007825032230
         H           -2.406840037187    -1.313926071333     0.186019241209     1.007825032230
         H           -0.842685037187    -2.171954071333     0.121036241209     1.007825032230
         H           -1.224103037187    -1.102169071333     1.490566241209     1.007825032230
         H           -1.091347037187     1.962717928667    -0.509722758791     1.007825032230
         H           -1.371114037187     1.371545928667     0.975576241209     1.007825032230
         H            2.363812962813    -0.834048071333    -0.275887758791     1.007825032230

  Basis Set: AUG-CC-PVTZ
    Blend: AUG-CC-PVTZ
  Basis Set: (AUG-CC-PVTZ AUX)
    Blend: AUG-CC-PVTZ-JKFIT
	 Reference Energy          =    -321.9936145966657364 [Eh]
	 Singles Energy            =      -0.0000000000000000 [Eh]
	 Same-Spin Energy          =      -0.3172673859434535 [Eh]
	 Opposite-Spin Energy      =      -1.0012918627495333 [Eh]
	 Correlation Energy        =      -1.3185592486929867 [Eh]
	 Total Energy              =    -323.3121738453587000 [Eh]

	 ================> DF-SCS-MP2 Energies <==================
	-----------------------------------------------------------
	 SCS Same-Spin Scale       =       0.3333333333333333 [-]
	 SCS Opposite-Spin Scale   =       1.2000000000000000 [-]
	 SCS Same-Spin Energy      =      -0.1057557953144845 [Eh]
	 SCS Opposite-Spin Energy  =      -1.2015502352994398 [Eh]
	 SCS Correlation Energy    =      -1.3073060306139244 [Eh]
	 SCS Total Energy          =    -323.3009206272796519 [Eh]
	-----------------------------------------------------------

  Dipole Moment: [D]
     X:     0.6047      Y:    -1.1888      Z:    -0.3262     Total:     1.3731

*** Psi4 exiting successfully. Buy a developer a beer!
