                               Psi4 1.3.2 release

  ==> Input File <==

--------------------------------------------------------------------------
#psi4
#
memory 32 gb

molecule  {
0 1
  O        1.4293010    -1.0173190    -0.5083850
  O        1.2807503     1.0342298     0.4857308
  N       -1.5094500     1.1665790    -0.0160500
  C       -0.7547598    -0.0661306    -0.3585524
  C       -1.3403730    -1.2419500     0.4105850
  C        0.7294260     0.0826320    -0.0646510
  H       -0.8593930    -0.2237720    -1.4273650
  H       -2.4052960    -1.3157140     0.1877600
  H       -0.8411410    -2.1737420     0.1227770
  H       -1.2225590    -1.1039570     1.4923070
  H       -1.0898030     1.9609300    -0.5079820
  H       -1.3695700     1.3697580     0.9773170
  H        2.3653570    -0.8358360    -0.2741470
units angstrom
no_reorient  #important for SAPT in psi4, default
symmetry c1  #important for SAPT in psi4, default
}

set PROPERTIES_ORIGIN ["COM"]
properties('MP2/aug-cc-pvtz', properties = ['dipole'])
--------------------------------------------------------------------------

    Molecular point group: c1
  Charge       = 0
  Multiplicity = 1
  Basis Set: AUG-CC-PVTZ
    Blend: AUG-CC-PVTZ
  Basis Set: (AUG-CC-PVTZ AUX)
    Blend: AUG-CC-PVTZ-JKFIT

    Orbital Energies [Eh]
    ---------------------

    Doubly Occupied:

       1A    -20.621132     2A    -20.561755     3A    -15.553129
       4A    -11.395768     5A    -11.287027     6A    -11.233541
       7A     -1.457933     8A     -1.358216     9A     -1.193369
      10A     -1.025148    11A     -0.908789    12A     -0.792946
      13A     -0.710760    14A     -0.702115    15A     -0.669743
      16A     -0.626167    17A     -0.607450    18A     -0.596973
      19A     -0.551483    20A     -0.526084    21A     -0.519155
      22A     -0.486971    23A     -0.461912    24A     -0.416120

  @DF-RHF Final Energy:  -321.99353686323599

   => Energetics <=

    Nuclear Repulsion Energy =            247.6165239525426500
    One-Electron Energy =                -930.6927450134725177
    Two-Electron Energy =                 361.0826841976938226
    Total Energy =                       -321.9935368632359882
  Basis Set: (AUG-CC-PVTZ AUX)
    Blend: AUG-CC-PVTZ-RI
    Molecular point group: c1

    Geometry (in Angstrom), charge = 0, multiplicity = 1:

       Center              X                  Y                   Z               Mass
    ------------   -----------------  -----------------  -----------------  -----------------
         O            1.425294359800    -1.012381087334    -0.506550144250    15.994914619570
         O            1.276743659800     1.039167712666     0.487565655750    15.994914619570
         N           -1.513456640200     1.171516912666    -0.014215144250    14.003074004430
         C           -0.758766440200    -0.061192687334    -0.356717544250    12.000000000000
         C           -1.344379640200    -1.237012087334     0.412419855750    12.000000000000
         C            0.725419359800     0.087569912666    -0.062816144250    12.000000000000
         H           -0.863399640200    -0.218834087334    -1.425530144250     1.007825032230
         H           -2.409302640200    -1.310776087334     0.189594855750     1.007825032230
         H           -0.845147640200    -2.168804087334     0.124611855750     1.007825032230
         H           -1.226565640200    -1.099019087334     1.494141855750     1.007825032230
         H           -1.093809640200     1.965867912666    -0.506147144250     1.007825032230
         H           -1.373576640200     1.374695912666     0.979151855750     1.007825032230
         H            2.361350359800    -0.830898087334    -0.272312144250     1.007825032230

  Basis Set: AUG-CC-PVTZ
    Blend: AUG-CC-PVTZ
  Basis Set: (AUG-CC-PVTZ AUX)
    Blend: AUG-CC-PVTZ-JKFIT
	 Reference Energy          =    -321.9935368632359882 [Eh]
	 Singles Energy            =      -0.0000000000000000 [Eh]
	 Same-Spin Energy          =      -0.3170927043541704 [Eh]
	 Opposite-Spin Energy      =      -1.0012571331844078 [Eh]
	 Correlation Energy        =      -1.3183498375385780 [Eh]
	 Total Energy              =    -323.3118867007745507 [Eh]

	 ================> DF-SCS-MP2 Energies <==================
	-----------------------------------------------------------
	 SCS Same-Spin Scale       =       0.3333333333333333 [-]
	 SCS Opposite-Spin Scale   =       1.2000000000000000 [-]
	 SCS Same-Spin Energy      =      -0.1056975681180568 [Eh]
	 SCS Opposite-Spin Energy  =      -1.2015085598212893 [Eh]
	 SCS Correlation Energy    =      -1.3072061279393461 [Eh]
	 SCS Total Energy          =    -323.3007429911753547 [Eh]
	-----------------------------------------------------------

  Dipole Moment: [D]
     X:     0.5713      Y:    -1.1769      Z:    -0.3200     Total:     1.3468

*** Psi4 exiting successfully. Buy a developer a beer!
