                               Psi4 1.3.2 release

  ==> Input File <==

--------------------------------------------------------------------------
#psi4
#
memory 32 gb

molecule  {
0 1
  O        1.4293010    -1.0173190    -0.5083850
  O        1.2616920     1.0439120     0.4876630
  N       -1.5094500     1.1665790    -0.0160500
  C       -0.7590880    -0.0423940    -0.3475120
  C       -1.3403730    -1.2419500     0.4105850
  C        0.7344155     0.0786963    -0.0904127
  H       -0.8402940    -0.2230410    -1.4290913
  H       -2.4052960    -1.3157140     0.1877600
  H       -0.8411410    -2.1737420     0.1227770
  H       -1.2225590    -1.1039570     1.4923070
  H       -1.0898030     1.9609300    -0.5079820
  H       -1.3695700     1.3697580     0.9773170
  H        2.3653570    -0.8358360    -0.2741470
units angstrom
no_reorient  #important for SAPT in psi4, default
symmetry c1  #important for SAPT in psi4, default
}

set PROPERTIES_ORIGIN ["COM"]
properties('MP2/aug-cc-pvtz', properties = ['dipole'])
--------------------------------------------------------------------------

    Molecular point group: c1
  Charge       = 0
  Multiplicity = 1
  Basis Set: AUG-CC-PVTZ
    Blend: AUG-CC-PVTZ
  Basis Set: (AUG-CC-PVTZ AUX)
    Blend: AUG-CC-PVTZ-JKFIT

    Orbital Energies [Eh]
    ---------------------

    Doubly Occupied:

       1A    -20.626942     2A    -20.557859     3A    -15.553271
       4A    -11.395429     5A    -11.286231     6A    -11.233454
       7A     -1.461002     8A     -1.354059     9A     -1.198558
      10A     -1.022537    11A     -0.909469    12A     -0.795691
      13A     -0.711145    14A     -0.701625    15A     -0.672843
      16A     -0.628279    17A     -0.608328    18A     -0.594823
      19A     -0.550458    20A     -0.529568    21A     -0.513653
      22A     -0.482404    23A     -0.459325    24A     -0.416256

  @DF-RHF Final Energy:  -321.99289183569050

   => Energetics <=

    Nuclear Repulsion Energy =            247.7571191900532028
    One-Electron Energy =                -930.9736060247357727
    Two-Electron Energy =                 361.2235949989920414
    Total Energy =                       -321.9928918356905001
  Basis Set: (AUG-CC-PVTZ AUX)
    Blend: AUG-CC-PVTZ-RI
    Molecular point group: c1

    Geometry (in Angstrom), charge = 0, multiplicity = 1:

       Center              X                  Y                   Z               Mass
    ------------   -----------------  -----------------  -----------------  -----------------
         O            1.428412372934    -1.016796850767    -0.504893840157    15.994914619570
         O            1.260803372934     1.044434149233     0.491154159843    15.994914619570
         N           -1.510338627066     1.167101149233    -0.012558840157    14.003074004430
         C           -0.759976627066    -0.041871850767    -0.344020840157    12.000000000000
         C           -1.341261627066    -1.241427850767     0.414076159843    12.000000000000
         C            0.733526872934     0.079218449233    -0.086921540157    12.000000000000
         H           -0.841182627066    -0.222518850767    -1.425600140157     1.007825032230
         H           -2.406184627066    -1.315191850767     0.191251159843     1.007825032230
         H           -0.842029627066    -2.173219850767     0.126268159843     1.007825032230
         H           -1.223447627066    -1.103434850767     1.495798159843     1.007825032230
         H           -1.090691627066     1.961452149233    -0.504490840157     1.007825032230
         H           -1.370458627066     1.370280149233     0.980808159843     1.007825032230
         H            2.364468372934    -0.835313850767    -0.270655840157     1.007825032230

  Basis Set: AUG-CC-PVTZ
    Blend: AUG-CC-PVTZ
  Basis Set: (AUG-CC-PVTZ AUX)
    Blend: AUG-CC-PVTZ-JKFIT
	 Reference Energy          =    -321.9928918356905001 [Eh]
	 Singles Energy            =      -0.0000000000000000 [Eh]
	 Same-Spin Energy          =      -0.3173435269620831 [Eh]
	 Opposite-Spin Energy      =      -1.0013872314365173 [Eh]
	 Correlation Energy        =      -1.3187307583986003 [Eh]
	 Total Energy              =    -323.3116225940891013 [Eh]

	 ================> DF-SCS-MP2 Energies <==================
	-----------------------------------------------------------
	 SCS Same-Spin Scale       =       0.3333333333333333 [-]
	 SCS Opposite-Spin Scale   =       1.2000000000000000 [-]
	 SCS Same-Spin Energy      =      -0.1057811756540277 [Eh]
	 SCS Opposite-Spin Energy  =      -1.2016646777238207 [Eh]
	 SCS Correlation Energy    =      -1.3074458533778484 [Eh]
	 SCS Total Energy          =    -323.3003376890683285 [Eh]
	-----------------------------------------------------------

  Dipole Moment: [D]
     X:     0.6256      Y:    -1.2421      Z:    -0.3775     Total:     1.4411

*** Psi4 exiting successfully. Buy a developer a beer!
