                               Psi4 1.3.2 release

  ==> Input File <==

--------------------------------------------------------------------------
#psi4
#
memory 32 gb

molecule  {
0 1
  O        1.4293010    -1.0173190    -0.5083850
  O        1.2616920     1.0439120     0.4876630
  N       -1.4877816     1.1776815    -0.0084730
  C       -0.7590880    -0.0423940    -0.3475120
  C       -1.3403730    -1.2419500     0.4105850
  C        0.7254717     0.1074169    -0.0560417
  H       -0.8593930    -0.2237720    -1.4273650
  H       -2.4052960    -1.3157140     0.1877600
  H       -0.8411410    -2.1737420     0.1227770
  H       -1.2225590    -1.1039570     1.4923070
  H       -1.0898030     1.9609300    -0.5079820
  H       -1.3695700     1.3697580     0.9773170
  H        2.3653570    -0.8358360    -0.2741470
units angstrom
no_reorient  #important for SAPT in psi4, default
symmetry c1  #important for SAPT in psi4, default
}

set PROPERTIES_ORIGIN ["COM"]
properties('MP2/aug-cc-pvtz', properties = ['dipole'])
--------------------------------------------------------------------------

    Molecular point group: c1
  Charge       = 0
  Multiplicity = 1
  Basis Set: AUG-CC-PVTZ
    Blend: AUG-CC-PVTZ
  Basis Set: (AUG-CC-PVTZ AUX)
    Blend: AUG-CC-PVTZ-JKFIT

    Orbital Energies [Eh]
    ---------------------

    Doubly Occupied:

       1A    -20.615073     2A    -20.565254     3A    -15.549405
       4A    -11.392610     5A    -11.286357     6A    -11.233375
       7A     -1.454667     8A     -1.364188     9A     -1.201350
      10A     -1.022521    11A     -0.905097    12A     -0.786657
      13A     -0.710857    14A     -0.701304    15A     -0.676187
      16A     -0.624097    17A     -0.609115    18A     -0.600281
      19A     -0.552419    20A     -0.531791    21A     -0.513078
      22A     -0.492460    23A     -0.463550    24A     -0.412373

  @DF-RHF Final Energy:  -321.99553893534210

   => Energetics <=

    Nuclear Repulsion Energy =            248.0744989579026196
    One-Electron Energy =                -931.6119445957625658
    Two-Electron Energy =                 361.5419067025178492
    Total Energy =                       -321.9955389353420969
  Basis Set: (AUG-CC-PVTZ AUX)
    Blend: AUG-CC-PVTZ-RI
    Molecular point group: c1

    Geometry (in Angstrom), charge = 0, multiplicity = 1:

       Center              X                  Y                   Z               Mass
    ------------   -----------------  -----------------  -----------------  -----------------
         O            1.426426356437    -1.022404853330    -0.510736699949    15.994914619570
         O            1.258817356437     1.038826146670     0.485311300051    15.994914619570
         N           -1.490656243563     1.172595646670    -0.010824699949    14.003074004430
         C           -0.761962643563    -0.047479853330    -0.349863699949    12.000000000000
         C           -1.343247643563    -1.247035853330     0.408233300051    12.000000000000
         C            0.722597056437     0.102331046670    -0.058393399949    12.000000000000
         H           -0.862267643563    -0.228857853330    -1.429716699949     1.007825032230
         H           -2.408170643563    -1.320799853330     0.185408300051     1.007825032230
         H           -0.844015643563    -2.178827853330     0.120425300051     1.007825032230
         H           -1.225433643563    -1.109042853330     1.489955300051     1.007825032230
         H           -1.092677643563     1.955844146670    -0.510333699949     1.007825032230
         H           -1.372444643563     1.364672146670     0.974965300051     1.007825032230
         H            2.362482356437    -0.840921853330    -0.276498699949     1.007825032230

  Basis Set: AUG-CC-PVTZ
    Blend: AUG-CC-PVTZ
  Basis Set: (AUG-CC-PVTZ AUX)
    Blend: AUG-CC-PVTZ-JKFIT
	 Reference Energy          =    -321.9955389353420969 [Eh]
	 Singles Energy            =      -0.0000000000000000 [Eh]
	 Same-Spin Energy          =      -0.3166915198141802 [Eh]
	 Opposite-Spin Energy      =      -1.0001712192553789 [Eh]
	 Correlation Energy        =      -1.3168627390695591 [Eh]
	 Total Energy              =    -323.3124016744116602 [Eh]

	 ================> DF-SCS-MP2 Energies <==================
	-----------------------------------------------------------
	 SCS Same-Spin Scale       =       0.3333333333333333 [-]
	 SCS Opposite-Spin Scale   =       1.2000000000000000 [-]
	 SCS Same-Spin Energy      =      -0.1055638399380601 [Eh]
	 SCS Opposite-Spin Energy  =      -1.2002054631064547 [Eh]
	 SCS Correlation Energy    =      -1.3057693030445148 [Eh]
	 SCS Total Energy          =    -323.3013082383866390 [Eh]
	-----------------------------------------------------------

  Dipole Moment: [D]
     X:     0.4934      Y:    -0.9732      Z:    -0.2409     Total:     1.1174

*** Psi4 exiting successfully. Buy a developer a beer!
