                               Psi4 1.4a3.dev225

  ==> Input File <==

--------------------------------------------------------------------------
#psi4
#
memory 32 gb

molecule  {
0 1
  O       -1.6162430     0.8314800    -0.3809140
  O       -1.1510000    -1.1772170     0.5605200
  N        1.5455560    -1.0219050    -0.2870820
  C        0.6665940     0.1335400    -0.4023590
  C        1.1923300     1.2755990     0.4679010
  C       -0.7726990    -0.1733030    -0.0203720
  H        0.6629820     0.4626600    -1.4478320
  H        2.2238070     1.4912930     0.1836440
  H        0.5830780     2.1739270     0.3501650
  H        1.1794500     0.9804810     1.5223570
  H        1.2015560    -1.7655910    -0.8946420
  H        1.4567203    -1.3873637     0.6403720
  H       -2.5041220     0.5561110    -0.0708870
units angstrom
no_reorient  #important for SAPT in psi4, default
symmetry c1  #important for SAPT in psi4, default
}

set PROPERTIES_ORIGIN ["COM"]
properties('MP2/aug-cc-pvtz', properties = ['dipole'])
--------------------------------------------------------------------------

    Molecular point group: c1
  Charge       = 0
  Multiplicity = 1
  Basis Set: AUG-CC-PVTZ
    Blend: AUG-CC-PVTZ
  Basis Set: (AUG-CC-PVTZ AUX)
    Blend: AUG-CC-PVTZ-JKFIT

    Orbital Energies [Eh]
    ---------------------

    Doubly Occupied:

       1A    -20.622006     2A    -20.558334     3A    -15.549920
       4A    -11.390705     5A    -11.283601     6A    -11.231549
       7A     -1.465350     8A     -1.362727     9A     -1.203861
      10A     -1.024575    11A     -0.907746    12A     -0.795441
      13A     -0.713742    14A     -0.707255    15A     -0.672690
      16A     -0.632627    17A     -0.609914    18A     -0.597889
      19A     -0.550105    20A     -0.532455    21A     -0.512071
      22A     -0.487159    23A     -0.462210    24A     -0.415412

  @DF-RHF Final Energy:  -321.99818547321331

   => Energetics <=

    Nuclear Repulsion Energy =            248.9639010770663958
    One-Electron Energy =                -933.3454874657932123
    Two-Electron Energy =                 362.3834009155135618
    Total Energy =                       -321.9981854732133115
  Basis Set: (AUG-CC-PVTZ AUX)
    Blend: AUG-CC-PVTZ-RI
    Molecular point group: c1

    Geometry (in Angstrom), charge = 0, multiplicity = 1:

       Center              X                  Y                   Z               Mass
    ------------   -----------------  -----------------  -----------------  -----------------
         O           -1.562973538803     0.859315011256    -0.377322497195    15.994914619570
         O           -1.097730538803    -1.149381988744     0.564111502805    15.994914619570
         N            1.598825461197    -0.994069988744    -0.283490497195    14.003074004430
         C            0.719863461197     0.161375011256    -0.398767497195    12.000000000000
         C            1.245599461197     1.303434011256     0.471492502805    12.000000000000
         C           -0.719429538803    -0.145467988744    -0.016780497195    12.000000000000
         H            0.716251461197     0.490495011256    -1.444240497195     1.007825032230
         H            2.277076461197     1.519128011256     0.187235502805     1.007825032230
         H            0.636347461197     2.201762011256     0.353756502805     1.007825032230
         H            1.232719461197     1.008316011256     1.525948502805     1.007825032230
         H            1.254825461197    -1.737755988744    -0.891050497195     1.007825032230
         H            1.509989761197    -1.359528688744     0.643963502805     1.007825032230
         H           -2.450852538803     0.583946011256    -0.067295497195     1.007825032230

  Basis Set: AUG-CC-PVTZ
    Blend: AUG-CC-PVTZ
  Basis Set: (AUG-CC-PVTZ AUX)
    Blend: AUG-CC-PVTZ-JKFIT
	 Reference Energy          =    -321.9981854732133115 [Eh]
	 Singles Energy            =      -0.0000000000000000 [Eh]
	 Same-Spin Energy          =      -0.3166293806525219 [Eh]
	 Opposite-Spin Energy      =      -0.9993323462828040 [Eh]
	 Correlation Energy        =      -1.3159617269353259 [Eh]
	 Total Energy              =    -323.3141472001486250 [Eh]

	 ================> DF-SCS-MP2 Energies <==================
	-----------------------------------------------------------
	 SCS Same-Spin Scale       =       0.3333333333333333 [-]
	 SCS Opposite-Spin Scale   =       1.2000000000000000 [-]
	 SCS Same-Spin Energy      =      -0.1055431268841740 [Eh]
	 SCS Opposite-Spin Energy  =      -1.1991988155393647 [Eh]
	 SCS Correlation Energy    =      -1.3047419424235387 [Eh]
	 SCS Total Energy          =    -323.3029274156368729 [Eh]
	-----------------------------------------------------------

  Dipole Moment: [D]
     X:    -0.7855      Y:     1.0523      Z:    -0.3551     Total:     1.3603

*** Psi4 exiting successfully. Buy a developer a beer!
