                               Psi4 1.3.2 release

  ==> Input File <==

--------------------------------------------------------------------------
#psi4
#
memory 32 gb

molecule  {
0 1
  O        1.4293010    -1.0173190    -0.5083850
  O        1.2616920     1.0439120     0.4876630
  N       -1.5094500     1.1665790    -0.0160500
  C       -0.7590880    -0.0423940    -0.3475120
  C       -1.3403730    -1.2419500     0.4105850
  C        0.7802455     0.0027620    -0.0968715
  H       -0.8593930    -0.2237720    -1.4273650
  H       -2.4052960    -1.3157140     0.1877600
  H       -0.8411410    -2.1737420     0.1227770
  H       -1.2225590    -1.1039570     1.4923070
  H       -1.0898030     1.9609300    -0.5079820
  H       -1.3695700     1.3697580     0.9773170
  H        2.3653570    -0.8358360    -0.2741470
units angstrom
no_reorient  #important for SAPT in psi4, default
symmetry c1  #important for SAPT in psi4, default
}

set PROPERTIES_ORIGIN ["COM"]
properties('MP2/aug-cc-pvtz', properties = ['dipole'])
--------------------------------------------------------------------------

    Molecular point group: c1
  Charge       = 0
  Multiplicity = 1
  Basis Set: AUG-CC-PVTZ
    Blend: AUG-CC-PVTZ
  Basis Set: (AUG-CC-PVTZ AUX)
    Blend: AUG-CC-PVTZ-JKFIT

    Orbital Energies [Eh]
    ---------------------

    Doubly Occupied:

       1A    -20.650605     2A    -20.543817     3A    -15.550861
       4A    -11.395991     5A    -11.284915     6A    -11.230760
       7A     -1.505056     8A     -1.329856     9A     -1.191759
      10A     -1.019623    11A     -0.912711    12A     -0.815887
      13A     -0.727458    14A     -0.701566    15A     -0.671603
      16A     -0.649595    17A     -0.603929    18A     -0.587284
      19A     -0.543993    20A     -0.526741    21A     -0.510940
      22A     -0.465857    23A     -0.446794    24A     -0.411329

  @DF-RHF Final Energy:  -321.98035604948376

   => Energetics <=

    Nuclear Repulsion Energy =            247.7008447269047053
    One-Electron Energy =                -930.8045458321270189
    Two-Electron Energy =                 361.1233450557385254
    Total Energy =                       -321.9803560494837598
  Basis Set: (AUG-CC-PVTZ AUX)
    Blend: AUG-CC-PVTZ-RI
    Molecular point group: c1

    Geometry (in Angstrom), charge = 0, multiplicity = 1:

       Center              X                  Y                   Z               Mass
    ------------   -----------------  -----------------  -----------------  -----------------
         O            1.422452514588    -1.006555726734    -0.504042994936    15.994914619570
         O            1.254843514588     1.054675273266     0.492005005064    15.994914619570
         N           -1.516298485412     1.177342273266    -0.011707994936    14.003074004430
         C           -0.765936485412    -0.031630726734    -0.343169994936    12.000000000000
         C           -1.347221485412    -1.231186726734     0.414927005064    12.000000000000
         C            0.773397014588     0.013525273266    -0.092529494936    12.000000000000
         H           -0.866241485412    -0.213008726734    -1.423022994936     1.007825032230
         H           -2.412144485412    -1.304950726734     0.192102005064     1.007825032230
         H           -0.847989485412    -2.162978726734     0.127119005064     1.007825032230
         H           -1.229407485412    -1.093193726734     1.496649005064     1.007825032230
         H           -1.096651485412     1.971693273266    -0.503639994936     1.007825032230
         H           -1.376418485412     1.380521273266     0.981659005064     1.007825032230
         H            2.358508514588    -0.825072726734    -0.269804994936     1.007825032230

  Basis Set: AUG-CC-PVTZ
    Blend: AUG-CC-PVTZ
  Basis Set: (AUG-CC-PVTZ AUX)
    Blend: AUG-CC-PVTZ-JKFIT
	 Reference Energy          =    -321.9803560494837598 [Eh]
	 Singles Energy            =      -0.0000000000000000 [Eh]
	 Same-Spin Energy          =      -0.3178192100264401 [Eh]
	 Opposite-Spin Energy      =      -1.0016796883503361 [Eh]
	 Correlation Energy        =      -1.3194988983767761 [Eh]
	 Total Energy              =    -323.2998549478605241 [Eh]

	 ================> DF-SCS-MP2 Energies <==================
	-----------------------------------------------------------
	 SCS Same-Spin Scale       =       0.3333333333333333 [-]
	 SCS Opposite-Spin Scale   =       1.2000000000000000 [-]
	 SCS Same-Spin Energy      =      -0.1059397366754800 [Eh]
	 SCS Opposite-Spin Energy  =      -1.2020156260204031 [Eh]
	 SCS Correlation Energy    =      -1.3079553626958831 [Eh]
	 SCS Total Energy          =    -323.2883114121796666 [Eh]
	-----------------------------------------------------------

  Dipole Moment: [D]
     X:     0.9289      Y:    -1.7561      Z:    -0.6026     Total:     2.0760

*** Psi4 exiting successfully. Buy a developer a beer!
