                               Psi4 1.3.2 release

  ==> Input File <==

--------------------------------------------------------------------------
#psi4
#
memory 32 gb

molecule  {
0 1
  O        1.4293010    -1.0173190    -0.5083850
  O        1.2616920     1.0439120     0.4876630
  N       -1.5094500     1.1665790    -0.0160500
  C       -0.7590880    -0.0423940    -0.3475120
  C       -1.2670346    -1.2562397     0.4399566
  C        0.7237636     0.0185809    -0.0177410
  H       -0.8593930    -0.2237720    -1.4273650
  H       -2.4052960    -1.3157140     0.1877600
  H       -0.8411410    -2.1737420     0.1227770
  H       -1.2225590    -1.1039570     1.4923070
  H       -1.0898030     1.9609300    -0.5079820
  H       -1.3695700     1.3697580     0.9773170
  H        2.3653570    -0.8358360    -0.2741470
units angstrom
no_reorient  #important for SAPT in psi4, default
symmetry c1  #important for SAPT in psi4, default
}

set PROPERTIES_ORIGIN ["COM"]
properties('MP2/aug-cc-pvtz', properties = ['dipole'])
--------------------------------------------------------------------------

    Molecular point group: c1
  Charge       = 0
  Multiplicity = 1
  Basis Set: AUG-CC-PVTZ
    Blend: AUG-CC-PVTZ
  Basis Set: (AUG-CC-PVTZ AUX)
    Blend: AUG-CC-PVTZ-JKFIT

    Orbital Energies [Eh]
    ---------------------

    Doubly Occupied:

       1A    -20.631780     2A    -20.552926     3A    -15.554742
       4A    -11.395865     5A    -11.287552     6A    -11.233828
       7A     -1.466497     8A     -1.342839     9A     -1.198422
      10A     -1.028148    11A     -0.906495    12A     -0.802546
      13A     -0.712826    14A     -0.704637    15A     -0.672353
      16A     -0.631637    17A     -0.609687    18A     -0.597490
      19A     -0.542373    20A     -0.524719    21A     -0.520339
      22A     -0.475104    23A     -0.451846    24A     -0.416024

  @DF-RHF Final Energy:  -321.97999495729437

   => Energetics <=

    Nuclear Repulsion Energy =            248.1171002953885250
    One-Electron Energy =                -931.6728426222814505
    Two-Electron Energy =                 361.5757473695985027
    Total Energy =                       -321.9799949572943660
  Basis Set: (AUG-CC-PVTZ AUX)
    Blend: AUG-CC-PVTZ-RI
    Molecular point group: c1

    Geometry (in Angstrom), charge = 0, multiplicity = 1:

       Center              X                  Y                   Z               Mass
    ------------   -----------------  -----------------  -----------------  -----------------
         O            1.420180944981    -1.006761800607    -0.518664658548    15.994914619570
         O            1.252571944981     1.054469199393     0.477383341452    15.994914619570
         N           -1.518570055019     1.177136199393    -0.026329658548    14.003074004430
         C           -0.768208055019    -0.031836800607    -0.357791658548    12.000000000000
         C           -1.276154655019    -1.245682500607     0.429676941452    12.000000000000
         C            0.714643544981     0.029138099393    -0.028020658548    12.000000000000
         H           -0.868513055019    -0.213214800607    -1.437644658548     1.007825032230
         H           -2.414416055019    -1.305156800607     0.177480341452     1.007825032230
         H           -0.850261055019    -2.163184800607     0.112497341452     1.007825032230
         H           -1.231679055019    -1.093399800607     1.482027341452     1.007825032230
         H           -1.098923055019     1.971487199393    -0.518261658548     1.007825032230
         H           -1.378690055019     1.380315199393     0.967037341452     1.007825032230
         H            2.356236944981    -0.825278800607    -0.284426658548     1.007825032230

  Basis Set: AUG-CC-PVTZ
    Blend: AUG-CC-PVTZ
  Basis Set: (AUG-CC-PVTZ AUX)
    Blend: AUG-CC-PVTZ-JKFIT
	 Reference Energy          =    -321.9799949572943660 [Eh]
	 Singles Energy            =      -0.0000000000000000 [Eh]
	 Same-Spin Energy          =      -0.3181459275924263 [Eh]
	 Opposite-Spin Energy      =      -1.0028350999033553 [Eh]
	 Correlation Energy        =      -1.3209810274957816 [Eh]
	 Total Energy              =    -323.3009759847901705 [Eh]

	 ================> DF-SCS-MP2 Energies <==================
	-----------------------------------------------------------
	 SCS Same-Spin Scale       =       0.3333333333333333 [-]
	 SCS Opposite-Spin Scale   =       1.2000000000000000 [-]
	 SCS Same-Spin Energy      =      -0.1060486425308088 [Eh]
	 SCS Opposite-Spin Energy  =      -1.2034021198840263 [Eh]
	 SCS Correlation Energy    =      -1.3094507624148350 [Eh]
	 SCS Total Energy          =    -323.2894457197091924 [Eh]
	-----------------------------------------------------------

  Dipole Moment: [D]
     X:     0.6416      Y:    -1.3887      Z:    -0.3804     Total:     1.5763

*** Psi4 exiting successfully. Buy a developer a beer!
