                               Psi4 1.3.2 release

  ==> Input File <==

--------------------------------------------------------------------------
#psi4
#
memory 32 gb

molecule  {
0 1
  O        1.4293010    -1.0173190    -0.5083850
  O        1.2616920     1.0439120     0.4876630
  N       -1.5094500     1.1665790    -0.0160500
  C       -0.7590880    -0.0423940    -0.3475120
  C       -1.3403730    -1.2419500     0.4105850
  C        0.6428649    -0.0736986    -0.1544725
  H       -0.8593930    -0.2237720    -1.4273650
  H       -2.4052960    -1.3157140     0.1877600
  H       -0.8411410    -2.1737420     0.1227770
  H       -1.2225590    -1.1039570     1.4923070
  H       -1.0898030     1.9609300    -0.5079820
  H       -1.3695700     1.3697580     0.9773170
  H        2.3653570    -0.8358360    -0.2741470
units angstrom
no_reorient  #important for SAPT in psi4, default
symmetry c1  #important for SAPT in psi4, default
}

set PROPERTIES_ORIGIN ["COM"]
properties('MP2/aug-cc-pvtz', properties = ['dipole'])
--------------------------------------------------------------------------

    Molecular point group: c1
  Charge       = 0
  Multiplicity = 1
  Basis Set: AUG-CC-PVTZ
    Blend: AUG-CC-PVTZ
  Basis Set: (AUG-CC-PVTZ AUX)
    Blend: AUG-CC-PVTZ-JKFIT

    Orbital Energies [Eh]
    ---------------------

    Doubly Occupied:

       1A    -20.653627     2A    -20.522465     3A    -15.558198
       4A    -11.408442     5A    -11.290772     6A    -11.242856
       7A     -1.499379     8A     -1.256956     9A     -1.198814
      10A     -1.051440    11A     -0.937947    12A     -0.839034
      13A     -0.722285    14A     -0.714198    15A     -0.679656
      16A     -0.646653    17A     -0.611963    18A     -0.570695
      19A     -0.546840    20A     -0.525909    21A     -0.506538
      22A     -0.433744    23A     -0.423321    24A     -0.420154

  @DF-RHF Final Energy:  -321.92749368872018

   => Energetics <=

    Nuclear Repulsion Energy =            247.9128808222779128
    One-Electron Energy =                -931.1569781016305569
    Two-Electron Energy =                 361.3166035906324964
    Total Energy =                       -321.9274936887201761
  Basis Set: (AUG-CC-PVTZ AUX)
    Blend: AUG-CC-PVTZ-RI
    Molecular point group: c1

    Geometry (in Angstrom), charge = 0, multiplicity = 1:

       Center              X                  Y                   Z               Mass
    ------------   -----------------  -----------------  -----------------  -----------------
         O            1.440965823731    -0.996251952219    -0.496280726319    15.994914619570
         O            1.273356823731     1.064979047781     0.499767273681    15.994914619570
         N           -1.497785176269     1.187646047781    -0.003945726319    14.003074004430
         C           -0.747423176269    -0.021326952219    -0.335407726319    12.000000000000
         C           -1.328708176269    -1.220882952219     0.422689273681    12.000000000000
         C            0.654529723731    -0.052631552219    -0.142368226319    12.000000000000
         H           -0.847728176269    -0.202704952219    -1.415260726319     1.007825032230
         H           -2.393631176269    -1.294646952219     0.199864273681     1.007825032230
         H           -0.829476176269    -2.152674952219     0.134881273681     1.007825032230
         H           -1.210894176269    -1.082889952219     1.504411273681     1.007825032230
         H           -1.078138176269     1.981997047781    -0.495877726319     1.007825032230
         H           -1.357905176269     1.390825047781     0.989421273681     1.007825032230
         H            2.377021823731    -0.814768952219    -0.262042726319     1.007825032230

  Basis Set: AUG-CC-PVTZ
    Blend: AUG-CC-PVTZ
  Basis Set: (AUG-CC-PVTZ AUX)
    Blend: AUG-CC-PVTZ-JKFIT
	 Reference Energy          =    -321.9274936887201761 [Eh]
	 Singles Energy            =      -0.0000000000000000 [Eh]
	 Same-Spin Energy          =      -0.3217043194026146 [Eh]
	 Opposite-Spin Energy      =      -1.0088519606237576 [Eh]
	 Correlation Energy        =      -1.3305562800263722 [Eh]
	 Total Energy              =    -323.2580499687465476 [Eh]

	 ================> DF-SCS-MP2 Energies <==================
	-----------------------------------------------------------
	 SCS Same-Spin Scale       =       0.3333333333333333 [-]
	 SCS Opposite-Spin Scale   =       1.2000000000000000 [-]
	 SCS Same-Spin Energy      =      -0.1072347731342048 [Eh]
	 SCS Opposite-Spin Energy  =      -1.2106223527485092 [Eh]
	 SCS Correlation Energy    =      -1.3178571258827141 [Eh]
	 SCS Total Energy          =    -323.2453508146028867 [Eh]
	-----------------------------------------------------------

  Dipole Moment: [D]
     X:     0.2676      Y:    -2.2062      Z:    -0.8453     Total:     2.3777

*** Psi4 exiting successfully. Buy a developer a beer!
