                               Psi4 1.4a3.dev225

  ==> Input File <==

--------------------------------------------------------------------------
#psi4
#
memory 32 gb

molecule  {
0 1
  O       -1.6162430     0.8314800    -0.3809140
  O       -1.1510000    -1.1772170     0.5605200
  N        1.5455560    -1.0219050    -0.2870820
  C        0.6665940     0.1335400    -0.4023590
  C        1.1923300     1.2755990     0.4679010
  C       -0.7571948    -0.1321589    -0.0441791
  H        0.6629820     0.4626600    -1.4478320
  H        2.2238070     1.4912930     0.1836440
  H        0.5830780     2.1739270     0.3501650
  H        1.1794500     0.9804810     1.5223570
  H        1.2015560    -1.7655910    -0.8946420
  H        1.4549450    -1.3946670     0.6589060
  H       -2.5041220     0.5561110    -0.0708870
units angstrom
no_reorient  #important for SAPT in psi4, default
symmetry c1  #important for SAPT in psi4, default
}

set PROPERTIES_ORIGIN ["COM"]
properties('MP2/aug-cc-pvtz', properties = ['dipole'])
--------------------------------------------------------------------------

    Molecular point group: c1
  Charge       = 0
  Multiplicity = 1
  Basis Set: AUG-CC-PVTZ
    Blend: AUG-CC-PVTZ
  Basis Set: (AUG-CC-PVTZ AUX)
    Blend: AUG-CC-PVTZ-JKFIT

    Orbital Energies [Eh]
    ---------------------

    Doubly Occupied:

       1A    -20.630286     2A    -20.549153     3A    -15.553228
       4A    -11.395108     5A    -11.284871     6A    -11.233844
       7A     -1.470554     8A     -1.336637     9A     -1.202875
      10A     -1.029906    11A     -0.916678    12A     -0.804679
      13A     -0.714193    14A     -0.707165    15A     -0.672580
      16A     -0.635327    17A     -0.607583    18A     -0.590496
      19A     -0.547923    20A     -0.533381    21A     -0.513957
      22A     -0.470469    23A     -0.455395    24A     -0.419722

  @DF-RHF Final Energy:  -321.99010108985880

   => Energetics <=

    Nuclear Repulsion Energy =            248.8135461485688893
    One-Electron Energy =                -933.0552704485636468
    Two-Electron Energy =                 362.2516232101359606
    Total Energy =                       -321.9901010898587970
  Basis Set: (AUG-CC-PVTZ AUX)
    Blend: AUG-CC-PVTZ-RI
    Molecular point group: c1

    Geometry (in Angstrom), charge = 0, multiplicity = 1:

       Center              X                  Y                   Z               Mass
    ------------   -----------------  -----------------  -----------------  -----------------
         O           -1.565042780937     0.853853119831    -0.374324034175    15.994914619570
         O           -1.099799780937    -1.154843880169     0.567109965825    15.994914619570
         N            1.596756219063    -0.999531880169    -0.280492034175    14.003074004430
         C            0.717794219063     0.155913119831    -0.395769034175    12.000000000000
         C            1.243530219063     1.297972119831     0.474490965825    12.000000000000
         C           -0.705994580937    -0.109785780169    -0.037589134175    12.000000000000
         H            0.714182219063     0.485033119831    -1.441242034175     1.007825032230
         H            2.275007219063     1.513666119831     0.190233965825     1.007825032230
         H            0.634278219063     2.196300119831     0.356754965825     1.007825032230
         H            1.230650219063     1.002854119831     1.528946965825     1.007825032230
         H            1.252756219063    -1.743217880169    -0.888052034175     1.007825032230
         H            1.506145219063    -1.372293880169     0.665495965825     1.007825032230
         H           -2.452921780937     0.578484119831    -0.064297034175     1.007825032230

  Basis Set: AUG-CC-PVTZ
    Blend: AUG-CC-PVTZ
  Basis Set: (AUG-CC-PVTZ AUX)
    Blend: AUG-CC-PVTZ-JKFIT
	 Reference Energy          =    -321.9901010898587970 [Eh]
	 Singles Energy            =      -0.0000000000000000 [Eh]
	 Same-Spin Energy          =      -0.3178028316341053 [Eh]
	 Opposite-Spin Energy      =      -1.0014774838244920 [Eh]
	 Correlation Energy        =      -1.3192803154585973 [Eh]
	 Total Energy              =    -323.3093814053173674 [Eh]

	 ================> DF-SCS-MP2 Energies <==================
	-----------------------------------------------------------
	 SCS Same-Spin Scale       =       0.3333333333333333 [-]
	 SCS Opposite-Spin Scale   =       1.2000000000000000 [-]
	 SCS Same-Spin Energy      =      -0.1059342772113684 [Eh]
	 SCS Opposite-Spin Energy  =      -1.2017729805893904 [Eh]
	 SCS Correlation Energy    =      -1.3077072578007589 [Eh]
	 SCS Total Energy          =    -323.2978083476595543 [Eh]
	-----------------------------------------------------------

  Dipole Moment: [D]
     X:    -0.7497      Y:     1.3421      Z:    -0.4902     Total:     1.6136

*** Psi4 exiting successfully. Buy a developer a beer!
