                               Psi4 1.3.2 release

  ==> Input File <==

--------------------------------------------------------------------------
#psi4
#
memory 32 gb

molecule  {
0 1
  O        1.4293010    -1.0173190    -0.5083850
  O        1.2616920     1.0439120     0.4876630
  N       -1.5094500     1.1665790    -0.0160500
  C       -0.7841236    -0.0357803    -0.4194847
  C       -1.3403730    -1.2419500     0.4105850
  C        0.7294260     0.0826320    -0.0646510
  H       -0.8593930    -0.2237720    -1.4273650
  H       -2.4052960    -1.3157140     0.1877600
  H       -0.8411410    -2.1737420     0.1227770
  H       -1.2225590    -1.1039570     1.4923070
  H       -1.0898030     1.9609300    -0.5079820
  H       -1.4011654     1.4126522     0.9715474
  H        2.3653570    -0.8358360    -0.2741470
units angstrom
no_reorient  #important for SAPT in psi4, default
symmetry c1  #important for SAPT in psi4, default
}

set PROPERTIES_ORIGIN ["COM"]
properties('MP2/aug-cc-pvtz', properties = ['dipole'])
--------------------------------------------------------------------------

    Molecular point group: c1
  Charge       = 0
  Multiplicity = 1
  Basis Set: AUG-CC-PVTZ
    Blend: AUG-CC-PVTZ
  Basis Set: (AUG-CC-PVTZ AUX)
    Blend: AUG-CC-PVTZ-JKFIT

    Orbital Energies [Eh]
    ---------------------

    Doubly Occupied:

       1A    -20.621638     2A    -20.560193     3A    -15.551810
       4A    -11.394180     5A    -11.286215     6A    -11.233800
       7A     -1.455626     8A     -1.357686     9A     -1.195735
      10A     -1.016240    11A     -0.902064    12A     -0.801527
      13A     -0.709455    14A     -0.700189    15A     -0.666326
      16A     -0.623227    17A     -0.612867    18A     -0.601436
      19A     -0.547696    20A     -0.535477    21A     -0.512982
      22A     -0.485474    23A     -0.459155    24A     -0.409027

  @DF-RHF Final Energy:  -321.98757100308825

   => Energetics <=

    Nuclear Repulsion Energy =            246.9835238799577724
    One-Electron Energy =                -929.4621353859516830
    Two-Electron Energy =                 360.4910405029057188
    Total Energy =                       -321.9875710030882487
  Basis Set: (AUG-CC-PVTZ AUX)
    Blend: AUG-CC-PVTZ-RI
    Molecular point group: c1

    Geometry (in Angstrom), charge = 0, multiplicity = 1:

       Center              X                  Y                   Z               Mass
    ------------   -----------------  -----------------  -----------------  -----------------
         O            1.433032283215    -1.018695675434    -0.498620718290    15.994914619570
         O            1.265423283215     1.042535324566     0.497427281710    15.994914619570
         N           -1.505718716785     1.165202324566    -0.006285718290    14.003074004430
         C           -0.780392316785    -0.037156975434    -0.409720418290    12.000000000000
         C           -1.336641716785    -1.243326675434     0.420349281710    12.000000000000
         C            0.733157283215     0.081255324566    -0.054886718290    12.000000000000
         H           -0.855661716785    -0.225148675434    -1.417600718290     1.007825032230
         H           -2.401564716785    -1.317090675434     0.197524281710     1.007825032230
         H           -0.837409716785    -2.175118675434     0.132541281710     1.007825032230
         H           -1.218827716785    -1.105333675434     1.502071281710     1.007825032230
         H           -1.086071716785     1.959553324566    -0.498217718290     1.007825032230
         H           -1.397434116785     1.411275524566     0.981311681710     1.007825032230
         H            2.369088283215    -0.837212675434    -0.264382718290     1.007825032230

  Basis Set: AUG-CC-PVTZ
    Blend: AUG-CC-PVTZ
  Basis Set: (AUG-CC-PVTZ AUX)
    Blend: AUG-CC-PVTZ-JKFIT
	 Reference Energy          =    -321.9875710030882487 [Eh]
	 Singles Energy            =      -0.0000000000000000 [Eh]
	 Same-Spin Energy          =      -0.3168619189844838 [Eh]
	 Opposite-Spin Energy      =      -1.0008854194484367 [Eh]
	 Correlation Energy        =      -1.3177473384329206 [Eh]
	 Total Energy              =    -323.3053183415211720 [Eh]

	 ================> DF-SCS-MP2 Energies <==================
	-----------------------------------------------------------
	 SCS Same-Spin Scale       =       0.3333333333333333 [-]
	 SCS Opposite-Spin Scale   =       1.2000000000000000 [-]
	 SCS Same-Spin Energy      =      -0.1056206396614946 [Eh]
	 SCS Opposite-Spin Energy  =      -1.2010625033381239 [Eh]
	 SCS Correlation Energy    =      -1.3066831429996184 [Eh]
	 SCS Total Energy          =    -323.2942541460878942 [Eh]
	-----------------------------------------------------------

  Dipole Moment: [D]
     X:     0.5625      Y:    -1.1008      Z:    -0.3487     Total:     1.2844

*** Psi4 exiting successfully. Buy a developer a beer!
