                               Psi4 1.3.2 release

  ==> Input File <==

--------------------------------------------------------------------------
#psi4
#
memory 32 gb

molecule  {
0 1
  O        1.4293010    -1.0173190    -0.5083850
  O        1.2616920     1.0439120     0.4876630
  N       -1.4633758     1.2056247    -0.0629881
  C       -0.7590880    -0.0423940    -0.3475120
  C       -1.2847228    -1.2882047     0.3758149
  C        0.7294260     0.0826320    -0.0646510
  H       -0.8593930    -0.2237720    -1.4273650
  H       -2.4052960    -1.3157140     0.1877600
  H       -0.8411410    -2.1737420     0.1227770
  H       -1.2225590    -1.1039570     1.4923070
  H       -1.0898030     1.9609300    -0.5079820
  H       -1.3695700     1.3697580     0.9773170
  H        2.3653570    -0.8358360    -0.2741470
units angstrom
no_reorient  #important for SAPT in psi4, default
symmetry c1  #important for SAPT in psi4, default
}

set PROPERTIES_ORIGIN ["COM"]
properties('MP2/aug-cc-pvtz', properties = ['dipole'])
--------------------------------------------------------------------------

    Molecular point group: c1
  Charge       = 0
  Multiplicity = 1
  Basis Set: AUG-CC-PVTZ
    Blend: AUG-CC-PVTZ
  Basis Set: (AUG-CC-PVTZ AUX)
    Blend: AUG-CC-PVTZ-JKFIT

    Orbital Energies [Eh]
    ---------------------

    Doubly Occupied:

       1A    -20.621634     2A    -20.558849     3A    -15.549105
       4A    -11.392308     5A    -11.287522     6A    -11.237242
       7A     -1.456281     8A     -1.357806     9A     -1.201511
      10A     -1.029581    11A     -0.905407    12A     -0.793788
      13A     -0.712224    14A     -0.699758    15A     -0.686789
      16A     -0.627367    17A     -0.604593    18A     -0.594434
      19A     -0.564413    20A     -0.534995    21A     -0.503176
      22A     -0.485299    23A     -0.457816    24A     -0.411375

  @DF-RHF Final Energy:  -321.98150318962718

   => Energetics <=

    Nuclear Repulsion Energy =            248.1472895893372481
    One-Electron Energy =                -931.7110393978650791
    Two-Electron Energy =                 361.5822466189006832
    Total Energy =                       -321.9815031896271762
  Basis Set: (AUG-CC-PVTZ AUX)
    Blend: AUG-CC-PVTZ-RI
    Molecular point group: c1

    Geometry (in Angstrom), charge = 0, multiplicity = 1:

       Center              X                  Y                   Z               Mass
    ------------   -----------------  -----------------  -----------------  -----------------
         O            1.414556196072    -1.017225779485    -0.496318224344    15.994914619570
         O            1.246947196072     1.044005220515     0.499729775656    15.994914619570
         N           -1.478120603928     1.205717920515    -0.050921324344    14.003074004430
         C           -0.773832803928    -0.042300779485    -0.335445224344    12.000000000000
         C           -1.299467603928    -1.288111479485     0.387881675656    12.000000000000
         C            0.714681196072     0.082725220515    -0.052584224344    12.000000000000
         H           -0.874137803928    -0.223678779485    -1.415298224344     1.007825032230
         H           -2.420040803928    -1.315620779485     0.199826775656     1.007825032230
         H           -0.855885803928    -2.173648779485     0.134843775656     1.007825032230
         H           -1.237303803928    -1.103863779485     1.504373775656     1.007825032230
         H           -1.104547803928     1.961023220515    -0.495915224344     1.007825032230
         H           -1.384314803928     1.369851220515     0.989383775656     1.007825032230
         H            2.350612196072    -0.835742779485    -0.262080224344     1.007825032230

  Basis Set: AUG-CC-PVTZ
    Blend: AUG-CC-PVTZ
  Basis Set: (AUG-CC-PVTZ AUX)
    Blend: AUG-CC-PVTZ-JKFIT
	 Reference Energy          =    -321.9815031896271762 [Eh]
	 Singles Energy            =      -0.0000000000000000 [Eh]
	 Same-Spin Energy          =      -0.3171038721062771 [Eh]
	 Opposite-Spin Energy      =      -1.0007543828561976 [Eh]
	 Correlation Energy        =      -1.3178582549624747 [Eh]
	 Total Energy              =    -323.2993614445896355 [Eh]

	 ================> DF-SCS-MP2 Energies <==================
	-----------------------------------------------------------
	 SCS Same-Spin Scale       =       0.3333333333333333 [-]
	 SCS Opposite-Spin Scale   =       1.2000000000000000 [-]
	 SCS Same-Spin Energy      =      -0.1057012907020924 [Eh]
	 SCS Opposite-Spin Energy  =      -1.2009052594274370 [Eh]
	 SCS Correlation Energy    =      -1.3066065501295294 [Eh]
	 SCS Total Energy          =    -323.2881097397566919 [Eh]
	-----------------------------------------------------------

  Dipole Moment: [D]
     X:     0.4937      Y:    -1.2087      Z:    -0.2735     Total:     1.3340

*** Psi4 exiting successfully. Buy a developer a beer!
