                               Psi4 1.3.2 release

  ==> Input File <==

--------------------------------------------------------------------------
#psi4
#
memory 32 gb

molecule  {
0 1
  O        1.4293010    -1.0173190    -0.5083850
  O        1.2616920     1.0439120     0.4876630
  N       -1.5308899     1.1551083    -0.0237280
  C       -0.7590880    -0.0423940    -0.3475120
  C       -1.3403730    -1.2419500     0.4105850
  C        0.7329269     0.0578090    -0.0733464
  H       -0.8593930    -0.2237720    -1.4273650
  H       -2.4052960    -1.3157140     0.1877600
  H       -0.8411410    -2.1737420     0.1227770
  H       -1.2225590    -1.1039570     1.4923070
  H       -1.0898030     1.9609300    -0.5079820
  H       -1.3695700     1.3697580     0.9773170
  H        2.3653570    -0.8358360    -0.2741470
units angstrom
no_reorient  #important for SAPT in psi4, default
symmetry c1  #important for SAPT in psi4, default
}

set PROPERTIES_ORIGIN ["COM"]
properties('MP2/aug-cc-pvtz', properties = ['dipole'])
--------------------------------------------------------------------------

    Molecular point group: c1
  Charge       = 0
  Multiplicity = 1
  Basis Set: AUG-CC-PVTZ
    Blend: AUG-CC-PVTZ
  Basis Set: (AUG-CC-PVTZ AUX)
    Blend: AUG-CC-PVTZ-JKFIT

    Orbital Energies [Eh]
    ---------------------

    Doubly Occupied:

       1A    -20.630652     2A    -20.556626     3A    -15.557396
       4A    -11.397292     5A    -11.286031     6A    -11.232763
       7A     -1.465290     8A     -1.350541     9A     -1.197207
      10A     -1.022033    11A     -0.909532    12A     -0.798572
      13A     -0.712265    14A     -0.704044    15A     -0.669098
      16A     -0.629799    17A     -0.607522    18A     -0.591870
      19A     -0.549415    20A     -0.527592    21A     -0.511692
      22A     -0.479876    23A     -0.459120    24A     -0.420079

  @DF-RHF Final Energy:  -321.99021186396811

   => Energetics <=

    Nuclear Repulsion Energy =            247.5725246797212264
    One-Electron Energy =                -930.5928599722038825
    Two-Electron Energy =                 361.0301234285145142
    Total Energy =                       -321.9902118639681134
  Basis Set: (AUG-CC-PVTZ AUX)
    Blend: AUG-CC-PVTZ-RI
    Molecular point group: c1

    Geometry (in Angstrom), charge = 0, multiplicity = 1:

       Center              X                  Y                   Z               Mass
    ------------   -----------------  -----------------  -----------------  -----------------
         O            1.432200637406    -1.012170010538    -0.506005826543    15.994914619570
         O            1.264591637406     1.049060989462     0.490042173457    15.994914619570
         N           -1.527990262594     1.160257289462    -0.021348826543    14.003074004430
         C           -0.756188362594    -0.037245010538    -0.345132826543    12.000000000000
         C           -1.337473362594    -1.236801010538     0.412964173457    12.000000000000
         C            0.735826537406     0.062957989462    -0.070967226543    12.000000000000
         H           -0.856493362594    -0.218623010538    -1.424985826543     1.007825032230
         H           -2.402396362594    -1.310565010538     0.190139173457     1.007825032230
         H           -0.838241362594    -2.168593010538     0.125156173457     1.007825032230
         H           -1.219659362594    -1.098808010538     1.494686173457     1.007825032230
         H           -1.086903362594     1.966078989462    -0.505602826543     1.007825032230
         H           -1.366670362594     1.374906989462     0.979696173457     1.007825032230
         H            2.368256637406    -0.830687010538    -0.271767826543     1.007825032230

  Basis Set: AUG-CC-PVTZ
    Blend: AUG-CC-PVTZ
  Basis Set: (AUG-CC-PVTZ AUX)
    Blend: AUG-CC-PVTZ-JKFIT
	 Reference Energy          =    -321.9902118639681134 [Eh]
	 Singles Energy            =      -0.0000000000000000 [Eh]
	 Same-Spin Energy          =      -0.3177039605189457 [Eh]
	 Opposite-Spin Energy      =      -1.0022728424540901 [Eh]
	 Correlation Energy        =      -1.3199768029730357 [Eh]
	 Total Energy              =    -323.3101886669411442 [Eh]

	 ================> DF-SCS-MP2 Energies <==================
	-----------------------------------------------------------
	 SCS Same-Spin Scale       =       0.3333333333333333 [-]
	 SCS Opposite-Spin Scale   =       1.2000000000000000 [-]
	 SCS Same-Spin Energy      =      -0.1059013201729819 [Eh]
	 SCS Opposite-Spin Energy  =      -1.2027274109449080 [Eh]
	 SCS Correlation Energy    =      -1.3086287311178899 [Eh]
	 SCS Total Energy          =    -323.2988405950860056 [Eh]
	-----------------------------------------------------------

  Dipole Moment: [D]
     X:     0.6892      Y:    -1.3129      Z:    -0.3905     Total:     1.5333

*** Psi4 exiting successfully. Buy a developer a beer!
