                               Psi4 1.3.2 release

  ==> Input File <==

--------------------------------------------------------------------------
#psi4
#
memory 32 gb

molecule  {
0 1
  O        1.4293010    -1.0173190    -0.5083850
  O        1.2616920     1.0439120     0.4876630
  N       -1.5094500     1.1665790    -0.0160500
  C       -0.7590880    -0.0423940    -0.3475120
  C       -1.3403730    -1.2419500     0.4105850
  C        0.7294260     0.0826320    -0.0646510
  H       -0.8593930    -0.2237720    -1.4273650
  H       -2.4052960    -1.3157140     0.1877600
  H       -0.8411410    -2.1737420     0.1227770
  H       -1.2225590    -1.1039570     1.4923070
  H       -1.1037776     1.9378149    -0.5543058
  H       -1.3944069     1.3236831     0.9887930
  H        2.3653570    -0.8358360    -0.2741470
units angstrom
no_reorient  #important for SAPT in psi4, default
symmetry c1  #important for SAPT in psi4, default
}

set PROPERTIES_ORIGIN ["COM"]
properties('MP2/aug-cc-pvtz', properties = ['dipole'])
--------------------------------------------------------------------------

    Molecular point group: c1
  Charge       = 0
  Multiplicity = 1
  Basis Set: AUG-CC-PVTZ
    Blend: AUG-CC-PVTZ
  Basis Set: (AUG-CC-PVTZ AUX)
    Blend: AUG-CC-PVTZ-JKFIT

    Orbital Energies [Eh]
    ---------------------

    Doubly Occupied:

       1A    -20.622547     2A    -20.560350     3A    -15.552983
       4A    -11.394221     5A    -11.285217     6A    -11.233013
       7A     -1.457120     8A     -1.358786     9A     -1.198877
      10A     -1.020830    11A     -0.906913    12A     -0.790719
      13A     -0.711103    14A     -0.702421    15A     -0.676557
      16A     -0.627496    17A     -0.607166    18A     -0.596760
      19A     -0.550656    20A     -0.528782    21A     -0.513750
      22A     -0.485967    23A     -0.460823    24A     -0.413315

  @DF-RHF Final Energy:  -321.99323325327509

   => Energetics <=

    Nuclear Repulsion Energy =            247.8384566154835795
    One-Electron Energy =                -931.1506295147731862
    Two-Electron Energy =                 361.3189396460145417
    Total Energy =                       -321.9932332532750934
  Basis Set: (AUG-CC-PVTZ AUX)
    Blend: AUG-CC-PVTZ-RI
    Molecular point group: c1

    Geometry (in Angstrom), charge = 0, multiplicity = 1:

       Center              X                  Y                   Z               Mass
    ------------   -----------------  -----------------  -----------------  -----------------
         O            1.429740174552    -1.016535869971    -0.507990605035    15.994914619570
         O            1.262131174552     1.044695130029     0.488057394965    15.994914619570
         N           -1.509010825448     1.167362130029    -0.015655605035    14.003074004430
         C           -0.758648825448    -0.041610869971    -0.347117605035    12.000000000000
         C           -1.339933825448    -1.241166869971     0.410979394965    12.000000000000
         C            0.729865174552     0.083415130029    -0.064256605035    12.000000000000
         H           -0.858953825448    -0.222988869971    -1.426970605035     1.007825032230
         H           -2.404856825448    -1.314930869971     0.188154394965     1.007825032230
         H           -0.840701825448    -2.172958869971     0.123171394965     1.007825032230
         H           -1.222119825448    -1.103173869971     1.492701394965     1.007825032230
         H           -1.103338425448     1.938598030029    -0.553911405035     1.007825032230
         H           -1.393967725448     1.324466230029     0.989187394965     1.007825032230
         H            2.365796174551    -0.835052869971    -0.273752605035     1.007825032230

  Basis Set: AUG-CC-PVTZ
    Blend: AUG-CC-PVTZ
  Basis Set: (AUG-CC-PVTZ AUX)
    Blend: AUG-CC-PVTZ-JKFIT
	 Reference Energy          =    -321.9932332532750934 [Eh]
	 Singles Energy            =      -0.0000000000000000 [Eh]
	 Same-Spin Energy          =      -0.3172132398709251 [Eh]
	 Opposite-Spin Energy      =      -1.0012040725306279 [Eh]
	 Correlation Energy        =      -1.3184173124015530 [Eh]
	 Total Energy              =    -323.3116505656766435 [Eh]

	 ================> DF-SCS-MP2 Energies <==================
	-----------------------------------------------------------
	 SCS Same-Spin Scale       =       0.3333333333333333 [-]
	 SCS Opposite-Spin Scale   =       1.2000000000000000 [-]
	 SCS Same-Spin Energy      =      -0.1057377466236417 [Eh]
	 SCS Opposite-Spin Energy  =      -1.2014448870367536 [Eh]
	 SCS Correlation Energy    =      -1.3071826336603953 [Eh]
	 SCS Total Energy          =    -323.3004158869354683 [Eh]
	-----------------------------------------------------------

  Dipole Moment: [D]
     X:     0.5331      Y:    -1.1677      Z:    -0.3438     Total:     1.3289

*** Psi4 exiting successfully. Buy a developer a beer!
