                               Psi4 1.3.2 release

  ==> Input File <==

--------------------------------------------------------------------------
#psi4
#
memory 32 gb

molecule  {
0 1
  O        1.4293010    -1.0173190    -0.5083850
  O        1.2616920     1.0439120     0.4876630
  N       -1.5094500     1.1665790    -0.0160500
  C       -0.7590880    -0.0423940    -0.3475120
  C       -1.3403730    -1.2419500     0.4105850
  C        0.7707293     0.1014985    -0.0488768
  H       -0.8593930    -0.2237720    -1.4273650
  H       -2.4052960    -1.3157140     0.1877600
  H       -0.8411410    -2.1737420     0.1227770
  H       -1.2225590    -1.1039570     1.4923070
  H       -1.0898030     1.9609300    -0.5079820
  H       -1.3695700     1.3697580     0.9773170
  H        2.3555491    -0.8058985    -0.2606548
units angstrom
no_reorient  #important for SAPT in psi4, default
symmetry c1  #important for SAPT in psi4, default
}

set PROPERTIES_ORIGIN ["COM"]
properties('MP2/aug-cc-pvtz', properties = ['dipole'])
--------------------------------------------------------------------------

    Molecular point group: c1
  Charge       = 0
  Multiplicity = 1
  Basis Set: AUG-CC-PVTZ
    Blend: AUG-CC-PVTZ
  Basis Set: (AUG-CC-PVTZ AUX)
    Blend: AUG-CC-PVTZ-JKFIT

    Orbital Energies [Eh]
    ---------------------

    Doubly Occupied:

       1A    -20.622980     2A    -20.566782     3A    -15.551224
       4A    -11.390423     5A    -11.283724     6A    -11.229824
       7A     -1.469525     8A     -1.379858     9A     -1.195191
      10A     -1.014510    11A     -0.896394    12A     -0.787200
      13A     -0.717988    14A     -0.702099    15A     -0.672432
      16A     -0.631135    17A     -0.613526    18A     -0.595966
      19A     -0.553081    20A     -0.527862    21A     -0.509629
      22A     -0.499056    23A     -0.464013    24A     -0.408598

  @DF-RHF Final Energy:  -321.99463404680040

   => Energetics <=

    Nuclear Repulsion Energy =            247.9102375411030152
    One-Electron Energy =                -931.2437039505784924
    Two-Electron Energy =                 361.3388323626750775
    Total Energy =                       -321.9946340468003996
  Basis Set: (AUG-CC-PVTZ AUX)
    Blend: AUG-CC-PVTZ-RI
    Molecular point group: c1

    Geometry (in Angstrom), charge = 0, multiplicity = 1:

       Center              X                  Y                   Z               Mass
    ------------   -----------------  -----------------  -----------------  -----------------
         O            1.423845914722    -1.020200212281    -0.510663427799    15.994914619570
         O            1.256236914722     1.041030787719     0.485384572201    15.994914619570
         N           -1.514905085278     1.163697787719    -0.018328427799    14.003074004430
         C           -0.764543085278    -0.045275212281    -0.349790427799    12.000000000000
         C           -1.345828085278    -1.244831212281     0.408306572201    12.000000000000
         C            0.765274214722     0.098617287719    -0.051155227799    12.000000000000
         H           -0.864848085278    -0.226653212281    -1.429643427799     1.007825032230
         H           -2.410751085278    -1.318595212281     0.185481572201     1.007825032230
         H           -0.846596085278    -2.176623212281     0.120498572201     1.007825032230
         H           -1.228014085278    -1.106838212281     1.490028572201     1.007825032230
         H           -1.095258085278     1.958048787719    -0.510260427799     1.007825032230
         H           -1.375025085278     1.366876787719     0.975038572201     1.007825032230
         H            2.350094014722    -0.808779712281    -0.262933227799     1.007825032230

  Basis Set: AUG-CC-PVTZ
    Blend: AUG-CC-PVTZ
  Basis Set: (AUG-CC-PVTZ AUX)
    Blend: AUG-CC-PVTZ-JKFIT
	 Reference Energy          =    -321.9946340468003996 [Eh]
	 Singles Energy            =      -0.0000000000000000 [Eh]
	 Same-Spin Energy          =      -0.3163934729576429 [Eh]
	 Opposite-Spin Energy      =      -0.9996502880253457 [Eh]
	 Correlation Energy        =      -1.3160437609829887 [Eh]
	 Total Energy              =    -323.3106778077834065 [Eh]

	 ================> DF-SCS-MP2 Energies <==================
	-----------------------------------------------------------
	 SCS Same-Spin Scale       =       0.3333333333333333 [-]
	 SCS Opposite-Spin Scale   =       1.2000000000000000 [-]
	 SCS Same-Spin Energy      =      -0.1054644909858810 [Eh]
	 SCS Opposite-Spin Energy  =      -1.1995803456304148 [Eh]
	 SCS Correlation Energy    =      -1.3050448366162959 [Eh]
	 SCS Total Energy          =    -323.2996788834166750 [Eh]
	-----------------------------------------------------------

  Dipole Moment: [D]
     X:     0.7800      Y:    -0.9671      Z:    -0.2217     Total:     1.2621

*** Psi4 exiting successfully. Buy a developer a beer!
