                               Psi4 1.3.2 release

  ==> Input File <==

--------------------------------------------------------------------------
#psi4
#
memory 32 gb

molecule  {
0 1
  O        1.4293010    -1.0173190    -0.5083850
  O        1.2616920     1.0439120     0.4876630
  N       -1.5094500     1.1665790    -0.0160500
  C       -0.7421418    -0.0588536    -0.3600902
  C       -1.3403730    -1.2419500     0.4105850
  C        0.7294260     0.0826320    -0.0646510
  H       -0.8593930    -0.2237720    -1.4273650
  H       -2.4052960    -1.3157140     0.1877600
  H       -0.8300485    -2.1638794     0.1107226
  H       -1.2225590    -1.1039570     1.4923070
  H       -1.0898030     1.9609300    -0.5079820
  H       -1.3695700     1.3697580     0.9773170
  H        2.3653570    -0.8358360    -0.2741470
units angstrom
no_reorient  #important for SAPT in psi4, default
symmetry c1  #important for SAPT in psi4, default
}

set PROPERTIES_ORIGIN ["COM"]
properties('MP2/aug-cc-pvtz', properties = ['dipole'])
--------------------------------------------------------------------------

    Molecular point group: c1
  Charge       = 0
  Multiplicity = 1
  Basis Set: AUG-CC-PVTZ
    Blend: AUG-CC-PVTZ
  Basis Set: (AUG-CC-PVTZ AUX)
    Blend: AUG-CC-PVTZ-JKFIT

    Orbital Energies [Eh]
    ---------------------

    Doubly Occupied:

       1A    -20.623145     2A    -20.562116     3A    -15.552410
       4A    -11.395990     5A    -11.285151     6A    -11.233693
       7A     -1.458572     8A     -1.360163     9A     -1.192269
      10A     -1.023951    11A     -0.910070    12A     -0.792768
      13A     -0.712093    14A     -0.703222    15A     -0.668603
      16A     -0.626779    17A     -0.608074    18A     -0.596217
      19A     -0.552240    20A     -0.523722    21A     -0.516970
      22A     -0.487142    23A     -0.462154    24A     -0.416956

  @DF-RHF Final Energy:  -321.99312331585247

   => Energetics <=

    Nuclear Repulsion Energy =            247.8130283300007477
    One-Electron Energy =                -931.0833661414591234
    Two-Electron Energy =                 361.2772144956059037
    Total Energy =                       -321.9931233158524719
  Basis Set: (AUG-CC-PVTZ AUX)
    Blend: AUG-CC-PVTZ-RI
    Molecular point group: c1

    Geometry (in Angstrom), charge = 0, multiplicity = 1:

       Center              X                  Y                   Z               Mass
    ------------   -----------------  -----------------  -----------------  -----------------
         O            1.426891712865    -1.015212488914    -0.506553547460    15.994914619570
         O            1.259282712865     1.046018511086     0.489494452540    15.994914619570
         N           -1.511859287135     1.168685511086    -0.014218547460    14.003074004430
         C           -0.744551087135    -0.056747088914    -0.358258747460    12.000000000000
         C           -1.342782287135    -1.239843488914     0.412416452540    12.000000000000
         C            0.727016712865     0.084738511086    -0.062819547460    12.000000000000
         H           -0.861802287135    -0.221665488914    -1.425533547460     1.007825032230
         H           -2.407705287135    -1.313607488914     0.189591452540     1.007825032230
         H           -0.832457787135    -2.161772888914     0.112554052540     1.007825032230
         H           -1.224968287135    -1.101850488914     1.494138452540     1.007825032230
         H           -1.092212287135     1.963036511086    -0.506150547460     1.007825032230
         H           -1.371979287135     1.371864511086     0.979148452540     1.007825032230
         H            2.362947712865    -0.833729488914    -0.272315547460     1.007825032230

  Basis Set: AUG-CC-PVTZ
    Blend: AUG-CC-PVTZ
  Basis Set: (AUG-CC-PVTZ AUX)
    Blend: AUG-CC-PVTZ-JKFIT
	 Reference Energy          =    -321.9931233158524719 [Eh]
	 Singles Energy            =      -0.0000000000000000 [Eh]
	 Same-Spin Energy          =      -0.3171856412732365 [Eh]
	 Opposite-Spin Energy      =      -1.0014722406432712 [Eh]
	 Correlation Energy        =      -1.3186578819165078 [Eh]
	 Total Energy              =    -323.3117811977689939 [Eh]

	 ================> DF-SCS-MP2 Energies <==================
	-----------------------------------------------------------
	 SCS Same-Spin Scale       =       0.3333333333333333 [-]
	 SCS Opposite-Spin Scale   =       1.2000000000000000 [-]
	 SCS Same-Spin Energy      =      -0.1057285470910788 [Eh]
	 SCS Opposite-Spin Energy  =      -1.2017666887719254 [Eh]
	 SCS Correlation Energy    =      -1.3074952358630041 [Eh]
	 SCS Total Energy          =    -323.3006185517155018 [Eh]
	-----------------------------------------------------------

  Dipole Moment: [D]
     X:     0.6369      Y:    -1.1853      Z:    -0.3280     Total:     1.3850

*** Psi4 exiting successfully. Buy a developer a beer!
