                               Psi4 1.3.2 release

  ==> Input File <==

--------------------------------------------------------------------------
#psi4
#
memory 32 gb

molecule  {
0 1
  O        1.4087373    -1.0269727    -0.5162379
  O        1.2616920     1.0439120     0.4876630
  N       -1.5094500     1.1665790    -0.0160500
  C       -0.7547443    -0.0660789    -0.3586567
  C       -1.3403730    -1.2419500     0.4105850
  C        0.7294260     0.0826320    -0.0646510
  H       -0.8593930    -0.2237720    -1.4273650
  H       -2.4052960    -1.3157140     0.1877600
  H       -0.8411410    -2.1737420     0.1227770
  H       -1.2225590    -1.1039570     1.4923070
  H       -1.0898030     1.9609300    -0.5079820
  H       -1.3695700     1.3697580     0.9773170
  H        2.3653570    -0.8358360    -0.2741470
units angstrom
no_reorient  #important for SAPT in psi4, default
symmetry c1  #important for SAPT in psi4, default
}

set PROPERTIES_ORIGIN ["COM"]
properties('MP2/aug-cc-pvtz', properties = ['dipole'])
--------------------------------------------------------------------------

    Molecular point group: c1
  Charge       = 0
  Multiplicity = 1
  Basis Set: AUG-CC-PVTZ
    Blend: AUG-CC-PVTZ
  Basis Set: (AUG-CC-PVTZ AUX)
    Blend: AUG-CC-PVTZ-JKFIT

    Orbital Energies [Eh]
    ---------------------

    Doubly Occupied:

       1A    -20.625919     2A    -20.563153     3A    -15.551561
       4A    -11.395952     5A    -11.284815     6A    -11.232528
       7A     -1.455959     8A     -1.359664     9A     -1.191716
      10A     -1.023580    11A     -0.906679    12A     -0.788904
      13A     -0.710637    14A     -0.701541    15A     -0.668824
      16A     -0.626371    17A     -0.606857    18A     -0.596141
      19A     -0.551390    20A     -0.525144    21A     -0.517997
      22A     -0.488553    23A     -0.461703    24A     -0.414346

  @DF-RHF Final Energy:  -321.99063778979263

   => Energetics <=

    Nuclear Repulsion Energy =            247.7020950250829401
    One-Electron Energy =                -930.8855972597634718
    Two-Electron Energy =                 361.1928644448879027
    Total Energy =                       -321.9906377897926291
  Basis Set: (AUG-CC-PVTZ AUX)
    Blend: AUG-CC-PVTZ-RI
    Molecular point group: c1

    Geometry (in Angstrom), charge = 0, multiplicity = 1:

       Center              X                  Y                   Z               Mass
    ------------   -----------------  -----------------  -----------------  -----------------
         O            1.411845550586    -1.022046873613    -0.513325501380    15.994914619570
         O            1.264800250586     1.048837826387     0.490575398620    15.994914619570
         N           -1.506341749414     1.171504826387    -0.013137601380    14.003074004430
         C           -0.751636049414    -0.061153073613    -0.355744301380    12.000000000000
         C           -1.337264749414    -1.237024173613     0.413497398620    12.000000000000
         C            0.732534250586     0.087557826387    -0.061738601380    12.000000000000
         H           -0.856284749414    -0.218846173613    -1.424452601380     1.007825032230
         H           -2.402187749414    -1.310788173613     0.190672398620     1.007825032230
         H           -0.838032749414    -2.168816173613     0.125689398620     1.007825032230
         H           -1.219450749414    -1.099031173613     1.495219398620     1.007825032230
         H           -1.086694749414     1.965855826387    -0.505069601380     1.007825032230
         H           -1.366461749414     1.374683826387     0.980229398620     1.007825032230
         H            2.368465250586    -0.830910173613    -0.271234601380     1.007825032230

  Basis Set: AUG-CC-PVTZ
    Blend: AUG-CC-PVTZ
  Basis Set: (AUG-CC-PVTZ AUX)
    Blend: AUG-CC-PVTZ-JKFIT
	 Reference Energy          =    -321.9906377897926291 [Eh]
	 Singles Energy            =      -0.0000000000000000 [Eh]
	 Same-Spin Energy          =      -0.3176240860757050 [Eh]
	 Opposite-Spin Energy      =      -1.0023883395536659 [Eh]
	 Correlation Energy        =      -1.3200124256293710 [Eh]
	 Total Energy              =    -323.3106502154220152 [Eh]

	 ================> DF-SCS-MP2 Energies <==================
	-----------------------------------------------------------
	 SCS Same-Spin Scale       =       0.3333333333333333 [-]
	 SCS Opposite-Spin Scale   =       1.2000000000000000 [-]
	 SCS Same-Spin Energy      =      -0.1058746953585683 [Eh]
	 SCS Opposite-Spin Energy  =      -1.2028660074643991 [Eh]
	 SCS Correlation Energy    =      -1.3087407028229674 [Eh]
	 SCS Total Energy          =    -323.2993784926155740 [Eh]
	-----------------------------------------------------------

  Dipole Moment: [D]
     X:     0.6891      Y:    -1.1960      Z:    -0.3182     Total:     1.4165

*** Psi4 exiting successfully. Buy a developer a beer!
