                               Psi4 1.3.2 release

  ==> Input File <==

--------------------------------------------------------------------------
#psi4
#
memory 32 gb

molecule  {
0 1
  O        1.4293010    -1.0173190    -0.5083850
  O        1.2616920     1.0439120     0.4876630
  N       -1.5094500     1.1665790    -0.0160500
  C       -0.7590880    -0.0423940    -0.3475120
  C       -1.3403730    -1.2419500     0.4105850
  C        0.7389502     0.0747237    -0.1162527
  H       -0.8211703    -0.2222550    -1.4304882
  H       -2.4052960    -1.3157140     0.1877600
  H       -0.8411410    -2.1737420     0.1227770
  H       -1.2225590    -1.1039570     1.4923070
  H       -1.0898030     1.9609300    -0.5079820
  H       -1.3695700     1.3697580     0.9773170
  H        2.3653570    -0.8358360    -0.2741470
units angstrom
no_reorient  #important for SAPT in psi4, default
symmetry c1  #important for SAPT in psi4, default
}

set PROPERTIES_ORIGIN ["COM"]
properties('MP2/aug-cc-pvtz', properties = ['dipole'])
--------------------------------------------------------------------------

    Molecular point group: c1
  Charge       = 0
  Multiplicity = 1
  Basis Set: AUG-CC-PVTZ
    Blend: AUG-CC-PVTZ
  Basis Set: (AUG-CC-PVTZ AUX)
    Blend: AUG-CC-PVTZ-JKFIT

    Orbital Energies [Eh]
    ---------------------

    Doubly Occupied:

       1A    -20.630768     2A    -20.554761     3A    -15.553283
       4A    -11.396020     5A    -11.286486     6A    -11.233901
       7A     -1.465387     8A     -1.347352     9A     -1.197944
      10A     -1.022926    11A     -0.911953    12A     -0.799195
      13A     -0.711580    14A     -0.700753    15A     -0.673316
      16A     -0.630425    17A     -0.607987    18A     -0.592896
      19A     -0.549844    20A     -0.529330    21A     -0.514576
      22A     -0.477803    23A     -0.456747    24A     -0.416137

  @DF-RHF Final Energy:  -321.99009330656395

   => Energetics <=

    Nuclear Repulsion Energy =            247.6930050185535208
    One-Electron Energy =                -930.8434563991374944
    Two-Electron Energy =                 361.1603580740199959
    Total Energy =                       -321.9900933065639492
  Basis Set: (AUG-CC-PVTZ AUX)
    Blend: AUG-CC-PVTZ-RI
    Molecular point group: c1

    Geometry (in Angstrom), charge = 0, multiplicity = 1:

       Center              X                  Y                   Z               Mass
    ------------   -----------------  -----------------  -----------------  -----------------
         O            1.427584841606    -1.016270401899    -0.501395850808    15.994914619570
         O            1.259975841606     1.044960598101     0.494652149192    15.994914619570
         N           -1.511166158394     1.167627598101    -0.009060850808    14.003074004430
         C           -0.760804158394    -0.041345401899    -0.340522850808    12.000000000000
         C           -1.342089158394    -1.240901401899     0.417574149192    12.000000000000
         C            0.737234041606     0.075772298101    -0.109263550808    12.000000000000
         H           -0.822886458394    -0.221206401899    -1.423499050808     1.007825032230
         H           -2.407012158394    -1.314665401899     0.194749149192     1.007825032230
         H           -0.842857158394    -2.172693401899     0.129766149192     1.007825032230
         H           -1.224275158394    -1.102908401899     1.499296149192     1.007825032230
         H           -1.091519158394     1.961978598101    -0.500992850808     1.007825032230
         H           -1.371286158394     1.370806598101     0.984306149192     1.007825032230
         H            2.363640841606    -0.834787401899    -0.267157850808     1.007825032230

  Basis Set: AUG-CC-PVTZ
    Blend: AUG-CC-PVTZ
  Basis Set: (AUG-CC-PVTZ AUX)
    Blend: AUG-CC-PVTZ-JKFIT
	 Reference Energy          =    -321.9900933065639492 [Eh]
	 Singles Energy            =      -0.0000000000000000 [Eh]
	 Same-Spin Energy          =      -0.3175826281139911 [Eh]
	 Opposite-Spin Energy      =      -1.0017556995253649 [Eh]
	 Correlation Energy        =      -1.3193383276393560 [Eh]
	 Total Energy              =    -323.3094316342032926 [Eh]

	 ================> DF-SCS-MP2 Energies <==================
	-----------------------------------------------------------
	 SCS Same-Spin Scale       =       0.3333333333333333 [-]
	 SCS Opposite-Spin Scale   =       1.2000000000000000 [-]
	 SCS Same-Spin Energy      =      -0.1058608760379970 [Eh]
	 SCS Opposite-Spin Energy  =      -1.2021068394304379 [Eh]
	 SCS Correlation Energy    =      -1.3079677154684350 [Eh]
	 SCS Total Energy          =    -323.2980610220323570 [Eh]
	-----------------------------------------------------------

  Dipole Moment: [D]
     X:     0.6513      Y:    -1.3370      Z:    -0.4362     Total:     1.5498

*** Psi4 exiting successfully. Buy a developer a beer!
