                               Psi4 1.3.2 release

  ==> Input File <==

--------------------------------------------------------------------------
#psi4
#
memory 32 gb

molecule  {
0 1
  O        1.4293010    -1.0173190    -0.5083850
  O        1.2230948     1.0623950     0.4910221
  N       -1.5094500     1.1665790    -0.0160500
  C       -0.7663830     0.0051862    -0.3251761
  C       -1.3403730    -1.2419500     0.4105850
  C        0.7294260     0.0826320    -0.0646510
  H       -0.8593930    -0.2237720    -1.4273650
  H       -2.4052960    -1.3157140     0.1877600
  H       -0.8411410    -2.1737420     0.1227770
  H       -1.2225590    -1.1039570     1.4923070
  H       -1.0898030     1.9609300    -0.5079820
  H       -1.3695700     1.3697580     0.9773170
  H        2.3653570    -0.8358360    -0.2741470
units angstrom
no_reorient  #important for SAPT in psi4, default
symmetry c1  #important for SAPT in psi4, default
}

set PROPERTIES_ORIGIN ["COM"]
properties('MP2/aug-cc-pvtz', properties = ['dipole'])
--------------------------------------------------------------------------

    Molecular point group: c1
  Charge       = 0
  Multiplicity = 1
  Basis Set: AUG-CC-PVTZ
    Blend: AUG-CC-PVTZ
  Basis Set: (AUG-CC-PVTZ AUX)
    Blend: AUG-CC-PVTZ-JKFIT

    Orbital Energies [Eh]
    ---------------------

    Doubly Occupied:

       1A    -20.626730     2A    -20.559512     3A    -15.553533
       4A    -11.393639     5A    -11.284859     6A    -11.232115
       7A     -1.457314     8A     -1.361984     9A     -1.212347
      10A     -1.016140    11A     -0.903826    12A     -0.791882
      13A     -0.711775    14A     -0.703518    15A     -0.678560
      16A     -0.626912    17A     -0.612205    18A     -0.594359
      19A     -0.550168    20A     -0.536352    21A     -0.501493
      22A     -0.482724    23A     -0.461580    24A     -0.415114

  @DF-RHF Final Energy:  -321.99028550002623

   => Energetics <=

    Nuclear Repulsion Energy =            248.2469260199698908
    One-Electron Energy =                -931.9371413697137996
    Two-Electron Energy =                 361.6999298497176483
    Total Energy =                       -321.9902855000262321
  Basis Set: (AUG-CC-PVTZ AUX)
    Blend: AUG-CC-PVTZ-RI
    Molecular point group: c1

    Geometry (in Angstrom), charge = 0, multiplicity = 1:

       Center              X                  Y                   Z               Mass
    ------------   -----------------  -----------------  -----------------  -----------------
         O            1.437216885104    -1.027050774312    -0.511998343463    15.994914619570
         O            1.231010685104     1.052663225688     0.487408756537    15.994914619570
         N           -1.501534114896     1.156847225688    -0.019663343463    14.003074004430
         C           -0.758467114896    -0.004545574312    -0.328789443463    12.000000000000
         C           -1.332457114896    -1.251681774312     0.406971656537    12.000000000000
         C            0.737341885104     0.072900225688    -0.068264343463    12.000000000000
         H           -0.851477114896    -0.233503774312    -1.430978343463     1.007825032230
         H           -2.397380114896    -1.325445774312     0.184146656537     1.007825032230
         H           -0.833225114896    -2.183473774312     0.119163656537     1.007825032230
         H           -1.214643114896    -1.113688774312     1.488693656537     1.007825032230
         H           -1.081887114896     1.951198225688    -0.511595343463     1.007825032230
         H           -1.361654114896     1.360026225688     0.973703656537     1.007825032230
         H            2.373272885104    -0.845567774312    -0.277760343463     1.007825032230

  Basis Set: AUG-CC-PVTZ
    Blend: AUG-CC-PVTZ
  Basis Set: (AUG-CC-PVTZ AUX)
    Blend: AUG-CC-PVTZ-JKFIT
	 Reference Energy          =    -321.9902855000262321 [Eh]
	 Singles Energy            =      -0.0000000000000000 [Eh]
	 Same-Spin Energy          =      -0.3175039025123081 [Eh]
	 Opposite-Spin Energy      =      -1.0013348273050982 [Eh]
	 Correlation Energy        =      -1.3188387298174062 [Eh]
	 Total Energy              =    -323.3091242298436327 [Eh]

	 ================> DF-SCS-MP2 Energies <==================
	-----------------------------------------------------------
	 SCS Same-Spin Scale       =       0.3333333333333333 [-]
	 SCS Opposite-Spin Scale   =       1.2000000000000000 [-]
	 SCS Same-Spin Energy      =      -0.1058346341707694 [Eh]
	 SCS Opposite-Spin Energy  =      -1.2016017927661178 [Eh]
	 SCS Correlation Energy    =      -1.3074364269368872 [Eh]
	 SCS Total Energy          =    -323.2977219269631064 [Eh]
	-----------------------------------------------------------

  Dipole Moment: [D]
     X:     0.6460      Y:    -1.0744      Z:    -0.3027     Total:     1.2897

*** Psi4 exiting successfully. Buy a developer a beer!
