                               Psi4 1.3.2 release

  ==> Input File <==

--------------------------------------------------------------------------
#psi4
#
memory 32 gb

molecule  {
0 1
  O        1.4698098    -0.9969175    -0.4924616
  O        1.2996681     1.0243504     0.4834434
  N       -1.5094500     1.1665790    -0.0160500
  C       -0.7590880    -0.0423940    -0.3475120
  C       -1.3403730    -1.2419500     0.4105850
  C        0.7294260     0.0826320    -0.0646510
  H       -0.8593930    -0.2237720    -1.4273650
  H       -2.4052960    -1.3157140     0.1877600
  H       -0.8411410    -2.1737420     0.1227770
  H       -1.2225590    -1.1039570     1.4923070
  H       -1.0898030     1.9609300    -0.5079820
  H       -1.3695700     1.3697580     0.9773170
  H        2.3653570    -0.8358360    -0.2741470
units angstrom
no_reorient  #important for SAPT in psi4, default
symmetry c1  #important for SAPT in psi4, default
}

set PROPERTIES_ORIGIN ["COM"]
properties('MP2/aug-cc-pvtz', properties = ['dipole'])
--------------------------------------------------------------------------

    Molecular point group: c1
  Charge       = 0
  Multiplicity = 1
  Basis Set: AUG-CC-PVTZ
    Blend: AUG-CC-PVTZ
  Basis Set: (AUG-CC-PVTZ AUX)
    Blend: AUG-CC-PVTZ-JKFIT

    Orbital Energies [Eh]
    ---------------------

    Doubly Occupied:

       1A    -20.612908     2A    -20.558177     3A    -15.556421
       4A    -11.394828     5A    -11.290537     6A    -11.235107
       7A     -1.462231     8A     -1.356737     9A     -1.202514
      10A     -1.025412    11A     -0.911666    12A     -0.801528
      13A     -0.712177    14A     -0.702160    15A     -0.674715
      16A     -0.625802    17A     -0.610322    18A     -0.596836
      19A     -0.551225    20A     -0.531481    21A     -0.514858
      22A     -0.483434    23A     -0.461647    24A     -0.419762

  @DF-RHF Final Energy:  -321.99570926108493

   => Energetics <=

    Nuclear Repulsion Energy =            247.6838584016475124
    One-Electron Energy =                -930.7741657495993195
    Two-Electron Energy =                 361.0945980868668812
    Total Energy =                       -321.9957092610849259
  Basis Set: (AUG-CC-PVTZ AUX)
    Blend: AUG-CC-PVTZ-RI
    Molecular point group: c1

    Geometry (in Angstrom), charge = 0, multiplicity = 1:

       Center              X                  Y                   Z               Mass
    ------------   -----------------  -----------------  -----------------  -----------------
         O            1.455712105113    -0.997068313945    -0.494563864922    15.994914619570
         O            1.285570405113     1.024199586055     0.481341135078    15.994914619570
         N           -1.523547694887     1.166428186055    -0.018152264922    14.003074004430
         C           -0.773185694887    -0.042544813945    -0.349614264922    12.000000000000
         C           -1.354470694887    -1.242100813945     0.408482735078    12.000000000000
         C            0.715328305113     0.082481186055    -0.066753264922    12.000000000000
         H           -0.873490694887    -0.223922813945    -1.429467264922     1.007825032230
         H           -2.419393694887    -1.315864813945     0.185657735078     1.007825032230
         H           -0.855238694887    -2.173892813945     0.120674735078     1.007825032230
         H           -1.236656694887    -1.104107813945     1.490204735078     1.007825032230
         H           -1.103900694887     1.960779186055    -0.510084264922     1.007825032230
         H           -1.383667694887     1.369607186055     0.975214735078     1.007825032230
         H            2.351259305113    -0.835986813945    -0.276249264922     1.007825032230

  Basis Set: AUG-CC-PVTZ
    Blend: AUG-CC-PVTZ
  Basis Set: (AUG-CC-PVTZ AUX)
    Blend: AUG-CC-PVTZ-JKFIT
	 Reference Energy          =    -321.9957092610849259 [Eh]
	 Singles Energy            =      -0.0000000000000000 [Eh]
	 Same-Spin Energy          =      -0.3161775885279380 [Eh]
	 Opposite-Spin Energy      =      -0.9990958517319449 [Eh]
	 Correlation Energy        =      -1.3152734402598829 [Eh]
	 Total Energy              =    -323.3109827013448125 [Eh]

	 ================> DF-SCS-MP2 Energies <==================
	-----------------------------------------------------------
	 SCS Same-Spin Scale       =       0.3333333333333333 [-]
	 SCS Opposite-Spin Scale   =       1.2000000000000000 [-]
	 SCS Same-Spin Energy      =      -0.1053925295093127 [Eh]
	 SCS Opposite-Spin Energy  =      -1.1989150220783338 [Eh]
	 SCS Correlation Energy    =      -1.3043075515876463 [Eh]
	 SCS Total Energy          =    -323.3000168126725953 [Eh]
	-----------------------------------------------------------

  Dipole Moment: [D]
     X:     0.3546      Y:    -1.1056      Z:    -0.3192     Total:     1.2042

*** Psi4 exiting successfully. Buy a developer a beer!
