                               Psi4 1.3.2 release

  ==> Input File <==

--------------------------------------------------------------------------
#psi4
#
memory 32 gb

molecule  {
0 1
  O        1.4293010    -1.0173190    -0.5083850
  O        1.2616920     1.0439120     0.4876630
  N       -1.5094500     1.1665790    -0.0160500
  C       -0.7935063    -0.0105759    -0.3216667
  C       -1.3403730    -1.2419500     0.4105850
  C        0.7294260     0.0826320    -0.0646510
  H       -0.8593930    -0.2237720    -1.4273650
  H       -2.4052960    -1.3157140     0.1877600
  H       -0.8637789    -2.1926128     0.1471450
  H       -1.2225590    -1.1039570     1.4923070
  H       -1.0898030     1.9609300    -0.5079820
  H       -1.3695700     1.3697580     0.9773170
  H        2.3653570    -0.8358360    -0.2741470
units angstrom
no_reorient  #important for SAPT in psi4, default
symmetry c1  #important for SAPT in psi4, default
}

set PROPERTIES_ORIGIN ["COM"]
properties('MP2/aug-cc-pvtz', properties = ['dipole'])
--------------------------------------------------------------------------

    Molecular point group: c1
  Charge       = 0
  Multiplicity = 1
  Basis Set: AUG-CC-PVTZ
    Blend: AUG-CC-PVTZ
  Basis Set: (AUG-CC-PVTZ AUX)
    Blend: AUG-CC-PVTZ-JKFIT

    Orbital Energies [Eh]
    ---------------------

    Doubly Occupied:

       1A    -20.622562     2A    -20.558740     3A    -15.555081
       4A    -11.392744     5A    -11.288651     6A    -11.232004
       7A     -1.455737     8A     -1.357884     9A     -1.214731
      10A     -1.019025    11A     -0.900905    12A     -0.792202
      13A     -0.709396    14A     -0.701023    15A     -0.680839
      16A     -0.625345    17A     -0.611841    18A     -0.595838
      19A     -0.548615    20A     -0.541100    21A     -0.502927
      22A     -0.484679    23A     -0.462070    24A     -0.412689

  @DF-RHF Final Energy:  -321.99140302110754

   => Energetics <=

    Nuclear Repulsion Energy =            247.8259341772619564
    One-Electron Energy =                -931.1014207687039743
    Two-Electron Energy =                 361.2840835703344737
    Total Energy =                       -321.9914030211075442
  Basis Set: (AUG-CC-PVTZ AUX)
    Blend: AUG-CC-PVTZ-RI
    Molecular point group: c1

    Geometry (in Angstrom), charge = 0, multiplicity = 1:

       Center              X                  Y                   Z               Mass
    ------------   -----------------  -----------------  -----------------  -----------------
         O            1.434195309687    -1.021393157177    -0.512143692144    15.994914619570
         O            1.266586309687     1.039837842823     0.483904307856    15.994914619570
         N           -1.504555690313     1.162504842823    -0.019808692144    14.003074004430
         C           -0.788611990313    -0.014650057177    -0.325425392144    12.000000000000
         C           -1.335478690313    -1.246024157177     0.406826307856    12.000000000000
         C            0.734320309687     0.078557842823    -0.068409692144    12.000000000000
         H           -0.854498690313    -0.227846157177    -1.431123692144     1.007825032230
         H           -2.400401690313    -1.319788157177     0.184001307856     1.007825032230
         H           -0.858884590313    -2.196686957177     0.143386307856     1.007825032230
         H           -1.217664690313    -1.108031157177     1.488548307856     1.007825032230
         H           -1.084908690313     1.956855842823    -0.511740692144     1.007825032230
         H           -1.364675690313     1.365683842823     0.973558307856     1.007825032230
         H            2.370251309687    -0.839910157177    -0.277905692144     1.007825032230

  Basis Set: AUG-CC-PVTZ
    Blend: AUG-CC-PVTZ
  Basis Set: (AUG-CC-PVTZ AUX)
    Blend: AUG-CC-PVTZ-JKFIT
	 Reference Energy          =    -321.9914030211075442 [Eh]
	 Singles Energy            =      -0.0000000000000000 [Eh]
	 Same-Spin Energy          =      -0.3173177021961325 [Eh]
	 Opposite-Spin Energy      =      -1.0008872615062765 [Eh]
	 Correlation Energy        =      -1.3182049637024089 [Eh]
	 Total Energy              =    -323.3096079848099293 [Eh]

	 ================> DF-SCS-MP2 Energies <==================
	-----------------------------------------------------------
	 SCS Same-Spin Scale       =       0.3333333333333333 [-]
	 SCS Opposite-Spin Scale   =       1.2000000000000000 [-]
	 SCS Same-Spin Energy      =      -0.1057725673987108 [Eh]
	 SCS Opposite-Spin Energy  =      -1.2010647138075317 [Eh]
	 SCS Correlation Energy    =      -1.3068372812062425 [Eh]
	 SCS Total Energy          =    -323.2982403023137863 [Eh]
	-----------------------------------------------------------

  Dipole Moment: [D]
     X:     0.5050      Y:    -1.0570      Z:    -0.2872     Total:     1.2062

*** Psi4 exiting successfully. Buy a developer a beer!
