                               Psi4 1.4a3.dev225

  ==> Input File <==

--------------------------------------------------------------------------
#psi4
#
memory 32 gb

molecule  {
0 1
  O       -1.6162430     0.8314800    -0.3809140
  O       -1.1510000    -1.1772170     0.5605200
  N        1.5455560    -1.0219050    -0.2870820
  C        0.6665940     0.1335400    -0.4023590
  C        1.1923300     1.2755990     0.4679010
  C       -0.8200316    -0.1833938    -0.0078100
  H        0.6629820     0.4626600    -1.4478320
  H        2.2238070     1.4912930     0.1836440
  H        0.5830780     2.1739270     0.3501650
  H        1.1794500     0.9804810     1.5223570
  H        1.2015560    -1.7655910    -0.8946420
  H        1.4549450    -1.3946670     0.6589060
  H       -2.5041220     0.5561110    -0.0708870
units angstrom
no_reorient  #important for SAPT in psi4, default
symmetry c1  #important for SAPT in psi4, default
}

set PROPERTIES_ORIGIN ["COM"]
properties('MP2/aug-cc-pvtz', properties = ['dipole'])
--------------------------------------------------------------------------

    Molecular point group: c1
  Charge       = 0
  Multiplicity = 1
  Basis Set: AUG-CC-PVTZ
    Blend: AUG-CC-PVTZ
  Basis Set: (AUG-CC-PVTZ AUX)
    Blend: AUG-CC-PVTZ-JKFIT

    Orbital Energies [Eh]
    ---------------------

    Doubly Occupied:

       1A    -20.626295     2A    -20.560272     3A    -15.549430
       4A    -11.386250     5A    -11.280785     6A    -11.227763
       7A     -1.478484     8A     -1.381116     9A     -1.196136
      10A     -1.015347    11A     -0.898592    12A     -0.794910
      13A     -0.718565    14A     -0.707120    15A     -0.671701
      16A     -0.639123    17A     -0.611182    18A     -0.594902
      19A     -0.550754    20A     -0.529657    21A     -0.508320
      22A     -0.496079    23A     -0.461968    24A     -0.406793

  @DF-RHF Final Energy:  -321.99784631204926

   => Energetics <=

    Nuclear Repulsion Energy =            248.8731165610995220
    One-Electron Energy =                -933.1588403495863986
    Two-Electron Energy =                 362.2878774764375862
    Total Energy =                       -321.9978463120492620
  Basis Set: (AUG-CC-PVTZ AUX)
    Blend: AUG-CC-PVTZ-RI
    Molecular point group: c1

    Geometry (in Angstrom), charge = 0, multiplicity = 1:

       Center              X                  Y                   Z               Mass
    ------------   -----------------  -----------------  -----------------  -----------------
         O           -1.556574939743     0.860757497470    -0.379225107482    15.994914619570
         O           -1.091331939743    -1.147939502530     0.562208892518    15.994914619570
         N            1.605224060257    -0.992627502530    -0.285393107482    14.003074004430
         C            0.726262060257     0.162817497470    -0.400670107482    12.000000000000
         C            1.251998060257     1.304876497470     0.469589892518    12.000000000000
         C           -0.760363539743    -0.154116302530    -0.006121107482    12.000000000000
         H            0.722650060257     0.491937497470    -1.446143107482     1.007825032230
         H            2.283475060257     1.520570497470     0.185332892518     1.007825032230
         H            0.642746060257     2.203204497470     0.351853892518     1.007825032230
         H            1.239118060257     1.009758497470     1.524045892518     1.007825032230
         H            1.261224060257    -1.736313502530    -0.892953107482     1.007825032230
         H            1.514613060257    -1.365389502530     0.660594892518     1.007825032230
         H           -2.444453939743     0.585388497470    -0.069198107482     1.007825032230

  Basis Set: AUG-CC-PVTZ
    Blend: AUG-CC-PVTZ
  Basis Set: (AUG-CC-PVTZ AUX)
    Blend: AUG-CC-PVTZ-JKFIT
	 Reference Energy          =    -321.9978463120492620 [Eh]
	 Singles Energy            =      -0.0000000000000000 [Eh]
	 Same-Spin Energy          =      -0.3159934388298723 [Eh]
	 Opposite-Spin Energy      =      -0.9981120869527511 [Eh]
	 Correlation Energy        =      -1.3141055257826233 [Eh]
	 Total Energy              =    -323.3119518378318844 [Eh]

	 ================> DF-SCS-MP2 Energies <==================
	-----------------------------------------------------------
	 SCS Same-Spin Scale       =       0.3333333333333333 [-]
	 SCS Opposite-Spin Scale   =       1.2000000000000000 [-]
	 SCS Same-Spin Energy      =      -0.1053311462766241 [Eh]
	 SCS Opposite-Spin Energy  =      -1.1977345043433012 [Eh]
	 SCS Correlation Energy    =      -1.3030656506199252 [Eh]
	 SCS Total Energy          =    -323.3009119626692041 [Eh]
	-----------------------------------------------------------

  Dipole Moment: [D]
     X:    -1.0482      Y:     0.9932      Z:    -0.3088     Total:     1.4766

*** Psi4 exiting successfully. Buy a developer a beer!
