                               Psi4 1.3.2 release

  ==> Input File <==

--------------------------------------------------------------------------
#psi4
#
memory 32 gb

molecule  {
0 1
  O        1.4293010    -1.0173190    -0.5083850
  O        1.2616920     1.0439120     0.4876630
  N       -1.5019105     1.1733197    -0.0238134
  C       -0.7590880    -0.0423940    -0.3475120
  C       -1.3312045    -1.2498910     0.4049318
  C        0.7294260     0.0826320    -0.0646510
  H       -0.8593930    -0.2237720    -1.4273650
  H       -2.4052960    -1.3157140     0.1877600
  H       -0.8411410    -2.1737420     0.1227770
  H       -1.2225590    -1.1039570     1.4923070
  H       -1.0898030     1.9609300    -0.5079820
  H       -1.3695700     1.3697580     0.9773170
  H        2.3653570    -0.8358360    -0.2741470
units angstrom
no_reorient  #important for SAPT in psi4, default
symmetry c1  #important for SAPT in psi4, default
}

set PROPERTIES_ORIGIN ["COM"]
properties('MP2/aug-cc-pvtz', properties = ['dipole'])
--------------------------------------------------------------------------

    Molecular point group: c1
  Charge       = 0
  Multiplicity = 1
  Basis Set: AUG-CC-PVTZ
    Blend: AUG-CC-PVTZ
  Basis Set: (AUG-CC-PVTZ AUX)
    Blend: AUG-CC-PVTZ-JKFIT

    Orbital Energies [Eh]
    ---------------------

    Doubly Occupied:

       1A    -20.622754     2A    -20.560628     3A    -15.552516
       4A    -11.394506     5A    -11.286197     6A    -11.233548
       7A     -1.457395     8A     -1.359138     9A     -1.199390
      10A     -1.023306    11A     -0.906642    12A     -0.792348
      13A     -0.711126    14A     -0.701779    15A     -0.674910
      16A     -0.626709    17A     -0.608038    18A     -0.595689
      19A     -0.549147    20A     -0.534887    21A     -0.511388
      22A     -0.486463    23A     -0.461047    24A     -0.415406

  @DF-RHF Final Energy:  -321.99433171106540

   => Energetics <=

    Nuclear Repulsion Energy =            247.8604057600714441
    One-Electron Energy =                -931.1795606139457959
    Two-Electron Energy =                 361.3248231428089525
    Total Energy =                       -321.9943317110653993
  Basis Set: (AUG-CC-PVTZ AUX)
    Blend: AUG-CC-PVTZ-RI
    Molecular point group: c1

    Geometry (in Angstrom), charge = 0, multiplicity = 1:

       Center              X                  Y                   Z               Mass
    ------------   -----------------  -----------------  -----------------  -----------------
         O            1.426879758850    -1.017308825943    -0.506402361726    15.994914619570
         O            1.259270758850     1.043922174057     0.489645638274    15.994914619570
         N           -1.504331741150     1.173329874057    -0.021830761726    14.003074004430
         C           -0.761509241150    -0.042383825943    -0.345529361726    12.000000000000
         C           -1.333625741150    -1.249880825943     0.406914438274    12.000000000000
         C            0.727004758850     0.082642174057    -0.062668361726    12.000000000000
         H           -0.861814241150    -0.223761825943    -1.425382361726     1.007825032230
         H           -2.407717241150    -1.315703825943     0.189742638274     1.007825032230
         H           -0.843562241150    -2.173731825943     0.124759638274     1.007825032230
         H           -1.224980241150    -1.103946825943     1.494289638274     1.007825032230
         H           -1.092224241150     1.960940174057    -0.505999361726     1.007825032230
         H           -1.371991241150     1.369768174057     0.979299638274     1.007825032230
         H            2.362935758850    -0.835825825943    -0.272164361726     1.007825032230

  Basis Set: AUG-CC-PVTZ
    Blend: AUG-CC-PVTZ
  Basis Set: (AUG-CC-PVTZ AUX)
    Blend: AUG-CC-PVTZ-JKFIT
	 Reference Energy          =    -321.9943317110653993 [Eh]
	 Singles Energy            =      -0.0000000000000000 [Eh]
	 Same-Spin Energy          =      -0.3171146880570719 [Eh]
	 Opposite-Spin Energy      =      -1.0009812707431267 [Eh]
	 Correlation Energy        =      -1.3180959588001986 [Eh]
	 Total Energy              =    -323.3124276698655990 [Eh]

	 ================> DF-SCS-MP2 Energies <==================
	-----------------------------------------------------------
	 SCS Same-Spin Scale       =       0.3333333333333333 [-]
	 SCS Opposite-Spin Scale   =       1.2000000000000000 [-]
	 SCS Same-Spin Energy      =      -0.1057048960190240 [Eh]
	 SCS Opposite-Spin Energy  =      -1.2011775248917520 [Eh]
	 SCS Correlation Energy    =      -1.3068824209107759 [Eh]
	 SCS Total Energy          =    -323.3012141319761668 [Eh]
	-----------------------------------------------------------

  Dipole Moment: [D]
     X:     0.5795      Y:    -1.1564      Z:    -0.3092     Total:     1.3300

*** Psi4 exiting successfully. Buy a developer a beer!
