                               Psi4 1.3.2 release

  ==> Input File <==

--------------------------------------------------------------------------
#psi4
#
memory 32 gb

molecule  {
0 1
  O        1.4293010    -1.0173190    -0.5083850
  O        1.2616920     1.0439120     0.4876630
  N       -1.5094500     1.1665790    -0.0160500
  C       -0.7755540    -0.0383521    -0.3956070
  C       -1.3403730    -1.2419500     0.4105850
  C        0.7294260     0.0826320    -0.0646510
  H       -0.8593930    -0.2237720    -1.4273650
  H       -2.4052960    -1.3157140     0.1877600
  H       -0.8411410    -2.1737420     0.1227770
  H       -1.2225590    -1.1039570     1.4923070
  H       -1.0898030     1.9609300    -0.5079820
  H       -1.3905963     1.3984233     0.9737723
  H        2.3653570    -0.8358360    -0.2741470
units angstrom
no_reorient  #important for SAPT in psi4, default
symmetry c1  #important for SAPT in psi4, default
}

set PROPERTIES_ORIGIN ["COM"]
properties('MP2/aug-cc-pvtz', properties = ['dipole'])
--------------------------------------------------------------------------

    Molecular point group: c1
  Charge       = 0
  Multiplicity = 1
  Basis Set: AUG-CC-PVTZ
    Blend: AUG-CC-PVTZ
  Basis Set: (AUG-CC-PVTZ AUX)
    Blend: AUG-CC-PVTZ-JKFIT

    Orbital Energies [Eh]
    ---------------------

    Doubly Occupied:

       1A    -20.622116     2A    -20.560497     3A    -15.552223
       4A    -11.394439     5A    -11.285973     6A    -11.233467
       7A     -1.456323     8A     -1.358284     9A     -1.196793
      10A     -1.018146    11A     -0.903555    12A     -0.798310
      13A     -0.710009    14A     -0.700996    15A     -0.668252
      16A     -0.624201    17A     -0.610433    18A     -0.600538
      19A     -0.548621    20A     -0.531620    21A     -0.515423
      22A     -0.485997    23A     -0.460121    24A     -0.411558

  @DF-RHF Final Energy:  -321.99160464951126

   => Energetics <=

    Nuclear Repulsion Energy =            247.2639818773488400
    One-Electron Energy =                -930.0153831170862304
    Two-Electron Energy =                 360.7597965902260739
    Total Energy =                       -321.9916046495112596
  Basis Set: (AUG-CC-PVTZ AUX)
    Blend: AUG-CC-PVTZ-RI
    Molecular point group: c1

    Geometry (in Angstrom), charge = 0, multiplicity = 1:

       Center              X                  Y                   Z               Mass
    ------------   -----------------  -----------------  -----------------  -----------------
         O            1.431757831085    -1.018188061509    -0.501863640676    15.994914619570
         O            1.264148831085     1.043042938491     0.494184359324    15.994914619570
         N           -1.506993168915     1.165709938491    -0.009528640676    14.003074004430
         C           -0.773097168915    -0.039221161509    -0.389085640676    12.000000000000
         C           -1.337916168915    -1.242819061509     0.417106359324    12.000000000000
         C            0.731882831085     0.081762938491    -0.058129640676    12.000000000000
         H           -0.856936168915    -0.224641061509    -1.420843640676     1.007825032230
         H           -2.402839168915    -1.316583061509     0.194281359324     1.007825032230
         H           -0.838684168915    -2.174611061509     0.129298359324     1.007825032230
         H           -1.220102168915    -1.104826061509     1.498828359324     1.007825032230
         H           -1.087346168915     1.960060938491    -0.501460640676     1.007825032230
         H           -1.388139468915     1.397554238491     0.980293659324     1.007825032230
         H            2.367813831085    -0.836705061509    -0.267625640676     1.007825032230

  Basis Set: AUG-CC-PVTZ
    Blend: AUG-CC-PVTZ
  Basis Set: (AUG-CC-PVTZ AUX)
    Blend: AUG-CC-PVTZ-JKFIT
	 Reference Energy          =    -321.9916046495112596 [Eh]
	 Singles Energy            =      -0.0000000000000000 [Eh]
	 Same-Spin Energy          =      -0.3169172293270503 [Eh]
	 Opposite-Spin Energy      =      -1.0008667965713736 [Eh]
	 Correlation Energy        =      -1.3177840258984239 [Eh]
	 Total Energy              =    -323.3093886754097070 [Eh]

	 ================> DF-SCS-MP2 Energies <==================
	-----------------------------------------------------------
	 SCS Same-Spin Scale       =       0.3333333333333333 [-]
	 SCS Opposite-Spin Scale   =       1.2000000000000000 [-]
	 SCS Same-Spin Energy      =      -0.1056390764423501 [Eh]
	 SCS Opposite-Spin Energy  =      -1.2010401558856483 [Eh]
	 SCS Correlation Energy    =      -1.3066792323279983 [Eh]
	 SCS Total Energy          =    -323.2982838818392679 [Eh]
	-----------------------------------------------------------

  Dipole Moment: [D]
     X:     0.5762      Y:    -1.1166      Z:    -0.3389     Total:     1.3014

*** Psi4 exiting successfully. Buy a developer a beer!
