                               Psi4 1.3.2 release

  ==> Input File <==

--------------------------------------------------------------------------
#psi4
#
memory 32 gb

molecule  {
0 1
  O        1.4293010    -1.0173190    -0.5083850
  O        1.2616920     1.0439120     0.4876630
  N       -1.5094500     1.1665790    -0.0160500
  C       -0.7590880    -0.0423940    -0.3475120
  C       -1.3403730    -1.2419500     0.4105850
  C        0.7294260     0.0826320    -0.0646510
  H       -0.8593930    -0.2237720    -1.4273650
  H       -2.4052960    -1.3157140     0.1877600
  H       -0.8411410    -2.1737420     0.1227770
  H       -1.2225590    -1.1039570     1.4923070
  H       -1.0898030     1.9609300    -0.5079820
  H       -1.3695700     1.3697580     0.9773170
  H        2.4606942    -0.8173520    -0.2502899
units angstrom
no_reorient  #important for SAPT in psi4, default
symmetry c1  #important for SAPT in psi4, default
}

set PROPERTIES_ORIGIN ["COM"]
properties('MP2/aug-cc-pvtz', properties = ['dipole'])
--------------------------------------------------------------------------

    Molecular point group: c1
  Charge       = 0
  Multiplicity = 1
  Basis Set: AUG-CC-PVTZ
    Blend: AUG-CC-PVTZ
  Basis Set: (AUG-CC-PVTZ AUX)
    Blend: AUG-CC-PVTZ-JKFIT

    Orbital Energies [Eh]
    ---------------------

    Doubly Occupied:

       1A    -20.628204     2A    -20.559146     3A    -15.552821
       4A    -11.393120     5A    -11.285614     6A    -11.232414
       7A     -1.445554     8A     -1.350123     9A     -1.198489
      10A     -1.020002    11A     -0.901023    12A     -0.781151
      13A     -0.700601    14A     -0.699767    15A     -0.670750
      16A     -0.622773    17A     -0.601055    18A     -0.594964
      19A     -0.549124    20A     -0.528961    21A     -0.511345
      22A     -0.484256    23A     -0.459945    24A     -0.415387

  @DF-RHF Final Energy:  -321.98088162597975

   => Energetics <=

    Nuclear Repulsion Energy =            247.2567435153075337
    One-Electron Energy =                -930.1020721214381410
    Two-Electron Energy =                 360.8644469801508308
    Total Energy =                       -321.9808816259797482
  Basis Set: (AUG-CC-PVTZ AUX)
    Blend: AUG-CC-PVTZ-RI
    Molecular point group: c1

    Geometry (in Angstrom), charge = 0, multiplicity = 1:

       Center              X                  Y                   Z               Mass
    ------------   -----------------  -----------------  -----------------  -----------------
         O            1.428221904561    -1.017528147966    -0.508655016155    15.994914619570
         O            1.260612904561     1.043702852034     0.487392983845    15.994914619570
         N           -1.510529095439     1.166369852034    -0.016320016155    14.003074004430
         C           -0.760167095439    -0.042603147966    -0.347782016155    12.000000000000
         C           -1.341452095439    -1.242159147966     0.410314983845    12.000000000000
         C            0.728346904561     0.082422852034    -0.064921016155    12.000000000000
         H           -0.860472095439    -0.223981147966    -1.427635016155     1.007825032230
         H           -2.406375095439    -1.315923147966     0.187489983845     1.007825032230
         H           -0.842220095439    -2.173951147966     0.122506983845     1.007825032230
         H           -1.223638095439    -1.104166147966     1.492036983845     1.007825032230
         H           -1.090882095439     1.960720852034    -0.508252016155     1.007825032230
         H           -1.370649095439     1.369548852034     0.977046983845     1.007825032230
         H            2.459615104561    -0.817561147966    -0.250559916155     1.007825032230

  Basis Set: AUG-CC-PVTZ
    Blend: AUG-CC-PVTZ
  Basis Set: (AUG-CC-PVTZ AUX)
    Blend: AUG-CC-PVTZ-JKFIT
	 Reference Energy          =    -321.9808816259797482 [Eh]
	 Singles Energy            =      -0.0000000000000000 [Eh]
	 Same-Spin Energy          =      -0.3184497580454690 [Eh]
	 Opposite-Spin Energy      =      -1.0043110976016463 [Eh]
	 Correlation Energy        =      -1.3227608556471153 [Eh]
	 Total Energy              =    -323.3036424816268664 [Eh]

	 ================> DF-SCS-MP2 Energies <==================
	-----------------------------------------------------------
	 SCS Same-Spin Scale       =       0.3333333333333333 [-]
	 SCS Opposite-Spin Scale   =       1.2000000000000000 [-]
	 SCS Same-Spin Energy      =      -0.1061499193484897 [Eh]
	 SCS Opposite-Spin Energy  =      -1.2051733171219754 [Eh]
	 SCS Correlation Energy    =      -1.3113232364704650 [Eh]
	 SCS Total Energy          =    -323.2922048624502054 [Eh]
	-----------------------------------------------------------

  Dipole Moment: [D]
     X:     0.7109      Y:    -1.1461      Z:    -0.3000     Total:     1.3816

*** Psi4 exiting successfully. Buy a developer a beer!
