                               Psi4 1.3.2 release

  ==> Input File <==

--------------------------------------------------------------------------
#psi4
#
memory 32 gb

molecule  {
0 1
  O        1.4293010    -1.0173190    -0.5083850
  O        1.2616920     1.0439120     0.4876630
  N       -1.5094500     1.1665790    -0.0160500
  C       -0.7590880    -0.0423940    -0.3475120
  C       -1.3403730    -1.2419500     0.4105850
  C        0.7294260     0.0826320    -0.0646510
  H       -0.8593930    -0.2237720    -1.4273650
  H       -2.4052960    -1.3157140     0.1877600
  H       -0.8411410    -2.1737420     0.1227770
  H       -1.2225590    -1.1039570     1.4923070
  H       -1.0898030     1.9609300    -0.5079820
  H       -1.3422373     1.4094594     1.1714219
  H        2.3653570    -0.8358360    -0.2741470
units angstrom
no_reorient  #important for SAPT in psi4, default
symmetry c1  #important for SAPT in psi4, default
}

set PROPERTIES_ORIGIN ["COM"]
properties('MP2/aug-cc-pvtz', properties = ['dipole'])
--------------------------------------------------------------------------

    Molecular point group: c1
  Charge       = 0
  Multiplicity = 1
  Basis Set: AUG-CC-PVTZ
    Blend: AUG-CC-PVTZ
  Basis Set: (AUG-CC-PVTZ AUX)
    Blend: AUG-CC-PVTZ-JKFIT

    Orbital Energies [Eh]
    ---------------------

    Doubly Occupied:

       1A    -20.622776     2A    -20.560464     3A    -15.572181
       4A    -11.394622     5A    -11.286947     6A    -11.232572
       7A     -1.457298     8A     -1.358889     9A     -1.184158
      10A     -1.013511    11A     -0.905368    12A     -0.786440
      13A     -0.710543    14A     -0.698556    15A     -0.666551
      16A     -0.624506    17A     -0.605178    18A     -0.572154
      19A     -0.549958    20A     -0.529663    21A     -0.504400
      22A     -0.486143    23A     -0.460275    24A     -0.413703

  @DF-RHF Final Energy:  -321.96586567995308

   => Energetics <=

    Nuclear Repulsion Energy =            246.9577694421373053
    One-Electron Energy =                -929.4535610084944892
    Two-Electron Energy =                 360.5299258864041008
    Total Energy =                       -321.9658656799530831
  Basis Set: (AUG-CC-PVTZ AUX)
    Blend: AUG-CC-PVTZ-RI
    Molecular point group: c1

    Geometry (in Angstrom), charge = 0, multiplicity = 1:

       Center              X                  Y                   Z               Mass
    ------------   -----------------  -----------------  -----------------  -----------------
         O            1.428991566821    -1.017768282545    -0.510581849032    15.994914619570
         O            1.261382566821     1.043462717455     0.485466150968    15.994914619570
         N           -1.509759433179     1.166129717455    -0.018246849032    14.003074004430
         C           -0.759397433179    -0.042843282545    -0.349708849032    12.000000000000
         C           -1.340682433179    -1.242399282545     0.408388150968    12.000000000000
         C            0.729116566821     0.082182717455    -0.066847849032    12.000000000000
         H           -0.859702433179    -0.224221282545    -1.429561849032     1.007825032230
         H           -2.405605433179    -1.316163282545     0.185563150968     1.007825032230
         H           -0.841450433179    -2.174191282545     0.120580150968     1.007825032230
         H           -1.222868433179    -1.104406282545     1.490110150968     1.007825032230
         H           -1.090112433179     1.960480717455    -0.510178849032     1.007825032230
         H           -1.342546733179     1.409010117455     1.169225050968     1.007825032230
         H            2.365047566821    -0.836285282545    -0.276343849032     1.007825032230

  Basis Set: AUG-CC-PVTZ
    Blend: AUG-CC-PVTZ
  Basis Set: (AUG-CC-PVTZ AUX)
    Blend: AUG-CC-PVTZ-JKFIT
	 Reference Energy          =    -321.9658656799530831 [Eh]
	 Singles Energy            =      -0.0000000000000000 [Eh]
	 Same-Spin Energy          =      -0.3181827411707459 [Eh]
	 Opposite-Spin Energy      =      -1.0050390838516081 [Eh]
	 Correlation Energy        =      -1.3232218250223540 [Eh]
	 Total Energy              =    -323.2890875049754413 [Eh]

	 ================> DF-SCS-MP2 Energies <==================
	-----------------------------------------------------------
	 SCS Same-Spin Scale       =       0.3333333333333333 [-]
	 SCS Opposite-Spin Scale   =       1.2000000000000000 [-]
	 SCS Same-Spin Energy      =      -0.1060609137235820 [Eh]
	 SCS Opposite-Spin Energy  =      -1.2060469006219297 [Eh]
	 SCS Correlation Energy    =      -1.3121078143455116 [Eh]
	 SCS Total Energy          =    -323.2779734942985783 [Eh]
	-----------------------------------------------------------

  Dipole Moment: [D]
     X:     0.6059      Y:    -1.1450      Z:    -0.2832     Total:     1.3261

*** Psi4 exiting successfully. Buy a developer a beer!
