                               Psi4 1.3.2 release

  ==> Input File <==

--------------------------------------------------------------------------
#psi4
#
memory 32 gb

molecule  {
0 1
  O        1.4293010    -1.0173190    -0.5083850
  O        1.2616920     1.0439120     0.4876630
  N       -1.5094500     1.1665790    -0.0160500
  C       -0.7590880    -0.0423940    -0.3475120
  C       -1.3403730    -1.2419500     0.4105850
  C        0.7294260     0.0826320    -0.0646510
  H       -0.8593930    -0.2237720    -1.4273650
  H       -2.4052960    -1.3157140     0.1877600
  H       -0.8411410    -2.1737420     0.1227770
  H       -1.2225590    -1.1039570     1.4923070
  H       -1.0898030     1.9609300    -0.5079820
  H       -1.3559037     1.3896087     1.0743695
  H        2.3653570    -0.8358360    -0.2741470
units angstrom
no_reorient  #important for SAPT in psi4, default
symmetry c1  #important for SAPT in psi4, default
}

set PROPERTIES_ORIGIN ["COM"]
properties('MP2/aug-cc-pvtz', properties = ['dipole'])
--------------------------------------------------------------------------

    Molecular point group: c1
  Charge       = 0
  Multiplicity = 1
  Basis Set: AUG-CC-PVTZ
    Blend: AUG-CC-PVTZ
  Basis Set: (AUG-CC-PVTZ AUX)
    Blend: AUG-CC-PVTZ-JKFIT

    Orbital Energies [Eh]
    ---------------------

    Doubly Occupied:

       1A    -20.622845     2A    -20.560712     3A    -15.563316
       4A    -11.394738     5A    -11.286397     6A    -11.232776
       7A     -1.457432     8A     -1.359128     9A     -1.190062
      10A     -1.017159    11A     -0.906085    12A     -0.788825
      13A     -0.710768    14A     -0.699990    15A     -0.668951
      16A     -0.625109    17A     -0.606101    18A     -0.584845
      19A     -0.550558    20A     -0.529603    21A     -0.509235
      22A     -0.486353    23A     -0.460994    24A     -0.414954

  @DF-RHF Final Energy:  -321.98418164811284

   => Energetics <=

    Nuclear Repulsion Energy =            247.3593193353071342
    One-Electron Energy =                -930.2331274684564733
    Two-Electron Energy =                 360.8896264850365583
    Total Energy =                       -321.9841816481128376
  Basis Set: (AUG-CC-PVTZ AUX)
    Blend: AUG-CC-PVTZ-RI
    Molecular point group: c1

    Geometry (in Angstrom), charge = 0, multiplicity = 1:

       Center              X                  Y                   Z               Mass
    ------------   -----------------  -----------------  -----------------  -----------------
         O            1.429146240590    -1.017543616022    -0.509483428053    15.994914619570
         O            1.261537240590     1.043687383978     0.486564571947    15.994914619570
         N           -1.509604759410     1.166354383978    -0.017148428053    14.003074004430
         C           -0.759242759410    -0.042618616022    -0.348610428053    12.000000000000
         C           -1.340527759410    -1.242174616022     0.409486571947    12.000000000000
         C            0.729271240590     0.082407383978    -0.065749428053    12.000000000000
         H           -0.859547759410    -0.223996616022    -1.428463428053     1.007825032230
         H           -2.405450759410    -1.315938616022     0.186661571947     1.007825032230
         H           -0.841295759410    -2.173966616022     0.121678571947     1.007825032230
         H           -1.222713759410    -1.104181616022     1.491208571947     1.007825032230
         H           -1.089957759410     1.960705383978    -0.509080428053     1.007825032230
         H           -1.356058459410     1.389384083978     1.073271071947     1.007825032230
         H            2.365202240590    -0.836060616022    -0.275245428053     1.007825032230

  Basis Set: AUG-CC-PVTZ
    Blend: AUG-CC-PVTZ
  Basis Set: (AUG-CC-PVTZ AUX)
    Blend: AUG-CC-PVTZ-JKFIT
	 Reference Energy          =    -321.9841816481128376 [Eh]
	 Singles Energy            =      -0.0000000000000000 [Eh]
	 Same-Spin Energy          =      -0.3176883562758908 [Eh]
	 Opposite-Spin Energy      =      -1.0029753631427316 [Eh]
	 Correlation Energy        =      -1.3206637194186224 [Eh]
	 Total Energy              =    -323.3048453675314704 [Eh]

	 ================> DF-SCS-MP2 Energies <==================
	-----------------------------------------------------------
	 SCS Same-Spin Scale       =       0.3333333333333333 [-]
	 SCS Opposite-Spin Scale   =       1.2000000000000000 [-]
	 SCS Same-Spin Energy      =      -0.1058961187586303 [Eh]
	 SCS Opposite-Spin Energy  =      -1.2035704357712780 [Eh]
	 SCS Correlation Energy    =      -1.3094665545299082 [Eh]
	 SCS Total Energy          =    -323.2936482026427711 [Eh]
	-----------------------------------------------------------

  Dipole Moment: [D]
     X:     0.5991      Y:    -1.1423      Z:    -0.2943     Total:     1.3230

*** Psi4 exiting successfully. Buy a developer a beer!
