                               Psi4 1.4a3.dev225

  ==> Input File <==

--------------------------------------------------------------------------
#psi4
#
memory 32 gb

molecule  {
0 1
  O       -1.6162430     0.8314800    -0.3809140
  O       -1.1510000    -1.1772170     0.5605200
  N        1.5455560    -1.0219050    -0.2870820
  C        0.6665940     0.1335400    -0.4023590
  C        1.1923300     1.2755990     0.4679010
  C       -0.7726990    -0.1733030    -0.0203720
  H        0.6629820     0.4626600    -1.4478320
  H        2.2238070     1.4912930     0.1836440
  H        0.5830780     2.1739270     0.3501650
  H        1.1794500     0.9804810     1.5223570
  H        1.2015560    -1.7655910    -0.8946420
  H        1.4549450    -1.3946670     0.6589060
  H       -2.5494249     0.5420606    -0.0550683
units angstrom
no_reorient  #important for SAPT in psi4, default
symmetry c1  #important for SAPT in psi4, default
}

set PROPERTIES_ORIGIN ["COM"]
properties('MP2/aug-cc-pvtz', properties = ['dipole'])
--------------------------------------------------------------------------

    Molecular point group: c1
  Charge       = 0
  Multiplicity = 1
  Basis Set: AUG-CC-PVTZ
    Blend: AUG-CC-PVTZ
  Basis Set: (AUG-CC-PVTZ AUX)
    Blend: AUG-CC-PVTZ-JKFIT

    Orbital Energies [Eh]
    ---------------------

    Doubly Occupied:

       1A    -20.624781     2A    -20.557307     3A    -15.551795
       4A    -11.389684     5A    -11.283386     6A    -11.231167
       7A     -1.458679     8A     -1.357899     9A     -1.201131
      10A     -1.022178    11A     -0.903802    12A     -0.788516
      13A     -0.709145    14A     -0.704814    15A     -0.671024
      16A     -0.630545    17A     -0.605268    18A     -0.595567
      19A     -0.549023    20A     -0.531968    21A     -0.510881
      22A     -0.485880    23A     -0.461177    24A     -0.414679

  @DF-RHF Final Energy:  -321.99276229656988

   => Energetics <=

    Nuclear Repulsion Energy =            248.5762486638743098
    One-Electron Energy =                -932.6574263337627144
    Two-Electron Energy =                 362.0884153733184689
    Total Energy =                       -321.9927622965698788
  Basis Set: (AUG-CC-PVTZ AUX)
    Blend: AUG-CC-PVTZ-RI
    Molecular point group: c1

    Geometry (in Angstrom), charge = 0, multiplicity = 1:

       Center              X                  Y                   Z               Mass
    ------------   -----------------  -----------------  -----------------  -----------------
         O           -1.562440716508     0.859556688454    -0.377711294652    15.994914619570
         O           -1.097197716508    -1.149140311546     0.563722705348    15.994914619570
         N            1.599358283492    -0.993828311546    -0.283879294652    14.003074004430
         C            0.720396283492     0.161616688454    -0.399156294652    12.000000000000
         C            1.246132283492     1.303675688454     0.471103705348    12.000000000000
         C           -0.718896716508    -0.145226311546    -0.017169294652    12.000000000000
         H            0.716784283492     0.490736688454    -1.444629294652     1.007825032230
         H            2.277609283492     1.519369688454     0.186846705348     1.007825032230
         H            0.636880283492     2.202003688454     0.353367705348     1.007825032230
         H            1.233252283492     1.008557688454     1.525559705348     1.007825032230
         H            1.255358283492    -1.737514311546    -0.891439294652     1.007825032230
         H            1.508747283492    -1.366590311546     0.662108705348     1.007825032230
         H           -2.495622616508     0.570137288454    -0.051865594652     1.007825032230

  Basis Set: AUG-CC-PVTZ
    Blend: AUG-CC-PVTZ
  Basis Set: (AUG-CC-PVTZ AUX)
    Blend: AUG-CC-PVTZ-JKFIT
	 Reference Energy          =    -321.9927622965698788 [Eh]
	 Singles Energy            =      -0.0000000000000000 [Eh]
	 Same-Spin Energy          =      -0.3173849686155297 [Eh]
	 Opposite-Spin Energy      =      -1.0012017002079738 [Eh]
	 Correlation Energy        =      -1.3185866688235035 [Eh]
	 Total Energy              =    -323.3113489653933925 [Eh]

	 ================> DF-SCS-MP2 Energies <==================
	-----------------------------------------------------------
	 SCS Same-Spin Scale       =       0.3333333333333333 [-]
	 SCS Opposite-Spin Scale   =       1.2000000000000000 [-]
	 SCS Same-Spin Energy      =      -0.1057949895385099 [Eh]
	 SCS Opposite-Spin Energy  =      -1.2014420402495685 [Eh]
	 SCS Correlation Energy    =      -1.3072370297880784 [Eh]
	 SCS Total Energy          =    -323.2999993263579768 [Eh]
	-----------------------------------------------------------

  Dipole Moment: [D]
     X:    -0.8431      Y:     1.0451      Z:    -0.3364     Total:     1.3843

*** Psi4 exiting successfully. Buy a developer a beer!
