                               Psi4 1.3.2 release

  ==> Input File <==

--------------------------------------------------------------------------
#psi4
#
memory 32 gb

molecule  {
0 1
  O        1.4293010    -1.0173190    -0.5083850
  O        1.2616920     1.0439120     0.4876630
  N       -1.5094500     1.1665790    -0.0160500
  C       -0.6563692    -0.2078932    -0.3928866
  C       -1.3403730    -1.2419500     0.4105850
  C        0.7294260     0.0826320    -0.0646510
  H       -0.8593930    -0.2237720    -1.4273650
  H       -2.4052960    -1.3157140     0.1877600
  H       -0.8411410    -2.1737420     0.1227770
  H       -1.2225590    -1.1039570     1.4923070
  H       -1.0898030     1.9609300    -0.5079820
  H       -1.3695700     1.3697580     0.9773170
  H        2.3653570    -0.8358360    -0.2741470
units angstrom
no_reorient  #important for SAPT in psi4, default
symmetry c1  #important for SAPT in psi4, default
}

set PROPERTIES_ORIGIN ["COM"]
properties('MP2/aug-cc-pvtz', properties = ['dipole'])
--------------------------------------------------------------------------

    Molecular point group: c1
  Charge       = 0
  Multiplicity = 1
  Basis Set: AUG-CC-PVTZ
    Blend: AUG-CC-PVTZ
  Basis Set: (AUG-CC-PVTZ AUX)
    Blend: AUG-CC-PVTZ-JKFIT

    Orbital Energies [Eh]
    ---------------------

    Doubly Occupied:

       1A    -20.623175     2A    -20.569350     3A    -15.545497
       4A    -11.402518     5A    -11.288532     6A    -11.236323
       7A     -1.464092     8A     -1.364440     9A     -1.159664
      10A     -1.038411    11A     -0.929151    12A     -0.793605
      13A     -0.716667    14A     -0.708460    15A     -0.658496
      16A     -0.625626    17A     -0.612245    18A     -0.589386
      19A     -0.561950    20A     -0.539438    21A     -0.494619
      22A     -0.479320    23A     -0.469674    24A     -0.405987

  @DF-RHF Final Energy:  -321.95800587202655

   => Energetics <=

    Nuclear Repulsion Energy =            247.7616003743773661
    One-Electron Energy =                -930.8859605024429129
    Two-Electron Energy =                 361.1663542560389715
    Total Energy =                       -321.9580058720265470
  Basis Set: (AUG-CC-PVTZ AUX)
    Blend: AUG-CC-PVTZ-RI
    Molecular point group: c1

    Geometry (in Angstrom), charge = 0, multiplicity = 1:

       Center              X                  Y                   Z               Mass
    ------------   -----------------  -----------------  -----------------  -----------------
         O            1.415458602891    -0.995016398391    -0.502270358044    15.994914619570
         O            1.247849602891     1.066214601609     0.493777641956    15.994914619570
         N           -1.523292397109     1.188881601609    -0.009935358044    14.003074004430
         C           -0.670211597109    -0.185590598391    -0.386771958044    12.000000000000
         C           -1.354215397109    -1.219647398391     0.416699641956    12.000000000000
         C            0.715583602891     0.104934601609    -0.058536358044    12.000000000000
         H           -0.873235397109    -0.201469398391    -1.421250358044     1.007825032230
         H           -2.419138397109    -1.293411398391     0.193874641956     1.007825032230
         H           -0.854983397109    -2.151439398391     0.128891641956     1.007825032230
         H           -1.236401397109    -1.081654398391     1.498421641956     1.007825032230
         H           -1.103645397109     1.983232601609    -0.501867358044     1.007825032230
         H           -1.383412397109     1.392060601609     0.983431641956     1.007825032230
         H            2.351514602891    -0.813533398391    -0.268032358044     1.007825032230

  Basis Set: AUG-CC-PVTZ
    Blend: AUG-CC-PVTZ
  Basis Set: (AUG-CC-PVTZ AUX)
    Blend: AUG-CC-PVTZ-JKFIT
	 Reference Energy          =    -321.9580058720265470 [Eh]
	 Singles Energy            =      -0.0000000000000000 [Eh]
	 Same-Spin Energy          =      -0.3188599444970646 [Eh]
	 Opposite-Spin Energy      =      -1.0060913417314294 [Eh]
	 Correlation Energy        =      -1.3249512862284940 [Eh]
	 Total Energy              =    -323.2829571582550443 [Eh]

	 ================> DF-SCS-MP2 Energies <==================
	-----------------------------------------------------------
	 SCS Same-Spin Scale       =       0.3333333333333333 [-]
	 SCS Opposite-Spin Scale   =       1.2000000000000000 [-]
	 SCS Same-Spin Energy      =      -0.1062866481656882 [Eh]
	 SCS Opposite-Spin Energy  =      -1.2073096100777152 [Eh]
	 SCS Correlation Energy    =      -1.3135962582434033 [Eh]
	 SCS Total Energy          =    -323.2716021302699687 [Eh]
	-----------------------------------------------------------

  Dipole Moment: [D]
     X:     0.8502      Y:    -1.4751      Z:    -0.3325     Total:     1.7347

*** Psi4 exiting successfully. Buy a developer a beer!
