                               Psi4 1.3.2 release

  ==> Input File <==

--------------------------------------------------------------------------
#psi4
#
memory 32 gb

molecule  {
0 1
  O        1.4293010    -1.0173190    -0.5083850
  O        1.2996407     1.0242578     0.4836309
  N       -1.5094500     1.1665790    -0.0160500
  C       -0.7499795    -0.0898218    -0.3695033
  C       -1.3403730    -1.2419500     0.4105850
  C        0.7294260     0.0826320    -0.0646510
  H       -0.8593930    -0.2237720    -1.4273650
  H       -2.4052960    -1.3157140     0.1877600
  H       -0.8411410    -2.1737420     0.1227770
  H       -1.2225590    -1.1039570     1.4923070
  H       -1.0898030     1.9609300    -0.5079820
  H       -1.3695700     1.3697580     0.9773170
  H        2.3653570    -0.8358360    -0.2741470
units angstrom
no_reorient  #important for SAPT in psi4, default
symmetry c1  #important for SAPT in psi4, default
}

set PROPERTIES_ORIGIN ["COM"]
properties('MP2/aug-cc-pvtz', properties = ['dipole'])
--------------------------------------------------------------------------

    Molecular point group: c1
  Charge       = 0
  Multiplicity = 1
  Basis Set: AUG-CC-PVTZ
    Blend: AUG-CC-PVTZ
  Basis Set: (AUG-CC-PVTZ AUX)
    Blend: AUG-CC-PVTZ-JKFIT

    Orbital Energies [Eh]
    ---------------------

    Doubly Occupied:

       1A    -20.619268     2A    -20.562491     3A    -15.552896
       4A    -11.396628     5A    -11.288164     6A    -11.234081
       7A     -1.458306     8A     -1.357030     9A     -1.187980
      10A     -1.027954    11A     -0.910526    12A     -0.793678
      13A     -0.710357    14A     -0.702219    15A     -0.667262
      16A     -0.625997    17A     -0.606616    18A     -0.597298
      19A     -0.552051    20A     -0.526862    21A     -0.520893
      22A     -0.486944    23A     -0.462224    24A     -0.415523

  @DF-RHF Final Energy:  -321.99108286192495

   => Energetics <=

    Nuclear Repulsion Energy =            247.4333577566794418
    One-Electron Energy =                -930.3223905376669336
    Two-Electron Energy =                 360.8979499190625120
    Total Energy =                       -321.9910828619249514
  Basis Set: (AUG-CC-PVTZ AUX)
    Blend: AUG-CC-PVTZ-RI
    Molecular point group: c1

    Geometry (in Angstrom), charge = 0, multiplicity = 1:

       Center              X                  Y                   Z               Mass
    ------------   -----------------  -----------------  -----------------  -----------------
         O            1.421257040228    -1.007397288809    -0.504697220917    15.994914619570
         O            1.291596740228     1.034179511191     0.487318679083    15.994914619570
         N           -1.517493959772     1.176500711191    -0.012362220917    14.003074004430
         C           -0.758023459772    -0.079900088809    -0.365815520917    12.000000000000
         C           -1.348416959772    -1.232028288809     0.414272779083    12.000000000000
         C            0.721382040228     0.092553711191    -0.060963220917    12.000000000000
         H           -0.867436959772    -0.213850288809    -1.423677220917     1.007825032230
         H           -2.413339959772    -1.305792288809     0.191447779083     1.007825032230
         H           -0.849184959772    -2.163820288809     0.126464779083     1.007825032230
         H           -1.230602959772    -1.094035288809     1.495994779083     1.007825032230
         H           -1.097846959772     1.970851711191    -0.504294220917     1.007825032230
         H           -1.377613959772     1.379679711191     0.981004779083     1.007825032230
         H            2.357313040228    -0.825914288809    -0.270459220917     1.007825032230

  Basis Set: AUG-CC-PVTZ
    Blend: AUG-CC-PVTZ
  Basis Set: (AUG-CC-PVTZ AUX)
    Blend: AUG-CC-PVTZ-JKFIT
	 Reference Energy          =    -321.9910828619249514 [Eh]
	 Singles Energy            =      -0.0000000000000000 [Eh]
	 Same-Spin Energy          =      -0.3170933316552925 [Eh]
	 Opposite-Spin Energy      =      -1.0014945539672377 [Eh]
	 Correlation Energy        =      -1.3185878856225304 [Eh]
	 Total Energy              =    -323.3096707475475000 [Eh]

	 ================> DF-SCS-MP2 Energies <==================
	-----------------------------------------------------------
	 SCS Same-Spin Scale       =       0.3333333333333333 [-]
	 SCS Opposite-Spin Scale   =       1.2000000000000000 [-]
	 SCS Same-Spin Energy      =      -0.1056977772184308 [Eh]
	 SCS Opposite-Spin Energy  =      -1.2017934647606852 [Eh]
	 SCS Correlation Energy    =      -1.3074912419791160 [Eh]
	 SCS Total Energy          =    -323.2985741039040590 [Eh]
	-----------------------------------------------------------

  Dipole Moment: [D]
     X:     0.5462      Y:    -1.2069      Z:    -0.3225     Total:     1.3634

*** Psi4 exiting successfully. Buy a developer a beer!
