                               Psi4 1.4a3.dev225

  ==> Input File <==

--------------------------------------------------------------------------
#psi4
#
memory 32 gb

molecule  {
0 1
  O       -1.6162430     0.8314800    -0.3809140
  O       -1.1510000    -1.1772170     0.5605200
  N        1.5455560    -1.0219050    -0.2870820
  C        0.6665940     0.1335400    -0.4023590
  C        1.1923300     1.2755990     0.4679010
  C       -0.7789007    -0.1897607    -0.0108491
  H        0.6629820     0.4626600    -1.4478320
  H        2.2238070     1.4912930     0.1836440
  H        0.5830780     2.1739270     0.3501650
  H        1.1794500     0.9804810     1.5223570
  H        1.2015560    -1.7655910    -0.8946420
  H        1.4549450    -1.3946670     0.6589060
  H       -2.5041220     0.5561110    -0.0708870
units angstrom
no_reorient  #important for SAPT in psi4, default
symmetry c1  #important for SAPT in psi4, default
}

set PROPERTIES_ORIGIN ["COM"]
properties('MP2/aug-cc-pvtz', properties = ['dipole'])
--------------------------------------------------------------------------

    Molecular point group: c1
  Charge       = 0
  Multiplicity = 1
  Basis Set: AUG-CC-PVTZ
    Blend: AUG-CC-PVTZ
  Basis Set: (AUG-CC-PVTZ AUX)
    Blend: AUG-CC-PVTZ-JKFIT

    Orbital Energies [Eh]
    ---------------------

    Doubly Occupied:

       1A    -20.618494     2A    -20.561839     3A    -15.551583
       4A    -11.388713     5A    -11.283100     6A    -11.230568
       7A     -1.466339     8A     -1.370767     9A     -1.200898
      10A     -1.020918    11A     -0.903720    12A     -0.790885
      13A     -0.714119    14A     -0.706919    15A     -0.672060
      16A     -0.631948    17A     -0.610330    18A     -0.596888
      19A     -0.550973    20A     -0.531822    21A     -0.510401
      22A     -0.493269    23A     -0.464168    24A     -0.412944

  @DF-RHF Final Energy:  -321.99868789209671

   => Energetics <=

    Nuclear Repulsion Energy =            248.9041584560957290
    One-Electron Energy =                -933.2383620085935263
    Two-Electron Energy =                 362.3355156604010858
    Total Energy =                       -321.9986878920967115
  Basis Set: (AUG-CC-PVTZ AUX)
    Blend: AUG-CC-PVTZ-RI
    Molecular point group: c1

    Geometry (in Angstrom), charge = 0, multiplicity = 1:

       Center              X                  Y                   Z               Mass
    ------------   -----------------  -----------------  -----------------  -----------------
         O           -1.562117709734     0.861615496255    -0.378815560590    15.994914619570
         O           -1.096874709734    -1.147081503745     0.562618439410    15.994914619570
         N            1.599681290266    -0.991769503745    -0.284983560590    14.003074004430
         C            0.720719290266     0.163675496255    -0.400260560590    12.000000000000
         C            1.246455290266     1.305734496255     0.469999439410    12.000000000000
         C           -0.724775409734    -0.159625203745    -0.008750660590    12.000000000000
         H            0.717107290266     0.492795496255    -1.445733560590     1.007825032230
         H            2.277932290266     1.521428496255     0.185742439410     1.007825032230
         H            0.637203290266     2.204062496255     0.352263439410     1.007825032230
         H            1.233575290266     1.010616496255     1.524455439410     1.007825032230
         H            1.255681290266    -1.735455503745    -0.892543560590     1.007825032230
         H            1.509070290266    -1.364531503745     0.661004439410     1.007825032230
         H           -2.449996709734     0.586246496255    -0.068788560590     1.007825032230

  Basis Set: AUG-CC-PVTZ
    Blend: AUG-CC-PVTZ
  Basis Set: (AUG-CC-PVTZ AUX)
    Blend: AUG-CC-PVTZ-JKFIT
	 Reference Energy          =    -321.9986878920967115 [Eh]
	 Singles Energy            =      -0.0000000000000000 [Eh]
	 Same-Spin Energy          =      -0.3163480349504204 [Eh]
	 Opposite-Spin Energy      =      -0.9989961669325298 [Eh]
	 Correlation Energy        =      -1.3153442018829502 [Eh]
	 Total Energy              =    -323.3140320939796766 [Eh]

	 ================> DF-SCS-MP2 Energies <==================
	-----------------------------------------------------------
	 SCS Same-Spin Scale       =       0.3333333333333333 [-]
	 SCS Opposite-Spin Scale   =       1.2000000000000000 [-]
	 SCS Same-Spin Energy      =      -0.1054493449834735 [Eh]
	 SCS Opposite-Spin Energy  =      -1.1987954003190358 [Eh]
	 SCS Correlation Energy    =      -1.3042447453025092 [Eh]
	 SCS Total Energy          =    -323.3029326373992376 [Eh]
	-----------------------------------------------------------

  Dipole Moment: [D]
     X:    -0.7997      Y:     0.9278      Z:    -0.2898     Total:     1.2587

*** Psi4 exiting successfully. Buy a developer a beer!
