                               Psi4 1.3.2 release

  ==> Input File <==

--------------------------------------------------------------------------
#psi4
#
memory 32 gb

molecule  {
0 1
  O        1.4293010    -1.0173190    -0.5083850
  O        1.2616920     1.0439120     0.4876630
  N       -1.5094500     1.1665790    -0.0160500
  C       -0.7590880    -0.0423940    -0.3475120
  C       -1.3644749    -1.2364539     0.4003286
  C        0.7304073     0.1039149    -0.0804664
  H       -0.8593930    -0.2237720    -1.4273650
  H       -2.4052960    -1.3157140     0.1877600
  H       -0.8411410    -2.1737420     0.1227770
  H       -1.2225590    -1.1039570     1.4923070
  H       -1.0898030     1.9609300    -0.5079820
  H       -1.3695700     1.3697580     0.9773170
  H        2.3653570    -0.8358360    -0.2741470
units angstrom
no_reorient  #important for SAPT in psi4, default
symmetry c1  #important for SAPT in psi4, default
}

set PROPERTIES_ORIGIN ["COM"]
properties('MP2/aug-cc-pvtz', properties = ['dipole'])
--------------------------------------------------------------------------

    Molecular point group: c1
  Charge       = 0
  Multiplicity = 1
  Basis Set: AUG-CC-PVTZ
    Blend: AUG-CC-PVTZ
  Basis Set: (AUG-CC-PVTZ AUX)
    Blend: AUG-CC-PVTZ-JKFIT

    Orbital Energies [Eh]
    ---------------------

    Doubly Occupied:

       1A    -20.619899     2A    -20.563922     3A    -15.552962
       4A    -11.395144     5A    -11.286026     6A    -11.233382
       7A     -1.456057     8A     -1.362749     9A     -1.199676
      10A     -1.020731    11A     -0.907799    12A     -0.789152
      13A     -0.710882    14A     -0.701625    15A     -0.672803
      16A     -0.625362    17A     -0.609783    18A     -0.594450
      19A     -0.559643    20A     -0.525115    21A     -0.509639
      22A     -0.489574    23A     -0.464303    24A     -0.416115

  @DF-RHF Final Energy:  -321.99346375695063

   => Energetics <=

    Nuclear Repulsion Energy =            247.6984684591432710
    One-Electron Energy =                -930.8502775711090180
    Two-Electron Energy =                 361.1583453550151717
    Total Energy =                       -321.9934637569506322
  Basis Set: (AUG-CC-PVTZ AUX)
    Blend: AUG-CC-PVTZ-RI
    Molecular point group: c1

    Geometry (in Angstrom), charge = 0, multiplicity = 1:

       Center              X                  Y                   Z               Mass
    ------------   -----------------  -----------------  -----------------  -----------------
         O            1.432416628367    -1.020927667946    -0.504871589249    15.994914619570
         O            1.264807628367     1.040303332054     0.491176410751    15.994914619570
         N           -1.506334371633     1.162970332054    -0.012536589249    14.003074004430
         C           -0.755972371633    -0.046002667946    -0.343998589249    12.000000000000
         C           -1.361359271633    -1.240062567946     0.403842010751    12.000000000000
         C            0.733522928367     0.100306232054    -0.076952989249    12.000000000000
         H           -0.856277371633    -0.227380667946    -1.423851589249     1.007825032230
         H           -2.402180371633    -1.319322667946     0.191273410751     1.007825032230
         H           -0.838025371633    -2.177350667946     0.126290410751     1.007825032230
         H           -1.219443371633    -1.107565667946     1.495820410751     1.007825032230
         H           -1.086687371633     1.957321332054    -0.504468589249     1.007825032230
         H           -1.366454371633     1.366149332054     0.980830410751     1.007825032230
         H            2.368472628367    -0.839444667946    -0.270633589249     1.007825032230

  Basis Set: AUG-CC-PVTZ
    Blend: AUG-CC-PVTZ
  Basis Set: (AUG-CC-PVTZ AUX)
    Blend: AUG-CC-PVTZ-JKFIT
	 Reference Energy          =    -321.9934637569506322 [Eh]
	 Singles Energy            =      -0.0000000000000000 [Eh]
	 Same-Spin Energy          =      -0.3170144209528312 [Eh]
	 Opposite-Spin Energy      =      -1.0010395788874846 [Eh]
	 Correlation Energy        =      -1.3180539998403158 [Eh]
	 Total Energy              =    -323.3115177567909200 [Eh]

	 ================> DF-SCS-MP2 Energies <==================
	-----------------------------------------------------------
	 SCS Same-Spin Scale       =       0.3333333333333333 [-]
	 SCS Opposite-Spin Scale   =       1.2000000000000000 [-]
	 SCS Same-Spin Energy      =      -0.1056714736509437 [Eh]
	 SCS Opposite-Spin Energy  =      -1.2012474946649816 [Eh]
	 SCS Correlation Energy    =      -1.3069189683159252 [Eh]
	 SCS Total Energy          =    -323.3003827252665587 [Eh]
	-----------------------------------------------------------

  Dipole Moment: [D]
     X:     0.5789      Y:    -1.0540      Z:    -0.2965     Total:     1.2385

*** Psi4 exiting successfully. Buy a developer a beer!
