                               Psi4 1.3.2 release

  ==> Input File <==

--------------------------------------------------------------------------
#psi4
#
memory 32 gb

molecule  {
0 1
  O        1.4293010    -1.0173190    -0.5083850
  O        1.2616920     1.0439120     0.4876630
  N       -1.5094500     1.1665790    -0.0160500
  C       -0.7590880    -0.0423940    -0.3475120
  C       -1.4121181    -1.2243724     0.3791355
  C        0.7310085     0.1463404    -0.1123363
  H       -0.8593930    -0.2237720    -1.4273650
  H       -2.4052960    -1.3157140     0.1877600
  H       -0.8411410    -2.1737420     0.1227770
  H       -1.2225590    -1.1039570     1.4923070
  H       -1.0898030     1.9609300    -0.5079820
  H       -1.3695700     1.3697580     0.9773170
  H        2.3653570    -0.8358360    -0.2741470
units angstrom
no_reorient  #important for SAPT in psi4, default
symmetry c1  #important for SAPT in psi4, default
}

set PROPERTIES_ORIGIN ["COM"]
properties('MP2/aug-cc-pvtz', properties = ['dipole'])
--------------------------------------------------------------------------

    Molecular point group: c1
  Charge       = 0
  Multiplicity = 1
  Basis Set: AUG-CC-PVTZ
    Blend: AUG-CC-PVTZ
  Basis Set: (AUG-CC-PVTZ AUX)
    Blend: AUG-CC-PVTZ-JKFIT

    Orbital Energies [Eh]
    ---------------------

    Doubly Occupied:

       1A    -20.613500     2A    -20.570059     3A    -15.552513
       4A    -11.396193     5A    -11.286568     6A    -11.234912
       7A     -1.455728     8A     -1.365187     9A     -1.200911
      10A     -1.018444    11A     -0.910105    12A     -0.783141
      13A     -0.710721    14A     -0.700582    15A     -0.674304
      16A     -0.624865    17A     -0.610835    18A     -0.592010
      19A     -0.575143    20A     -0.516132    21A     -0.502711
      22A     -0.493823    23A     -0.468326    24A     -0.415576

  @DF-RHF Final Energy:  -321.98285671371320

   => Energetics <=

    Nuclear Repulsion Energy =            247.4494486247239422
    One-Electron Energy =                -930.3200362737958358
    Two-Electron Energy =                 360.8877309353587179
    Total Energy =                       -321.9828567137132040
  Basis Set: (AUG-CC-PVTZ AUX)
    Blend: AUG-CC-PVTZ-RI
    Molecular point group: c1

    Geometry (in Angstrom), charge = 0, multiplicity = 1:

       Center              X                  Y                   Z               Mass
    ------------   -----------------  -----------------  -----------------  -----------------
         O            1.438755973869    -1.028272991386    -0.497720858192    15.994914619570
         O            1.271146973869     1.032958008614     0.498327141808    15.994914619570
         N           -1.499995026131     1.155625008614    -0.005385858192    14.003074004430
         C           -0.749633026131    -0.053347991386    -0.336847858192    12.000000000000
         C           -1.402663126131    -1.235326391386     0.389799641808    12.000000000000
         C            0.740463473869     0.135386408614    -0.101672158192    12.000000000000
         H           -0.849938026131    -0.234725991386    -1.416700858192     1.007825032230
         H           -2.395841026131    -1.326667991386     0.198424141808     1.007825032230
         H           -0.831686026131    -2.184695991386     0.133441141808     1.007825032230
         H           -1.213104026131    -1.114910991386     1.502971141808     1.007825032230
         H           -1.080348026131     1.949976008614    -0.497317858192     1.007825032230
         H           -1.360115026131     1.358804008614     0.987981141808     1.007825032230
         H            2.374811973869    -0.846789991386    -0.263482858192     1.007825032230

  Basis Set: AUG-CC-PVTZ
    Blend: AUG-CC-PVTZ
  Basis Set: (AUG-CC-PVTZ AUX)
    Blend: AUG-CC-PVTZ-JKFIT
	 Reference Energy          =    -321.9828567137132040 [Eh]
	 Singles Energy            =      -0.0000000000000000 [Eh]
	 Same-Spin Energy          =      -0.3169950851880536 [Eh]
	 Opposite-Spin Energy      =      -1.0015098593887033 [Eh]
	 Correlation Energy        =      -1.3185049445767569 [Eh]
	 Total Energy              =    -323.3013616582899772 [Eh]

	 ================> DF-SCS-MP2 Energies <==================
	-----------------------------------------------------------
	 SCS Same-Spin Scale       =       0.3333333333333333 [-]
	 SCS Opposite-Spin Scale   =       1.2000000000000000 [-]
	 SCS Same-Spin Energy      =      -0.1056650283960179 [Eh]
	 SCS Opposite-Spin Energy  =      -1.2018118312664439 [Eh]
	 SCS Correlation Energy    =      -1.3074768596624617 [Eh]
	 SCS Total Energy          =    -323.2903335733756762 [Eh]
	-----------------------------------------------------------

  Dipole Moment: [D]
     X:     0.5414      Y:    -0.8582      Z:    -0.2606     Total:     1.0476

*** Psi4 exiting successfully. Buy a developer a beer!
