                               Psi4 1.3.2 release

  ==> Input File <==

--------------------------------------------------------------------------
#psi4
#
memory 32 gb

molecule  {
0 1
  O        1.4190454    -1.0221879    -0.5123285
  O        1.2616920     1.0439120     0.4876630
  N       -1.5094500     1.1665790    -0.0160500
  C       -0.7569727    -0.0542417    -0.3530953
  C       -1.3403730    -1.2419500     0.4105850
  C        0.7294260     0.0826320    -0.0646510
  H       -0.8593930    -0.2237720    -1.4273650
  H       -2.4052960    -1.3157140     0.1877600
  H       -0.8411410    -2.1737420     0.1227770
  H       -1.2225590    -1.1039570     1.4923070
  H       -1.0898030     1.9609300    -0.5079820
  H       -1.3695700     1.3697580     0.9773170
  H        2.3653570    -0.8358360    -0.2741470
units angstrom
no_reorient  #important for SAPT in psi4, default
symmetry c1  #important for SAPT in psi4, default
}

set PROPERTIES_ORIGIN ["COM"]
properties('MP2/aug-cc-pvtz', properties = ['dipole'])
--------------------------------------------------------------------------

    Molecular point group: c1
  Charge       = 0
  Multiplicity = 1
  Basis Set: AUG-CC-PVTZ
    Blend: AUG-CC-PVTZ
  Basis Set: (AUG-CC-PVTZ AUX)
    Blend: AUG-CC-PVTZ-JKFIT

    Orbital Energies [Eh]
    ---------------------

    Doubly Occupied:

       1A    -20.624472     2A    -20.562080     3A    -15.552440
       4A    -11.395450     5A    -11.285426     6A    -11.232777
       7A     -1.456766     8A     -1.359528     9A     -1.195408
      10A     -1.022916    11A     -0.906864    12A     -0.790571
      13A     -0.710866    14A     -0.701915    15A     -0.670575
      16A     -0.626384    17A     -0.607708    18A     -0.596350
      19A     -0.551181    20A     -0.527474    21A     -0.515340
      22A     -0.487623    23A     -0.461669    24A     -0.415373

  @DF-RHF Final Energy:  -321.99280498865591

   => Energetics <=

    Nuclear Repulsion Energy =            247.7551921542527111
    One-Electron Energy =                -930.9816822102092146
    Two-Electron Energy =                 361.2336850673005415
    Total Energy =                       -321.9928049886559052
  Basis Set: (AUG-CC-PVTZ AUX)
    Blend: AUG-CC-PVTZ-RI
    Molecular point group: c1

    Geometry (in Angstrom), charge = 0, multiplicity = 1:

       Center              X                  Y                   Z               Mass
    ------------   -----------------  -----------------  -----------------  -----------------
         O            1.420602387468    -1.019716700968    -0.510867765494    15.994914619570
         O            1.263248987468     1.046383199032     0.489123734506    15.994914619570
         N           -1.507893012532     1.169050199032    -0.014589265494    14.003074004430
         C           -0.755415712532    -0.051770500968    -0.351634565494    12.000000000000
         C           -1.338816012532    -1.239478800968     0.412045734506    12.000000000000
         C            0.730982987468     0.085103199032    -0.063190265494    12.000000000000
         H           -0.857836012532    -0.221300800968    -1.425904265494     1.007825032230
         H           -2.403739012532    -1.313242800968     0.189220734506     1.007825032230
         H           -0.839584012532    -2.171270800968     0.124237734506     1.007825032230
         H           -1.221002012532    -1.101485800968     1.493767734506     1.007825032230
         H           -1.088246012532     1.963401199032    -0.506521265494     1.007825032230
         H           -1.368013012532     1.372229199032     0.978777734506     1.007825032230
         H            2.366913987468    -0.833364800968    -0.272686265494     1.007825032230

  Basis Set: AUG-CC-PVTZ
    Blend: AUG-CC-PVTZ
  Basis Set: (AUG-CC-PVTZ AUX)
    Blend: AUG-CC-PVTZ-JKFIT
	 Reference Energy          =    -321.9928049886559052 [Eh]
	 Singles Energy            =      -0.0000000000000000 [Eh]
	 Same-Spin Energy          =      -0.3173815703642795 [Eh]
	 Opposite-Spin Energy      =      -1.0017473940107595 [Eh]
	 Correlation Energy        =      -1.3191289643750390 [Eh]
	 Total Energy              =    -323.3119339530309162 [Eh]

	 ================> DF-SCS-MP2 Energies <==================
	-----------------------------------------------------------
	 SCS Same-Spin Scale       =       0.3333333333333333 [-]
	 SCS Opposite-Spin Scale   =       1.2000000000000000 [-]
	 SCS Same-Spin Energy      =      -0.1057938567880932 [Eh]
	 SCS Opposite-Spin Energy  =      -1.2020968728129113 [Eh]
	 SCS Correlation Energy    =      -1.3078907296010045 [Eh]
	 SCS Total Energy          =    -323.3006957182569181 [Eh]
	-----------------------------------------------------------

  Dipole Moment: [D]
     X:     0.6431      Y:    -1.1707      Z:    -0.3173     Total:     1.3728

*** Psi4 exiting successfully. Buy a developer a beer!
