                               Psi4 1.4a3.dev225

  ==> Input File <==

--------------------------------------------------------------------------
#psi4
#
memory 32 gb

molecule  {
0 1
  O       -1.6162430     0.8314800    -0.3809140
  O       -1.1510000    -1.1772170     0.5605200
  N        1.5455560    -1.0219050    -0.2870820
  C        0.6665940     0.1335400    -0.4023590
  C        1.1923300     1.2755990     0.4679010
  C       -0.7602991    -0.1880730    -0.0150721
  H        0.6629820     0.4626600    -1.4478320
  H        2.2238070     1.4912930     0.1836440
  H        0.5830780     2.1739270     0.3501650
  H        1.1794500     0.9804810     1.5223570
  H        1.2015560    -1.7655910    -0.8946420
  H        1.4549450    -1.3946670     0.6589060
  H       -2.5041220     0.5561110    -0.0708870
units angstrom
no_reorient  #important for SAPT in psi4, default
symmetry c1  #important for SAPT in psi4, default
}

set PROPERTIES_ORIGIN ["COM"]
properties('MP2/aug-cc-pvtz', properties = ['dipole'])
--------------------------------------------------------------------------

    Molecular point group: c1
  Charge       = 0
  Multiplicity = 1
  Basis Set: AUG-CC-PVTZ
    Blend: AUG-CC-PVTZ
  Basis Set: (AUG-CC-PVTZ AUX)
    Blend: AUG-CC-PVTZ-JKFIT

    Orbital Energies [Eh]
    ---------------------

    Doubly Occupied:

       1A    -20.616268     2A    -20.561587     3A    -15.552619
       4A    -11.390467     5A    -11.284056     6A    -11.232018
       7A     -1.460885     8A     -1.364423     9A     -1.203152
      10A     -1.024038    11A     -0.907262    12A     -0.790109
      13A     -0.713828    14A     -0.705265    15A     -0.672255
      16A     -0.629307    17A     -0.609280    18A     -0.597458
      19A     -0.550871    20A     -0.532856    21A     -0.511615
      22A     -0.490304    23A     -0.464225    24A     -0.415771

  @DF-RHF Final Energy:  -321.99763921738969

   => Energetics <=

    Nuclear Repulsion Energy =            248.9070334234103257
    One-Electron Energy =                -933.2495163007089332
    Two-Electron Energy =                 362.3448436599089177
    Total Energy =                       -321.9976392173896897
  Basis Set: (AUG-CC-PVTZ AUX)
    Blend: AUG-CC-PVTZ-RI
    Molecular point group: c1

    Geometry (in Angstrom), charge = 0, multiplicity = 1:

       Center              X                  Y                   Z               Mass
    ------------   -----------------  -----------------  -----------------  -----------------
         O           -1.564624447740     0.861388063038    -0.378246472200    15.994914619570
         O           -1.099381447740    -1.147308936962     0.563187527800    15.994914619570
         N            1.597174552260    -0.991996936962    -0.284414472200    14.003074004430
         C            0.718212552260     0.163448063038    -0.399691472200    12.000000000000
         C            1.243948552260     1.305507063038     0.470568527800    12.000000000000
         C           -0.708680547740    -0.158164936962    -0.012404572200    12.000000000000
         H            0.714600552260     0.492568063038    -1.445164472200     1.007825032230
         H            2.275425552260     1.521201063038     0.186311527800     1.007825032230
         H            0.634696552260     2.203835063038     0.352832527800     1.007825032230
         H            1.231068552260     1.010389063038     1.525024527800     1.007825032230
         H            1.253174552260    -1.735682936962    -0.891974472200     1.007825032230
         H            1.506563552260    -1.364758936962     0.661573527800     1.007825032230
         H           -2.452503447740     0.586019063038    -0.068219472200     1.007825032230

  Basis Set: AUG-CC-PVTZ
    Blend: AUG-CC-PVTZ
  Basis Set: (AUG-CC-PVTZ AUX)
    Blend: AUG-CC-PVTZ-JKFIT
	 Reference Energy          =    -321.9976392173896897 [Eh]
	 Singles Energy            =      -0.0000000000000000 [Eh]
	 Same-Spin Energy          =      -0.3166658018247416 [Eh]
	 Opposite-Spin Energy      =      -0.9996683757787892 [Eh]
	 Correlation Energy        =      -1.3163341776035309 [Eh]
	 Total Energy              =    -323.3139733949932406 [Eh]

	 ================> DF-SCS-MP2 Energies <==================
	-----------------------------------------------------------
	 SCS Same-Spin Scale       =       0.3333333333333333 [-]
	 SCS Opposite-Spin Scale   =       1.2000000000000000 [-]
	 SCS Same-Spin Energy      =      -0.1055552672749138 [Eh]
	 SCS Opposite-Spin Energy  =      -1.1996020509345471 [Eh]
	 SCS Correlation Energy    =      -1.3051573182094609 [Eh]
	 SCS Total Energy          =    -323.3027965355991569 [Eh]
	-----------------------------------------------------------

  Dipole Moment: [D]
     X:    -0.6923      Y:     0.9338      Z:    -0.2983     Total:     1.2001

*** Psi4 exiting successfully. Buy a developer a beer!
