                               Psi4 1.3.2 release

  ==> Input File <==

--------------------------------------------------------------------------
#psi4
#
memory 32 gb

molecule  {
0 1
  O        1.3879396    -1.0363804    -0.5237677
  O        1.2230674     1.0623024     0.4912097
  N       -1.5094500     1.1665790    -0.0160500
  C       -0.7590880    -0.0423940    -0.3475120
  C       -1.3403730    -1.2419500     0.4105850
  C        0.7294260     0.0826320    -0.0646510
  H       -0.8593930    -0.2237720    -1.4273650
  H       -2.4052960    -1.3157140     0.1877600
  H       -0.8411410    -2.1737420     0.1227770
  H       -1.2225590    -1.1039570     1.4923070
  H       -1.0898030     1.9609300    -0.5079820
  H       -1.3695700     1.3697580     0.9773170
  H        2.3653570    -0.8358360    -0.2741470
units angstrom
no_reorient  #important for SAPT in psi4, default
symmetry c1  #important for SAPT in psi4, default
}

set PROPERTIES_ORIGIN ["COM"]
properties('MP2/aug-cc-pvtz', properties = ['dipole'])
--------------------------------------------------------------------------

    Molecular point group: c1
  Charge       = 0
  Multiplicity = 1
  Basis Set: AUG-CC-PVTZ
    Blend: AUG-CC-PVTZ
  Basis Set: (AUG-CC-PVTZ AUX)
    Blend: AUG-CC-PVTZ-JKFIT

    Orbital Energies [Eh]
    ---------------------

    Doubly Occupied:

       1A    -20.632283     2A    -20.563720     3A    -15.550180
       4A    -11.395442     5A    -11.281635     6A    -11.230981
       7A     -1.453904     8A     -1.362267     9A     -1.195906
      10A     -1.019124    11A     -0.902942    12A     -0.784485
      13A     -0.711083    14A     -0.700901    15A     -0.670533
      16A     -0.626869    17A     -0.607123    18A     -0.594893
      19A     -0.550764    20A     -0.528044    21A     -0.510449
      22A     -0.489370    23A     -0.460732    24A     -0.412681

  @DF-RHF Final Energy:  -321.98656096874242

   => Energetics <=

    Nuclear Repulsion Energy =            248.0194125540101027
    One-Electron Energy =                -931.5393261282156345
    Two-Electron Energy =                 361.5333526054630511
    Total Energy =                       -321.9865609687424239
  Basis Set: (AUG-CC-PVTZ AUX)
    Blend: AUG-CC-PVTZ-RI
    Molecular point group: c1

    Geometry (in Angstrom), charge = 0, multiplicity = 1:

       Center              X                  Y                   Z               Mass
    ------------   -----------------  -----------------  -----------------  -----------------
         O            1.402306751797    -1.036259823192    -0.521641700945    15.994914619570
         O            1.237434551797     1.062422976808     0.493335699055    15.994914619570
         N           -1.495082848203     1.166699576808    -0.013924000945    14.003074004430
         C           -0.744720848203    -0.042273423192    -0.345386000945    12.000000000000
         C           -1.326005848203    -1.241829423192     0.412710999055    12.000000000000
         C            0.743793151797     0.082752576808    -0.062525000945    12.000000000000
         H           -0.845025848203    -0.223651423192    -1.425239000945     1.007825032230
         H           -2.390928848203    -1.315593423192     0.189885999055     1.007825032230
         H           -0.826773848203    -2.173621423192     0.124902999055     1.007825032230
         H           -1.208191848203    -1.103836423192     1.494432999055     1.007825032230
         H           -1.075435848203     1.961050576808    -0.505856000945     1.007825032230
         H           -1.355202848203     1.369878576808     0.979442999055     1.007825032230
         H            2.379724151797    -0.835715423192    -0.272021000945     1.007825032230

  Basis Set: AUG-CC-PVTZ
    Blend: AUG-CC-PVTZ
  Basis Set: (AUG-CC-PVTZ AUX)
    Blend: AUG-CC-PVTZ-JKFIT
	 Reference Energy          =    -321.9865609687424239 [Eh]
	 Singles Energy            =      -0.0000000000000000 [Eh]
	 Same-Spin Energy          =      -0.3182690829167648 [Eh]
	 Opposite-Spin Energy      =      -1.0035251014004687 [Eh]
	 Correlation Energy        =      -1.3217941843172336 [Eh]
	 Total Energy              =    -323.3083551530596651 [Eh]

	 ================> DF-SCS-MP2 Energies <==================
	-----------------------------------------------------------
	 SCS Same-Spin Scale       =       0.3333333333333333 [-]
	 SCS Opposite-Spin Scale   =       1.2000000000000000 [-]
	 SCS Same-Spin Energy      =      -0.1060896943055883 [Eh]
	 SCS Opposite-Spin Energy  =      -1.2042301216805624 [Eh]
	 SCS Correlation Energy    =      -1.3103198159861507 [Eh]
	 SCS Total Energy          =    -323.2968807847285575 [Eh]
	-----------------------------------------------------------

  Dipole Moment: [D]
     X:     0.8307      Y:    -1.1800      Z:    -0.3116     Total:     1.4763

*** Psi4 exiting successfully. Buy a developer a beer!
