                               Psi4 1.3.2 release

  ==> Input File <==

--------------------------------------------------------------------------
#psi4
#
memory 32 gb

molecule  {
0 1
  O        1.4293010    -1.0173190    -0.5083850
  O        1.2424716     1.0533013     0.4894270
  N       -1.5094500     1.1665790    -0.0160500
  C       -0.7629628    -0.0186193    -0.3363854
  C       -1.3403730    -1.2419500     0.4105850
  C        0.7294260     0.0826320    -0.0646510
  H       -0.8593930    -0.2237720    -1.4273650
  H       -2.4052960    -1.3157140     0.1877600
  H       -0.8411410    -2.1737420     0.1227770
  H       -1.2225590    -1.1039570     1.4923070
  H       -1.0898030     1.9609300    -0.5079820
  H       -1.3695700     1.3697580     0.9773170
  H        2.3653570    -0.8358360    -0.2741470
units angstrom
no_reorient  #important for SAPT in psi4, default
symmetry c1  #important for SAPT in psi4, default
}

set PROPERTIES_ORIGIN ["COM"]
properties('MP2/aug-cc-pvtz', properties = ['dipole'])
--------------------------------------------------------------------------

    Molecular point group: c1
  Charge       = 0
  Multiplicity = 1
  Basis Set: AUG-CC-PVTZ
    Blend: AUG-CC-PVTZ
  Basis Set: (AUG-CC-PVTZ AUX)
    Blend: AUG-CC-PVTZ-JKFIT

    Orbital Energies [Eh]
    ---------------------

    Doubly Occupied:

       1A    -20.624865     2A    -20.560264     3A    -15.553430
       4A    -11.394271     5A    -11.285374     6A    -11.232570
       7A     -1.457439     8A     -1.360684     9A     -1.205540
      10A     -1.019230    11A     -0.905439    12A     -0.792055
      13A     -0.711457    14A     -0.702715    15A     -0.675400
      16A     -0.626623    17A     -0.610409    18A     -0.595383
      19A     -0.550563    20A     -0.533253    21A     -0.506417
      22A     -0.485421    23A     -0.461551    24A     -0.415964

  @DF-RHF Final Energy:  -321.99323145416213

   => Energetics <=

    Nuclear Repulsion Energy =            248.0227611514646640
    One-Electron Energy =                -931.4993532505957319
    Two-Electron Energy =                 361.4833606449689114
    Total Energy =                       -321.9932314541621281
  Basis Set: (AUG-CC-PVTZ AUX)
    Blend: AUG-CC-PVTZ-RI
    Molecular point group: c1

    Geometry (in Angstrom), charge = 0, multiplicity = 1:

       Center              X                  Y                   Z               Mass
    ------------   -----------------  -----------------  -----------------  -----------------
         O            1.433275483513    -1.022209334731    -0.510201271477    15.994914619570
         O            1.246446083513     1.048410965269     0.487610728523    15.994914619570
         N           -1.505475516487     1.161688665269    -0.017866271477    14.003074004430
         C           -0.758988316487    -0.023509634731    -0.338201671477    12.000000000000
         C           -1.336398516487    -1.246840334731     0.408768728523    12.000000000000
         C            0.733400483513     0.077741665269    -0.066467271477    12.000000000000
         H           -0.855418516487    -0.228662334731    -1.429181271477     1.007825032230
         H           -2.401321516487    -1.320604334731     0.185943728523     1.007825032230
         H           -0.837166516487    -2.178632334731     0.120960728523     1.007825032230
         H           -1.218584516487    -1.108847334731     1.490490728523     1.007825032230
         H           -1.085828516487     1.956039665269    -0.509798271477     1.007825032230
         H           -1.365595516487     1.364867665269     0.975500728523     1.007825032230
         H            2.369331483513    -0.840726334731    -0.275963271477     1.007825032230

  Basis Set: AUG-CC-PVTZ
    Blend: AUG-CC-PVTZ
  Basis Set: (AUG-CC-PVTZ AUX)
    Blend: AUG-CC-PVTZ-JKFIT
	 Reference Energy          =    -321.9932314541621281 [Eh]
	 Singles Energy            =      -0.0000000000000000 [Eh]
	 Same-Spin Energy          =      -0.3172970809512802 [Eh]
	 Opposite-Spin Energy      =      -1.0011767397814340 [Eh]
	 Correlation Energy        =      -1.3184738207327142 [Eh]
	 Total Energy              =    -323.3117052748948481 [Eh]

	 ================> DF-SCS-MP2 Energies <==================
	-----------------------------------------------------------
	 SCS Same-Spin Scale       =       0.3333333333333333 [-]
	 SCS Opposite-Spin Scale   =       1.2000000000000000 [-]
	 SCS Same-Spin Energy      =      -0.1057656936504267 [Eh]
	 SCS Opposite-Spin Energy  =      -1.2014120877377208 [Eh]
	 SCS Correlation Energy    =      -1.3071777813881476 [Eh]
	 SCS Total Energy          =    -323.3004092355502621 [Eh]
	-----------------------------------------------------------

  Dipole Moment: [D]
     X:     0.6212      Y:    -1.1110      Z:    -0.3103     Total:     1.3102

*** Psi4 exiting successfully. Buy a developer a beer!
