                               Psi4 1.3.2 release

  ==> Input File <==

--------------------------------------------------------------------------
#psi4
#
memory 32 gb

molecule  {
0 1
  O        1.4293010    -1.0173190    -0.5083850
  O        1.2616920     1.0439120     0.4876630
  N       -1.5094500     1.1665790    -0.0160500
  C       -0.7511966    -0.0438628    -0.3233094
  C       -1.3403730    -1.2419500     0.4105850
  C        0.7294260     0.0826320    -0.0646510
  H       -0.8593930    -0.2237720    -1.4273650
  H       -2.4052960    -1.3157140     0.1877600
  H       -0.8411410    -2.1737420     0.1227770
  H       -1.2225590    -1.1039570     1.4923070
  H       -1.0898030     1.9609300    -0.5079820
  H       -1.3591191     1.3553303     0.9786357
  H        2.3653570    -0.8358360    -0.2741470
units angstrom
no_reorient  #important for SAPT in psi4, default
symmetry c1  #important for SAPT in psi4, default
}

set PROPERTIES_ORIGIN ["COM"]
properties('MP2/aug-cc-pvtz', properties = ['dipole'])
--------------------------------------------------------------------------

    Molecular point group: c1
  Charge       = 0
  Multiplicity = 1
  Basis Set: AUG-CC-PVTZ
    Blend: AUG-CC-PVTZ
  Basis Set: (AUG-CC-PVTZ AUX)
    Blend: AUG-CC-PVTZ-JKFIT

    Orbital Energies [Eh]
    ---------------------

    Doubly Occupied:

       1A    -20.623398     2A    -20.561215     3A    -15.553965
       4A    -11.395271     5A    -11.286474     6A    -11.232958
       7A     -1.458265     8A     -1.359979     9A     -1.200590
      10A     -1.024383    11A     -0.909070    12A     -0.789804
      13A     -0.711659    14A     -0.702699    15A     -0.674713
      16A     -0.627566    17A     -0.608690    18A     -0.593799
      19A     -0.552543    20A     -0.531826    21A     -0.507608
      22A     -0.486511    23A     -0.462197    24A     -0.418444

  @DF-RHF Final Energy:  -321.99311493745108

   => Energetics <=

    Nuclear Repulsion Energy =            248.0797797064736017
    One-Electron Energy =                -931.5985338671117688
    Two-Electron Energy =                 361.5256392231871132
    Total Energy =                       -321.9931149374510824
  Basis Set: (AUG-CC-PVTZ AUX)
    Blend: AUG-CC-PVTZ-RI
    Molecular point group: c1

    Geometry (in Angstrom), charge = 0, multiplicity = 1:

       Center              X                  Y                   Z               Mass
    ------------   -----------------  -----------------  -----------------  -----------------
         O            1.428119192597    -1.016957725064    -0.511661455412    15.994914619570
         O            1.260510192597     1.044273274936     0.484386544588    15.994914619570
         N           -1.510631807403     1.166940274936    -0.019326455412    14.003074004430
         C           -0.752378407403    -0.043501525064    -0.326585855412    12.000000000000
         C           -1.341554807403    -1.241588725064     0.407308544588    12.000000000000
         C            0.728244192597     0.082993274936    -0.067927455412    12.000000000000
         H           -0.860574807403    -0.223410725064    -1.430641455412     1.007825032230
         H           -2.406477807403    -1.315352725064     0.184483544588     1.007825032230
         H           -0.842322807403    -2.173380725064     0.119500544588     1.007825032230
         H           -1.223740807403    -1.103595725064     1.489030544588     1.007825032230
         H           -1.090984807403     1.961291274936    -0.511258455412     1.007825032230
         H           -1.360300907403     1.355691574936     0.975359244588     1.007825032230
         H            2.364175192597    -0.835474725064    -0.277423455412     1.007825032230

  Basis Set: AUG-CC-PVTZ
    Blend: AUG-CC-PVTZ
  Basis Set: (AUG-CC-PVTZ AUX)
    Blend: AUG-CC-PVTZ-JKFIT
	 Reference Energy          =    -321.9931149374510824 [Eh]
	 Singles Energy            =      -0.0000000000000000 [Eh]
	 Same-Spin Energy          =      -0.3173461416323374 [Eh]
	 Opposite-Spin Energy      =      -1.0014458997093021 [Eh]
	 Correlation Energy        =      -1.3187920413416396 [Eh]
	 Total Energy              =    -323.3119069787927060 [Eh]

	 ================> DF-SCS-MP2 Energies <==================
	-----------------------------------------------------------
	 SCS Same-Spin Scale       =       0.3333333333333333 [-]
	 SCS Opposite-Spin Scale   =       1.2000000000000000 [-]
	 SCS Same-Spin Energy      =      -0.1057820472107791 [Eh]
	 SCS Opposite-Spin Energy  =      -1.2017350796511626 [Eh]
	 SCS Correlation Energy    =      -1.3075171268619417 [Eh]
	 SCS Total Energy          =    -323.3006320643130493 [Eh]
	-----------------------------------------------------------

  Dipole Moment: [D]
     X:     0.6026      Y:    -1.1578      Z:    -0.3030     Total:     1.3400

*** Psi4 exiting successfully. Buy a developer a beer!
