                               Psi4 1.3.2 release

  ==> Input File <==

--------------------------------------------------------------------------
#psi4
#
memory 32 gb

molecule  {
0 1
  O        1.4293010    -1.0173190    -0.5083850
  O        1.2616920     1.0439120     0.4876630
  N       -1.5201989     1.1608895    -0.0198765
  C       -0.7590880    -0.0423940    -0.3475120
  C       -1.3403730    -1.2419500     0.4105850
  C        0.7312332     0.0702248    -0.0689881
  H       -0.8593930    -0.2237720    -1.4273650
  H       -2.4052960    -1.3157140     0.1877600
  H       -0.8411410    -2.1737420     0.1227770
  H       -1.2225590    -1.1039570     1.4923070
  H       -1.0898030     1.9609300    -0.5079820
  H       -1.3695700     1.3697580     0.9773170
  H        2.3653570    -0.8358360    -0.2741470
units angstrom
no_reorient  #important for SAPT in psi4, default
symmetry c1  #important for SAPT in psi4, default
}

set PROPERTIES_ORIGIN ["COM"]
properties('MP2/aug-cc-pvtz', properties = ['dipole'])
--------------------------------------------------------------------------

    Molecular point group: c1
  Charge       = 0
  Multiplicity = 1
  Basis Set: AUG-CC-PVTZ
    Blend: AUG-CC-PVTZ
  Basis Set: (AUG-CC-PVTZ AUX)
    Blend: AUG-CC-PVTZ-JKFIT

    Orbital Energies [Eh]
    ---------------------

    Doubly Occupied:

       1A    -20.626856     2A    -20.558839     3A    -15.555326
       4A    -11.396147     5A    -11.286041     6A    -11.232896
       7A     -1.460982     8A     -1.355400     9A     -1.198198
      10A     -1.022124    11A     -0.908256    12A     -0.795446
      13A     -0.711550    14A     -0.703104    15A     -0.670705
      16A     -0.627966    17A     -0.608267    18A     -0.594125
      19A     -0.550228    20A     -0.528706    21A     -0.512220
      22A     -0.483319    23A     -0.460474    24A     -0.418201

  @DF-RHF Final Energy:  -321.99260021187109

   => Energetics <=

    Nuclear Repulsion Energy =            247.6899414071604895
    One-Electron Energy =                -930.8343336871279234
    Two-Electron Energy =                 361.1517920680963130
    Total Energy =                       -321.9926002118710926
  Basis Set: (AUG-CC-PVTZ AUX)
    Blend: AUG-CC-PVTZ-RI
    Molecular point group: c1

    Geometry (in Angstrom), charge = 0, multiplicity = 1:

       Center              X                  Y                   Z               Mass
    ------------   -----------------  -----------------  -----------------  -----------------
         O            1.430747680221    -1.014752269563    -0.507198810362    15.994914619570
         O            1.263138680221     1.046478730437     0.488849189638    15.994914619570
         N           -1.518752219779     1.163456230437    -0.018690310362    14.003074004430
         C           -0.757641319779    -0.039827269563    -0.346325810362    12.000000000000
         C           -1.338926319779    -1.239383269563     0.411771189638    12.000000000000
         C            0.732679880221     0.072791530437    -0.067801910362    12.000000000000
         H           -0.857946319779    -0.221205269563    -1.426178810362     1.007825032230
         H           -2.403849319779    -1.313147269563     0.188946189638     1.007825032230
         H           -0.839694319779    -2.171175269563     0.123963189638     1.007825032230
         H           -1.221112319779    -1.101390269563     1.493493189638     1.007825032230
         H           -1.088356319779     1.963496730437    -0.506795810362     1.007825032230
         H           -1.368123319779     1.372324730437     0.978503189638     1.007825032230
         H            2.366803680221    -0.833269269563    -0.272960810362     1.007825032230

  Basis Set: AUG-CC-PVTZ
    Blend: AUG-CC-PVTZ
  Basis Set: (AUG-CC-PVTZ AUX)
    Blend: AUG-CC-PVTZ-JKFIT
	 Reference Energy          =    -321.9926002118710926 [Eh]
	 Singles Energy            =      -0.0000000000000000 [Eh]
	 Same-Spin Energy          =      -0.3174231019306252 [Eh]
	 Opposite-Spin Energy      =      -1.0016945912305202 [Eh]
	 Correlation Energy        =      -1.3191176931611452 [Eh]
	 Total Energy              =    -323.3117179050322534 [Eh]

	 ================> DF-SCS-MP2 Energies <==================
	-----------------------------------------------------------
	 SCS Same-Spin Scale       =       0.3333333333333333 [-]
	 SCS Opposite-Spin Scale   =       1.2000000000000000 [-]
	 SCS Same-Spin Energy      =      -0.1058077006435417 [Eh]
	 SCS Opposite-Spin Energy  =      -1.2020335094766241 [Eh]
	 SCS Correlation Energy    =      -1.3078412101201660 [Eh]
	 SCS Total Energy          =    -323.3004414219912519 [Eh]
	-----------------------------------------------------------

  Dipole Moment: [D]
     X:     0.6440      Y:    -1.2294      Z:    -0.3533     Total:     1.4322

*** Psi4 exiting successfully. Buy a developer a beer!
