                               Psi4 1.3.2 release

  ==> Input File <==

--------------------------------------------------------------------------
#psi4
#
memory 32 gb

molecule  {
0 1
  O        1.4087237    -1.0270187    -0.5161451
  O        1.2424578     1.0532550     0.4895208
  N       -1.5094500     1.1665790    -0.0160500
  C       -0.7590880    -0.0423940    -0.3475120
  C       -1.3403730    -1.2419500     0.4105850
  C        0.7294260     0.0826320    -0.0646510
  H       -0.8593930    -0.2237720    -1.4273650
  H       -2.4052960    -1.3157140     0.1877600
  H       -0.8411410    -2.1737420     0.1227770
  H       -1.2225590    -1.1039570     1.4923070
  H       -1.0898030     1.9609300    -0.5079820
  H       -1.3695700     1.3697580     0.9773170
  H        2.3653570    -0.8358360    -0.2741470
units angstrom
no_reorient  #important for SAPT in psi4, default
symmetry c1  #important for SAPT in psi4, default
}

set PROPERTIES_ORIGIN ["COM"]
properties('MP2/aug-cc-pvtz', properties = ['dipole'])
--------------------------------------------------------------------------

    Molecular point group: c1
  Charge       = 0
  Multiplicity = 1
  Basis Set: AUG-CC-PVTZ
    Blend: AUG-CC-PVTZ
  Basis Set: (AUG-CC-PVTZ AUX)
    Blend: AUG-CC-PVTZ-JKFIT

    Orbital Energies [Eh]
    ---------------------

    Doubly Occupied:

       1A    -20.627740     2A    -20.562381     3A    -15.551741
       4A    -11.395175     5A    -11.283868     6A    -11.232010
       7A     -1.455673     8A     -1.360835     9A     -1.197563
      10A     -1.020672    11A     -0.904967    12A     -0.788279
      13A     -0.711036    14A     -0.701706    15A     -0.671448
      16A     -0.626631    17A     -0.607968    18A     -0.595705
      19A     -0.550882    20A     -0.528912    21A     -0.511521
      22A     -0.488033    23A     -0.461316    24A     -0.414496

  @DF-RHF Final Energy:  -321.99113329718585

   => Energetics <=

    Nuclear Repulsion Energy =            247.9065636073018197
    One-Electron Energy =                -931.2942765259157341
    Two-Electron Energy =                 361.3965796214280886
    Total Energy =                       -321.9911332971858542
  Basis Set: (AUG-CC-PVTZ AUX)
    Blend: AUG-CC-PVTZ-RI
    Molecular point group: c1

    Geometry (in Angstrom), charge = 0, multiplicity = 1:

       Center              X                  Y                   Z               Mass
    ------------   -----------------  -----------------  -----------------  -----------------
         O            1.415874631134    -1.026954578361    -0.515084923508    15.994914619570
         O            1.249608731134     1.053319121639     0.490580976492    15.994914619570
         N           -1.502299068866     1.166643121639    -0.014989823508    14.003074004430
         C           -0.751937068866    -0.042329878361    -0.346451823508    12.000000000000
         C           -1.333222068866    -1.241885878361     0.411645176492    12.000000000000
         C            0.736576931134     0.082696121639    -0.063590823508    12.000000000000
         H           -0.852242068866    -0.223707878361    -1.426304823508     1.007825032230
         H           -2.398145068866    -1.315649878361     0.188820176492     1.007825032230
         H           -0.833990068866    -2.173677878361     0.123837176492     1.007825032230
         H           -1.215408068866    -1.103892878361     1.493367176492     1.007825032230
         H           -1.082652068866     1.960994121639    -0.506921823508     1.007825032230
         H           -1.362419068866     1.369822121639     0.978377176492     1.007825032230
         H            2.372507931134    -0.835771878361    -0.273086823508     1.007825032230

  Basis Set: AUG-CC-PVTZ
    Blend: AUG-CC-PVTZ
  Basis Set: (AUG-CC-PVTZ AUX)
    Blend: AUG-CC-PVTZ-JKFIT
	 Reference Energy          =    -321.9911332971858542 [Eh]
	 Singles Energy            =      -0.0000000000000000 [Eh]
	 Same-Spin Energy          =      -0.3176996092082784 [Eh]
	 Opposite-Spin Energy      =      -1.0022991120904394 [Eh]
	 Correlation Energy        =      -1.3199987212987179 [Eh]
	 Total Energy              =    -323.3111320184845567 [Eh]

	 ================> DF-SCS-MP2 Energies <==================
	-----------------------------------------------------------
	 SCS Same-Spin Scale       =       0.3333333333333333 [-]
	 SCS Opposite-Spin Scale   =       1.2000000000000000 [-]
	 SCS Same-Spin Energy      =      -0.1058998697360928 [Eh]
	 SCS Opposite-Spin Energy  =      -1.2027589345085272 [Eh]
	 SCS Correlation Energy    =      -1.3086588042446201 [Eh]
	 SCS Total Energy          =    -323.2997921014304552 [Eh]
	-----------------------------------------------------------

  Dipole Moment: [D]
     X:     0.7145      Y:    -1.1631      Z:    -0.3140     Total:     1.4007

*** Psi4 exiting successfully. Buy a developer a beer!
