                               Psi4 1.4a3.dev225

  ==> Input File <==

--------------------------------------------------------------------------
#psi4
#
memory 32 gb

molecule  {
0 1
  O       -1.6162430     0.8314800    -0.3809140
  O       -1.1510000    -1.1772170     0.5605200
  N        1.5455560    -1.0219050    -0.2870820
  C        0.6665940     0.1335400    -0.4023590
  C        1.1923300     1.2755990     0.4679010
  C       -0.7726990    -0.1733030    -0.0203720
  H        0.6629820     0.4626600    -1.4478320
  H        2.2238070     1.4912930     0.1836440
  H        0.5830780     2.1739270     0.3501650
  H        1.1794500     0.9804810     1.5223570
  H        1.2015560    -1.7655910    -0.8946420
  H        1.4549450    -1.3946670     0.6589060
  H       -2.5222432     0.5504909    -0.0645595
units angstrom
no_reorient  #important for SAPT in psi4, default
symmetry c1  #important for SAPT in psi4, default
}

set PROPERTIES_ORIGIN ["COM"]
properties('MP2/aug-cc-pvtz', properties = ['dipole'])
--------------------------------------------------------------------------

    Molecular point group: c1
  Charge       = 0
  Multiplicity = 1
  Basis Set: AUG-CC-PVTZ
    Blend: AUG-CC-PVTZ
  Basis Set: (AUG-CC-PVTZ AUX)
    Blend: AUG-CC-PVTZ-JKFIT

    Orbital Energies [Eh]
    ---------------------

    Doubly Occupied:

       1A    -20.623160     2A    -20.557882     3A    -15.551937
       4A    -11.390258     5A    -11.283526     6A    -11.231358
       7A     -1.462492     8A     -1.360728     9A     -1.201351
      10A     -1.022876    11A     -0.905959    12A     -0.792070
      13A     -0.711685    14A     -0.706034    15A     -0.671558
      16A     -0.631638    17A     -0.607523    18A     -0.595906
      19A     -0.549637    20A     -0.532215    21A     -0.511241
      22A     -0.486617    23A     -0.461706    24A     -0.414946

  @DF-RHF Final Energy:  -321.99624502912576

   => Energetics <=

    Nuclear Repulsion Energy =            248.7476043368761793
    One-Electron Energy =                -932.9590949144918568
    Two-Electron Energy =                 362.2152455484899178
    Total Energy =                       -321.9962450291257596
  Basis Set: (AUG-CC-PVTZ AUX)
    Blend: AUG-CC-PVTZ-RI
    Molecular point group: c1

    Geometry (in Angstrom), charge = 0, multiplicity = 1:

       Center              X                  Y                   Z               Mass
    ------------   -----------------  -----------------  -----------------  -----------------
         O           -1.562748353924     0.859461275889    -0.377603875019    15.994914619570
         O           -1.097505353924    -1.149235724111     0.563830124981    15.994914619570
         N            1.599050646076    -0.993923724111    -0.283771875019    14.003074004430
         C            0.720088646076     0.161521275889    -0.399048875019    12.000000000000
         C            1.245824646076     1.303580275889     0.471211124981    12.000000000000
         C           -0.719204353924    -0.145321724111    -0.017061875019    12.000000000000
         H            0.716476646076     0.490641275889    -1.444521875019     1.007825032230
         H            2.277301646076     1.519274275889     0.186954124981     1.007825032230
         H            0.636572646076     2.201908275889     0.353475124981     1.007825032230
         H            1.232944646076     1.008462275889     1.525667124981     1.007825032230
         H            1.255050646076    -1.737609724111    -0.891331875019     1.007825032230
         H            1.508439646076    -1.366685724111     0.662216124981     1.007825032230
         H           -2.468748553924     0.578472175889    -0.061249375019     1.007825032230

  Basis Set: AUG-CC-PVTZ
    Blend: AUG-CC-PVTZ
  Basis Set: (AUG-CC-PVTZ AUX)
    Blend: AUG-CC-PVTZ-JKFIT
	 Reference Energy          =    -321.9962450291257596 [Eh]
	 Singles Energy            =      -0.0000000000000000 [Eh]
	 Same-Spin Energy          =      -0.3169977828221838 [Eh]
	 Opposite-Spin Energy      =      -1.0002706389813656 [Eh]
	 Correlation Energy        =      -1.3172684218035493 [Eh]
	 Total Energy              =    -323.3135134509292925 [Eh]

	 ================> DF-SCS-MP2 Energies <==================
	-----------------------------------------------------------
	 SCS Same-Spin Scale       =       0.3333333333333333 [-]
	 SCS Opposite-Spin Scale   =       1.2000000000000000 [-]
	 SCS Same-Spin Energy      =      -0.1056659276073946 [Eh]
	 SCS Opposite-Spin Energy  =      -1.2003247667776387 [Eh]
	 SCS Correlation Energy    =      -1.3059906943850332 [Eh]
	 SCS Total Energy          =    -323.3022357235108188 [Eh]
	-----------------------------------------------------------

  Dipole Moment: [D]
     X:    -0.8090      Y:     1.0484      Z:    -0.3441     Total:     1.3683

*** Psi4 exiting successfully. Buy a developer a beer!
