                               Psi4 1.3.2 release

  ==> Input File <==

--------------------------------------------------------------------------
#psi4
#
memory 32 gb

molecule  {
0 1
  O        1.4293010    -1.0173190    -0.5083850
  O        1.2616920     1.0439120     0.4876630
  N       -1.5094500     1.1665790    -0.0160500
  C       -0.7590880    -0.0423940    -0.3475120
  C       -1.3403730    -1.2419500     0.4105850
  C        0.9252443     0.0990795    -0.0274398
  H       -0.8593930    -0.2237720    -1.4273650
  H       -2.4052960    -1.3157140     0.1877600
  H       -0.8411410    -2.1737420     0.1227770
  H       -1.2225590    -1.1039570     1.4923070
  H       -1.0898030     1.9609300    -0.5079820
  H       -1.3695700     1.3697580     0.9773170
  H        2.3653570    -0.8358360    -0.2741470
units angstrom
no_reorient  #important for SAPT in psi4, default
symmetry c1  #important for SAPT in psi4, default
}

set PROPERTIES_ORIGIN ["COM"]
properties('MP2/aug-cc-pvtz', properties = ['dipole'])
--------------------------------------------------------------------------

    Molecular point group: c1
  Charge       = 0
  Multiplicity = 1
  Basis Set: AUG-CC-PVTZ
    Blend: AUG-CC-PVTZ
  Basis Set: (AUG-CC-PVTZ AUX)
    Blend: AUG-CC-PVTZ-JKFIT

    Orbital Energies [Eh]
    ---------------------

    Doubly Occupied:

       1A    -20.642332     2A    -20.572944     3A    -15.543009
       4A    -11.385355     5A    -11.268886     6A    -11.218511
       7A     -1.510165     8A     -1.431731     9A     -1.179433
      10A     -0.994192    11A     -0.875469    12A     -0.791035
      13A     -0.742092    14A     -0.710093    15A     -0.676579
      16A     -0.649999    17A     -0.617439    18A     -0.586451
      19A     -0.555813    20A     -0.530156    21A     -0.514546
      22A     -0.494131    23A     -0.454610    24A     -0.371690

  @DF-RHF Final Energy:  -321.95878635233805

   => Energetics <=

    Nuclear Repulsion Energy =            247.8124557603399296
    One-Electron Energy =                -930.9091614797498551
    Two-Electron Energy =                 361.1379193670718450
    Total Energy =                       -321.9587863523380520
  Basis Set: (AUG-CC-PVTZ AUX)
    Blend: AUG-CC-PVTZ-RI
    Molecular point group: c1

    Geometry (in Angstrom), charge = 0, multiplicity = 1:

       Center              X                  Y                   Z               Mass
    ------------   -----------------  -----------------  -----------------  -----------------
         O            1.402912582386    -1.019535402564    -0.513399560029    15.994914619570
         O            1.235303582386     1.041695597436     0.482648439971    15.994914619570
         N           -1.535838417614     1.164362597436    -0.021064560029    14.003074004430
         C           -0.785476417614    -0.044610402564    -0.352526560029    12.000000000000
         C           -1.366761417614    -1.244166402564     0.405570439971    12.000000000000
         C            0.898855882386     0.096863097436    -0.032454360029    12.000000000000
         H           -0.885781417614    -0.225988402564    -1.432379560029     1.007825032230
         H           -2.431684417614    -1.317930402564     0.182745439971     1.007825032230
         H           -0.867529417614    -2.175958402564     0.117762439971     1.007825032230
         H           -1.248947417614    -1.106173402564     1.487292439971     1.007825032230
         H           -1.116191417614     1.958713597436    -0.512996560029     1.007825032230
         H           -1.395958417614     1.367541597436     0.972302439971     1.007825032230
         H            2.338968582386    -0.838052402564    -0.279161560029     1.007825032230

  Basis Set: AUG-CC-PVTZ
    Blend: AUG-CC-PVTZ
  Basis Set: (AUG-CC-PVTZ AUX)
    Blend: AUG-CC-PVTZ-JKFIT
	 Reference Energy          =    -321.9587863523380520 [Eh]
	 Singles Energy            =      -0.0000000000000000 [Eh]
	 Same-Spin Energy          =      -0.3160572289735799 [Eh]
	 Opposite-Spin Energy      =      -0.9985155178501774 [Eh]
	 Correlation Energy        =      -1.3145727468237574 [Eh]
	 Total Energy              =    -323.2733590991618371 [Eh]

	 ================> DF-SCS-MP2 Energies <==================
	-----------------------------------------------------------
	 SCS Same-Spin Scale       =       0.3333333333333333 [-]
	 SCS Opposite-Spin Scale   =       1.2000000000000000 [-]
	 SCS Same-Spin Energy      =      -0.1053524096578600 [Eh]
	 SCS Opposite-Spin Energy  =      -1.1982186214202128 [Eh]
	 SCS Correlation Energy    =      -1.3035710310780728 [Eh]
	 SCS Total Energy          =    -323.2623573834161448 [Eh]
	-----------------------------------------------------------

  Dipole Moment: [D]
     X:     1.7242      Y:    -0.9928      Z:    -0.1881     Total:     1.9984

*** Psi4 exiting successfully. Buy a developer a beer!
