                               Psi4 1.4a3.dev225

  ==> Input File <==

--------------------------------------------------------------------------
#psi4
#
memory 32 gb

molecule  {
0 1
  O       -1.6162430     0.8314800    -0.3809140
  O       -1.1510000    -1.1772170     0.5605200
  N        1.5455560    -1.0219050    -0.2870820
  C        0.6665940     0.1335400    -0.4023590
  C        1.1923300     1.2755990     0.4679010
  C       -0.7850989    -0.1585330    -0.0256719
  H        0.6629820     0.4626600    -1.4478320
  H        2.2238070     1.4912930     0.1836440
  H        0.5830780     2.1739270     0.3501650
  H        1.1794500     0.9804810     1.5223570
  H        1.2015560    -1.7655910    -0.8946420
  H        1.4549450    -1.3946670     0.6589060
  H       -2.5041220     0.5561110    -0.0708870
units angstrom
no_reorient  #important for SAPT in psi4, default
symmetry c1  #important for SAPT in psi4, default
}

set PROPERTIES_ORIGIN ["COM"]
properties('MP2/aug-cc-pvtz', properties = ['dipole'])
--------------------------------------------------------------------------

    Molecular point group: c1
  Charge       = 0
  Multiplicity = 1
  Basis Set: AUG-CC-PVTZ
    Blend: AUG-CC-PVTZ
  Basis Set: (AUG-CC-PVTZ AUX)
    Blend: AUG-CC-PVTZ-JKFIT

    Orbital Energies [Eh]
    ---------------------

    Doubly Occupied:

       1A    -20.627609     2A    -20.554924     3A    -15.551485
       4A    -11.390844     5A    -11.283263     6A    -11.230975
       7A     -1.471932     8A     -1.359066     9A     -1.199910
      10A     -1.022741    11A     -0.908133    12A     -0.799245
      13A     -0.713884    14A     -0.707986    15A     -0.671587
      16A     -0.636129    17A     -0.608392    18A     -0.594567
      19A     -0.549042    20A     -0.531881    21A     -0.511255
      22A     -0.483530    23A     -0.459576    24A     -0.414369

  @DF-RHF Final Energy:  -321.99708368955214

   => Energetics <=

    Nuclear Repulsion Energy =            248.8316642370700720
    One-Electron Energy =                -933.0928456597031300
    Two-Electron Energy =                 362.2640977330809164
    Total Energy =                       -321.9970836895521415
  Basis Set: (AUG-CC-PVTZ AUX)
    Blend: AUG-CC-PVTZ-RI
    Molecular point group: c1

    Geometry (in Angstrom), charge = 0, multiplicity = 1:

       Center              X                  Y                   Z               Mass
    ------------   -----------------  -----------------  -----------------  -----------------
         O           -1.561282444837     0.857407274251    -0.376818050907    15.994914619570
         O           -1.096039444837    -1.151289725749     0.564615949093    15.994914619570
         N            1.600516555163    -0.995977725749    -0.282986050907    14.003074004430
         C            0.721554555163     0.159467274251    -0.398263050907    12.000000000000
         C            1.247290555163     1.301526274251     0.471996949093    12.000000000000
         C           -0.730138344837    -0.132605725749    -0.021575950907    12.000000000000
         H            0.717942555163     0.488587274251    -1.443736050907     1.007825032230
         H            2.278767555163     1.517220274251     0.187739949093     1.007825032230
         H            0.638038555163     2.199854274251     0.354260949093     1.007825032230
         H            1.234410555163     1.006408274251     1.526452949093     1.007825032230
         H            1.256516555163    -1.739663725749    -0.890546050907     1.007825032230
         H            1.509905555163    -1.368739725749     0.663001949093     1.007825032230
         H           -2.449161444837     0.582038274251    -0.066791050907     1.007825032230

  Basis Set: AUG-CC-PVTZ
    Blend: AUG-CC-PVTZ
  Basis Set: (AUG-CC-PVTZ AUX)
    Blend: AUG-CC-PVTZ-JKFIT
	 Reference Energy          =    -321.9970836895521415 [Eh]
	 Singles Energy            =      -0.0000000000000000 [Eh]
	 Same-Spin Energy          =      -0.3168343737969196 [Eh]
	 Opposite-Spin Energy      =      -0.9996998888663703 [Eh]
	 Correlation Energy        =      -1.3165342626632899 [Eh]
	 Total Energy              =    -323.3136179522154521 [Eh]

	 ================> DF-SCS-MP2 Energies <==================
	-----------------------------------------------------------
	 SCS Same-Spin Scale       =       0.3333333333333333 [-]
	 SCS Opposite-Spin Scale   =       1.2000000000000000 [-]
	 SCS Same-Spin Energy      =      -0.1056114579323065 [Eh]
	 SCS Opposite-Spin Energy  =      -1.1996398666396444 [Eh]
	 SCS Correlation Energy    =      -1.3052513245719510 [Eh]
	 SCS Total Energy          =    -323.3023350141240826 [Eh]
	-----------------------------------------------------------

  Dipole Moment: [D]
     X:    -0.8762      Y:     1.1658      Z:    -0.4000     Total:     1.5122

*** Psi4 exiting successfully. Buy a developer a beer!
