                               Psi4 1.3.2 release

  ==> Input File <==

--------------------------------------------------------------------------
#psi4
#
memory 32 gb

molecule  {
0 1
  O        1.4395033    -1.0123663    -0.5044077
  O        1.2616920     1.0439120     0.4876630
  N       -1.5094500     1.1665790    -0.0160500
  C       -0.7610899    -0.0305368    -0.3419071
  C       -1.3403730    -1.2419500     0.4105850
  C        0.7294260     0.0826320    -0.0646510
  H       -0.8593930    -0.2237720    -1.4273650
  H       -2.4052960    -1.3157140     0.1877600
  H       -0.8411410    -2.1737420     0.1227770
  H       -1.2225590    -1.1039570     1.4923070
  H       -1.0898030     1.9609300    -0.5079820
  H       -1.3695700     1.3697580     0.9773170
  H        2.3653570    -0.8358360    -0.2741470
units angstrom
no_reorient  #important for SAPT in psi4, default
symmetry c1  #important for SAPT in psi4, default
}

set PROPERTIES_ORIGIN ["COM"]
properties('MP2/aug-cc-pvtz', properties = ['dipole'])
--------------------------------------------------------------------------

    Molecular point group: c1
  Charge       = 0
  Multiplicity = 1
  Basis Set: AUG-CC-PVTZ
    Blend: AUG-CC-PVTZ
  Basis Set: (AUG-CC-PVTZ AUX)
    Blend: AUG-CC-PVTZ-JKFIT

    Orbital Energies [Eh]
    ---------------------

    Doubly Occupied:

       1A    -20.621497     2A    -20.559950     3A    -15.554149
       4A    -11.394546     5A    -11.286829     6A    -11.233320
       7A     -1.458596     8A     -1.359375     9A     -1.203144
      10A     -1.021542    11A     -0.907369    12A     -0.794400
      13A     -0.711416    14A     -0.702591    15A     -0.674462
      16A     -0.626346    17A     -0.609984    18A     -0.596028
      19A     -0.550843    20A     -0.531976    21A     -0.509927
      22A     -0.485448    23A     -0.461722    24A     -0.417074

  @DF-RHF Final Energy:  -321.99505048369701

   => Energetics <=

    Nuclear Repulsion Energy =            247.8749711313133162
    One-Electron Energy =                -931.1949754601747600
    Two-Electron Energy =                 361.3249538451643730
    Total Energy =                       -321.9950504836970140
  Basis Set: (AUG-CC-PVTZ AUX)
    Blend: AUG-CC-PVTZ-RI
    Molecular point group: c1

    Geometry (in Angstrom), charge = 0, multiplicity = 1:

       Center              X                  Y                   Z               Mass
    ------------   -----------------  -----------------  -----------------  -----------------
         O            1.437940431132    -1.014853730558    -0.505877428412    15.994914619570
         O            1.260129131132     1.041424569442     0.486193271588    15.994914619570
         N           -1.511012868868     1.164091569442    -0.017519728412    14.003074004430
         C           -0.762652768868    -0.033024230558    -0.343376828412    12.000000000000
         C           -1.341935868868    -1.244437430558     0.409115271588    12.000000000000
         C            0.727863131132     0.080144569442    -0.066120728412    12.000000000000
         H           -0.860955868868    -0.226259430558    -1.428834728412     1.007825032230
         H           -2.406858868868    -1.318201430558     0.186290271588     1.007825032230
         H           -0.842703868868    -2.176229430558     0.121307271588     1.007825032230
         H           -1.224121868868    -1.106444430558     1.490837271588     1.007825032230
         H           -1.091365868868     1.958442569442    -0.509451728412     1.007825032230
         H           -1.371132868868     1.367270569442     0.975847271588     1.007825032230
         H            2.363794131132    -0.838323430558    -0.275616728412     1.007825032230

  Basis Set: AUG-CC-PVTZ
    Blend: AUG-CC-PVTZ
  Basis Set: (AUG-CC-PVTZ AUX)
    Blend: AUG-CC-PVTZ-JKFIT
	 Reference Energy          =    -321.9950504836970140 [Eh]
	 Singles Energy            =      -0.0000000000000000 [Eh]
	 Same-Spin Energy          =      -0.3169603970500388 [Eh]
	 Opposite-Spin Energy      =      -1.0005992313459822 [Eh]
	 Correlation Energy        =      -1.3175596283960209 [Eh]
	 Total Energy              =    -323.3126101120930116 [Eh]

	 ================> DF-SCS-MP2 Energies <==================
	-----------------------------------------------------------
	 SCS Same-Spin Scale       =       0.3333333333333333 [-]
	 SCS Opposite-Spin Scale   =       1.2000000000000000 [-]
	 SCS Same-Spin Energy      =      -0.1056534656833462 [Eh]
	 SCS Opposite-Spin Energy  =      -1.2007190776151786 [Eh]
	 SCS Correlation Energy    =      -1.3063725432985249 [Eh]
	 SCS Total Energy          =    -323.3014230269955647 [Eh]
	-----------------------------------------------------------

  Dipole Moment: [D]
     X:     0.5490      Y:    -1.1191      Z:    -0.3146     Total:     1.2856

*** Psi4 exiting successfully. Buy a developer a beer!
