                               Psi4 1.3.2 release

  ==> Input File <==

--------------------------------------------------------------------------
#psi4
#
memory 32 gb

molecule  {
0 1
  O        1.4293010    -1.0173190    -0.5083850
  O        1.2616920     1.0439120     0.4876630
  N       -1.5094500     1.1665790    -0.0160500
  C       -0.7590880    -0.0423940    -0.3475120
  C       -1.3403730    -1.2419500     0.4105850
  C        0.7117436     0.0942059     0.0120858
  H       -0.9164834    -0.2256327    -1.4202151
  H       -2.4052960    -1.3157140     0.1877600
  H       -0.8411410    -2.1737420     0.1227770
  H       -1.2225590    -1.1039570     1.4923070
  H       -1.0898030     1.9609300    -0.5079820
  H       -1.3695700     1.3697580     0.9773170
  H        2.3653570    -0.8358360    -0.2741470
units angstrom
no_reorient  #important for SAPT in psi4, default
symmetry c1  #important for SAPT in psi4, default
}

set PROPERTIES_ORIGIN ["COM"]
properties('MP2/aug-cc-pvtz', properties = ['dipole'])
--------------------------------------------------------------------------

    Molecular point group: c1
  Charge       = 0
  Multiplicity = 1
  Basis Set: AUG-CC-PVTZ
    Blend: AUG-CC-PVTZ
  Basis Set: (AUG-CC-PVTZ AUX)
    Blend: AUG-CC-PVTZ-JKFIT

    Orbital Energies [Eh]
    ---------------------

    Doubly Occupied:

       1A    -20.610500     2A    -20.570777     3A    -15.553685
       4A    -11.394596     5A    -11.286507     6A    -11.232042
       7A     -1.456391     8A     -1.364653     9A     -1.201521
      10A     -1.021862    11A     -0.900724    12A     -0.784515
      13A     -0.711769    14A     -0.704338    15A     -0.671714
      16A     -0.622432    17A     -0.610440    18A     -0.598136
      19A     -0.552061    20A     -0.530371    21A     -0.509106
      22A     -0.495970    23A     -0.467047    24A     -0.415892

  @DF-RHF Final Energy:  -321.99031713481850

   => Energetics <=

    Nuclear Repulsion Energy =            247.9251123079355636
    One-Electron Energy =                -931.2967634725357584
    Two-Electron Energy =                 361.3813340297816694
    Total Energy =                       -321.9903171348184969
  Basis Set: (AUG-CC-PVTZ AUX)
    Blend: AUG-CC-PVTZ-RI
    Molecular point group: c1

    Geometry (in Angstrom), charge = 0, multiplicity = 1:

       Center              X                  Y                   Z               Mass
    ------------   -----------------  -----------------  -----------------  -----------------
         O            1.432329919023    -1.018857580738    -0.518806922203    15.994914619570
         O            1.264720919023     1.042373419262     0.477241077797    15.994914619570
         N           -1.506421080977     1.165040419262    -0.026471922203    14.003074004430
         C           -0.756059080977    -0.043932580738    -0.357933922203    12.000000000000
         C           -1.337344080977    -1.243488580738     0.400163077797    12.000000000000
         C            0.714772519023     0.092667319262     0.001663877797    12.000000000000
         H           -0.913454480977    -0.227171280738    -1.430637022203     1.007825032230
         H           -2.402267080977    -1.317252580738     0.177338077797     1.007825032230
         H           -0.838112080977    -2.175280580738     0.112355077797     1.007825032230
         H           -1.219530080977    -1.105495580738     1.481885077797     1.007825032230
         H           -1.086774080977     1.959391419262    -0.518403922203     1.007825032230
         H           -1.366541080977     1.368219419262     0.966895077797     1.007825032230
         H            2.368385919023    -0.837374580738    -0.284568922203     1.007825032230

  Basis Set: AUG-CC-PVTZ
    Blend: AUG-CC-PVTZ
  Basis Set: (AUG-CC-PVTZ AUX)
    Blend: AUG-CC-PVTZ-JKFIT
	 Reference Energy          =    -321.9903171348184969 [Eh]
	 Singles Energy            =      -0.0000000000000000 [Eh]
	 Same-Spin Energy          =      -0.3169535618799471 [Eh]
	 Opposite-Spin Energy      =      -1.0012506062493007 [Eh]
	 Correlation Energy        =      -1.3182041681292478 [Eh]
	 Total Energy              =    -323.3085213029477245 [Eh]

	 ================> DF-SCS-MP2 Energies <==================
	-----------------------------------------------------------
	 SCS Same-Spin Scale       =       0.3333333333333333 [-]
	 SCS Opposite-Spin Scale   =       1.2000000000000000 [-]
	 SCS Same-Spin Energy      =      -0.1056511872933157 [Eh]
	 SCS Opposite-Spin Energy  =      -1.2015007274991609 [Eh]
	 SCS Correlation Energy    =      -1.3071519147924766 [Eh]
	 SCS Total Energy          =    -323.2974690496109815 [Eh]
	-----------------------------------------------------------

  Dipole Moment: [D]
     X:     0.4855      Y:    -0.8432      Z:    -0.1175     Total:     0.9800

*** Psi4 exiting successfully. Buy a developer a beer!
