                               Psi4 1.3.2 release

  ==> Input File <==

--------------------------------------------------------------------------
#psi4
#
memory 32 gb

molecule  {
0 1
  O        1.4293010    -1.0173190    -0.5083850
  O        1.2616920     1.0439120     0.4876630
  N       -1.5094500     1.1665790    -0.0160500
  C       -0.7590880    -0.0423940    -0.3475120
  C       -1.3403730    -1.2419500     0.4105850
  C        0.7727066     0.1607973    -0.0197403
  H       -0.8593930    -0.2237720    -1.4273650
  H       -2.4052960    -1.3157140     0.1877600
  H       -0.8411410    -2.1737420     0.1227770
  H       -1.2225590    -1.1039570     1.4923070
  H       -1.0898030     1.9609300    -0.5079820
  H       -1.3695700     1.3697580     0.9773170
  H        2.3653570    -0.8358360    -0.2741470
units angstrom
no_reorient  #important for SAPT in psi4, default
symmetry c1  #important for SAPT in psi4, default
}

set PROPERTIES_ORIGIN ["COM"]
properties('MP2/aug-cc-pvtz', properties = ['dipole'])
--------------------------------------------------------------------------

    Molecular point group: c1
  Charge       = 0
  Multiplicity = 1
  Basis Set: AUG-CC-PVTZ
    Blend: AUG-CC-PVTZ
  Basis Set: (AUG-CC-PVTZ AUX)
    Blend: AUG-CC-PVTZ-JKFIT

    Orbital Energies [Eh]
    ---------------------

    Doubly Occupied:

       1A    -20.604365     2A    -20.578506     3A    -15.551341
       4A    -11.384659     5A    -11.283578     6A    -11.228618
       7A     -1.491628     8A     -1.374855     9A     -1.196332
      10A     -1.010676    11A     -0.888460    12A     -0.776981
      13A     -0.720075    14A     -0.705834    15A     -0.675537
      16A     -0.631245    17A     -0.615164    18A     -0.595235
      19A     -0.556627    20A     -0.527491    21A     -0.510296
      22A     -0.506102    23A     -0.468615    24A     -0.403801

  @DF-RHF Final Energy:  -321.98512918988075

   => Energetics <=

    Nuclear Repulsion Energy =            248.0944131412024376
    One-Electron Energy =                -931.5870395357225107
    Two-Electron Energy =                 361.5074972046393782
    Total Energy =                       -321.9851291898807517
  Basis Set: (AUG-CC-PVTZ AUX)
    Blend: AUG-CC-PVTZ-RI
    Molecular point group: c1

    Geometry (in Angstrom), charge = 0, multiplicity = 1:

       Center              X                  Y                   Z               Mass
    ------------   -----------------  -----------------  -----------------  -----------------
         O            1.423468451236    -1.027852448137    -0.514437139016    15.994914619570
         O            1.255859451236     1.033378551863     0.481610860984    15.994914619570
         N           -1.515282548764     1.156045551863    -0.022102139016    14.003074004430
         C           -0.764920548764    -0.052927448137    -0.353564139016    12.000000000000
         C           -1.346205548764    -1.252483448137     0.404532860984    12.000000000000
         C            0.766874051236     0.150263851863    -0.025792439016    12.000000000000
         H           -0.865225548764    -0.234305448137    -1.433417139016     1.007825032230
         H           -2.411128548764    -1.326247448137     0.181707860984     1.007825032230
         H           -0.846973548764    -2.184275448137     0.116724860984     1.007825032230
         H           -1.228391548764    -1.114490448137     1.486254860984     1.007825032230
         H           -1.095635548764     1.950396551863    -0.514034139016     1.007825032230
         H           -1.375402548764     1.359224551863     0.971264860984     1.007825032230
         H            2.359524451236    -0.846369448137    -0.280199139016     1.007825032230

  Basis Set: AUG-CC-PVTZ
    Blend: AUG-CC-PVTZ
  Basis Set: (AUG-CC-PVTZ AUX)
    Blend: AUG-CC-PVTZ-JKFIT
	 Reference Energy          =    -321.9851291898807517 [Eh]
	 Singles Energy            =      -0.0000000000000000 [Eh]
	 Same-Spin Energy          =      -0.3154131708601058 [Eh]
	 Opposite-Spin Energy      =      -0.9981673826223613 [Eh]
	 Correlation Energy        =      -1.3135805534824669 [Eh]
	 Total Energy              =    -323.2987097433632471 [Eh]

	 ================> DF-SCS-MP2 Energies <==================
	-----------------------------------------------------------
	 SCS Same-Spin Scale       =       0.3333333333333333 [-]
	 SCS Opposite-Spin Scale   =       1.2000000000000000 [-]
	 SCS Same-Spin Energy      =      -0.1051377236200353 [Eh]
	 SCS Opposite-Spin Energy  =      -1.1978008591468334 [Eh]
	 SCS Correlation Energy    =      -1.3029385827668687 [Eh]
	 SCS Total Energy          =    -323.2880677726475938 [Eh]
	-----------------------------------------------------------

  Dipole Moment: [D]
     X:     0.7479      Y:    -0.5168      Z:    -0.0018     Total:     0.9091

*** Psi4 exiting successfully. Buy a developer a beer!
