                               Psi4 1.4a3.dev225

  ==> Input File <==

--------------------------------------------------------------------------
#psi4
#
memory 32 gb

molecule  {
0 1
  O       -1.6162430     0.8314800    -0.3809140
  O       -1.1510000    -1.1772170     0.5605200
  N        1.5455560    -1.0219050    -0.2870820
  C        0.6665940     0.1335400    -0.4023590
  C        1.1923300     1.2755990     0.4679010
  C       -0.7253664    -0.1632122    -0.0329340
  H        0.6629820     0.4626600    -1.4478320
  H        2.2238070     1.4912930     0.1836440
  H        0.5830780     2.1739270     0.3501650
  H        1.1794500     0.9804810     1.5223570
  H        1.2015560    -1.7655910    -0.8946420
  H        1.4549450    -1.3946670     0.6589060
  H       -2.5041220     0.5561110    -0.0708870
units angstrom
no_reorient  #important for SAPT in psi4, default
symmetry c1  #important for SAPT in psi4, default
}

set PROPERTIES_ORIGIN ["COM"]
properties('MP2/aug-cc-pvtz', properties = ['dipole'])
--------------------------------------------------------------------------

    Molecular point group: c1
  Charge       = 0
  Multiplicity = 1
  Basis Set: AUG-CC-PVTZ
    Blend: AUG-CC-PVTZ
  Basis Set: (AUG-CC-PVTZ AUX)
    Blend: AUG-CC-PVTZ-JKFIT

    Orbital Energies [Eh]
    ---------------------

    Doubly Occupied:

       1A    -20.617704     2A    -20.556499     3A    -15.554762
       4A    -11.395619     5A    -11.285594     6A    -11.235419
       7A     -1.452082     8A     -1.344578     9A     -1.207312
      10A     -1.032428    11A     -0.917206    12A     -0.793597
      13A     -0.716299    14A     -0.700129    15A     -0.673106
      16A     -0.626485    17A     -0.607413    18A     -0.594831
      19A     -0.550097    20A     -0.534903    21A     -0.514863
      22A     -0.477668    23A     -0.460665    24A     -0.421805

  @DF-RHF Final Energy:  -321.99055671291632

   => Energetics <=

    Nuclear Repulsion Energy =            248.8816033102822587
    One-Electron Energy =                -933.2021887423865110
    Two-Electron Energy =                 362.3300287191879647
    Total Energy =                       -321.9905567129163160
  Basis Set: (AUG-CC-PVTZ AUX)
    Blend: AUG-CC-PVTZ-RI
    Molecular point group: c1

    Geometry (in Angstrom), charge = 0, multiplicity = 1:

       Center              X                  Y                   Z               Mass
    ------------   -----------------  -----------------  -----------------  -----------------
         O           -1.569331952834     0.858037839819    -0.375839415624    15.994914619570
         O           -1.104088952834    -1.150659160181     0.565594584376    15.994914619570
         N            1.592467047166    -0.995347160181    -0.282007415624    14.003074004430
         C            0.713505047166     0.160097839819    -0.397284415624    12.000000000000
         C            1.239241047166     1.302156839819     0.472975584376    12.000000000000
         C           -0.678455352834    -0.136654360181    -0.027859415624    12.000000000000
         H            0.709893047166     0.489217839819    -1.442757415624     1.007825032230
         H            2.270718047166     1.517850839819     0.188718584376     1.007825032230
         H            0.629989047166     2.200484839819     0.355239584376     1.007825032230
         H            1.226361047166     1.007038839819     1.527431584376     1.007825032230
         H            1.248467047166    -1.739033160181    -0.889567415624     1.007825032230
         H            1.501856047166    -1.368109160181     0.663980584376     1.007825032230
         H           -2.457210952834     0.582668839819    -0.065812415624     1.007825032230

  Basis Set: AUG-CC-PVTZ
    Blend: AUG-CC-PVTZ
  Basis Set: (AUG-CC-PVTZ AUX)
    Blend: AUG-CC-PVTZ-JKFIT
	 Reference Energy          =    -321.9905567129163160 [Eh]
	 Singles Energy            =      -0.0000000000000000 [Eh]
	 Same-Spin Energy          =      -0.3178027562793327 [Eh]
	 Opposite-Spin Energy      =      -1.0018190924253978 [Eh]
	 Correlation Energy        =      -1.3196218487047306 [Eh]
	 Total Energy              =    -323.3101785616210577 [Eh]

	 ================> DF-SCS-MP2 Energies <==================
	-----------------------------------------------------------
	 SCS Same-Spin Scale       =       0.3333333333333333 [-]
	 SCS Opposite-Spin Scale   =       1.2000000000000000 [-]
	 SCS Same-Spin Energy      =      -0.1059342520931109 [Eh]
	 SCS Opposite-Spin Energy  =      -1.2021829109104774 [Eh]
	 SCS Correlation Energy    =      -1.3081171630035882 [Eh]
	 SCS Total Energy          =    -323.2986738759199170 [Eh]
	-----------------------------------------------------------

  Dipole Moment: [D]
     X:    -0.5225      Y:     1.0983      Z:    -0.3843     Total:     1.2756

*** Psi4 exiting successfully. Buy a developer a beer!
