                               Psi4 1.3.2 release

  ==> Input File <==

--------------------------------------------------------------------------
#psi4
#
memory 32 gb

molecule  {
0 1
  O        1.4395101    -1.0123433    -0.5044541
  O        1.2712486     1.0391305     0.4866710
  N       -1.5094500     1.1665790    -0.0160500
  C       -0.7590880    -0.0423940    -0.3475120
  C       -1.3403730    -1.2419500     0.4105850
  C        0.7294260     0.0826320    -0.0646510
  H       -0.8593930    -0.2237720    -1.4273650
  H       -2.4052960    -1.3157140     0.1877600
  H       -0.8411410    -2.1737420     0.1227770
  H       -1.2225590    -1.1039570     1.4923070
  H       -1.0898030     1.9609300    -0.5079820
  H       -1.3695700     1.3697580     0.9773170
  H        2.3653570    -0.8358360    -0.2741470
units angstrom
no_reorient  #important for SAPT in psi4, default
symmetry c1  #important for SAPT in psi4, default
}

set PROPERTIES_ORIGIN ["COM"]
properties('MP2/aug-cc-pvtz', properties = ['dipole'])
--------------------------------------------------------------------------

    Molecular point group: c1
  Charge       = 0
  Multiplicity = 1
  Basis Set: AUG-CC-PVTZ
    Blend: AUG-CC-PVTZ
  Basis Set: (AUG-CC-PVTZ AUX)
    Blend: AUG-CC-PVTZ-JKFIT

    Orbital Energies [Eh]
    ---------------------

    Doubly Occupied:

       1A    -20.620552     2A    -20.560316     3A    -15.554082
       4A    -11.394913     5A    -11.287210     6A    -11.233557
       7A     -1.458709     8A     -1.358743     9A     -1.200043
      10A     -1.023025    11A     -0.908196    12A     -0.794586
      13A     -0.711260    14A     -0.702407    15A     -0.672994
      16A     -0.626241    17A     -0.609163    18A     -0.596505
      19A     -0.551053    20A     -0.530207    21A     -0.513173
      22A     -0.485839    23A     -0.461763    24A     -0.417166

  @DF-RHF Final Energy:  -321.99528121242213

   => Energetics <=

    Nuclear Repulsion Energy =            247.7731826670514010
    One-Electron Energy =                -930.9935221745405443
    Two-Electron Energy =                 361.2250582950670150
    Total Energy =                       -321.9952812124221282
  Basis Set: (AUG-CC-PVTZ AUX)
    Blend: AUG-CC-PVTZ-RI
    Molecular point group: c1

    Geometry (in Angstrom), charge = 0, multiplicity = 1:

       Center              X                  Y                   Z               Mass
    ------------   -----------------  -----------------  -----------------  -----------------
         O            1.435959660322    -1.012378132074    -0.504981996791    15.994914619570
         O            1.267698160322     1.039095667926     0.486143103209    15.994914619570
         N           -1.513000439678     1.166544167926    -0.016577896791    14.003074004430
         C           -0.762638439678    -0.042428832074    -0.348039896791    12.000000000000
         C           -1.343923439678    -1.241984832074     0.410057103209    12.000000000000
         C            0.725875560322     0.082597167926    -0.065178896791    12.000000000000
         H           -0.862943439678    -0.223806832074    -1.427892896791     1.007825032230
         H           -2.408846439678    -1.315748832074     0.187232103209     1.007825032230
         H           -0.844691439678    -2.173776832074     0.122249103209     1.007825032230
         H           -1.226109439678    -1.103991832074     1.491779103209     1.007825032230
         H           -1.093353439678     1.960895167926    -0.508509896791     1.007825032230
         H           -1.373120439678     1.369723167926     0.976789103209     1.007825032230
         H            2.361806560322    -0.835870832074    -0.274674896791     1.007825032230

  Basis Set: AUG-CC-PVTZ
    Blend: AUG-CC-PVTZ
  Basis Set: (AUG-CC-PVTZ AUX)
    Blend: AUG-CC-PVTZ-JKFIT
	 Reference Energy          =    -321.9952812124221282 [Eh]
	 Singles Energy            =      -0.0000000000000000 [Eh]
	 Same-Spin Energy          =      -0.3169023622866867 [Eh]
	 Opposite-Spin Energy      =      -1.0006066596218193 [Eh]
	 Correlation Energy        =      -1.3175090219085059 [Eh]
	 Total Energy              =    -323.3127902343306346 [Eh]

	 ================> DF-SCS-MP2 Energies <==================
	-----------------------------------------------------------
	 SCS Same-Spin Scale       =       0.3333333333333333 [-]
	 SCS Opposite-Spin Scale   =       1.2000000000000000 [-]
	 SCS Same-Spin Energy      =      -0.1056341207622289 [Eh]
	 SCS Opposite-Spin Energy  =      -1.2007279915461830 [Eh]
	 SCS Correlation Energy    =      -1.3063621123084119 [Eh]
	 SCS Total Energy          =    -323.3016433247305486 [Eh]
	-----------------------------------------------------------

  Dipole Moment: [D]
     X:     0.5366      Y:    -1.1356      Z:    -0.3170     Total:     1.2954

*** Psi4 exiting successfully. Buy a developer a beer!
