                               Psi4 1.3.2 release

  ==> Input File <==

--------------------------------------------------------------------------
#psi4
#
memory 32 gb

molecule  {
0 1
  O        1.4293010    -1.0173190    -0.5083850
  O        1.2616920     1.0439120     0.4876630
  N       -1.5534675     1.1242196     0.0299796
  C       -0.7590880    -0.0423940    -0.3475120
  C       -1.3944299    -1.1924074     0.4432772
  C        0.7294260     0.0826320    -0.0646510
  H       -0.8593930    -0.2237720    -1.4273650
  H       -2.4052960    -1.3157140     0.1877600
  H       -0.8411410    -2.1737420     0.1227770
  H       -1.2225590    -1.1039570     1.4923070
  H       -1.0898030     1.9609300    -0.5079820
  H       -1.3695700     1.3697580     0.9773170
  H        2.3653570    -0.8358360    -0.2741470
units angstrom
no_reorient  #important for SAPT in psi4, default
symmetry c1  #important for SAPT in psi4, default
}

set PROPERTIES_ORIGIN ["COM"]
properties('MP2/aug-cc-pvtz', properties = ['dipole'])
--------------------------------------------------------------------------

    Molecular point group: c1
  Charge       = 0
  Multiplicity = 1
  Basis Set: AUG-CC-PVTZ
    Blend: AUG-CC-PVTZ
  Basis Set: (AUG-CC-PVTZ AUX)
    Blend: AUG-CC-PVTZ-JKFIT

    Orbital Energies [Eh]
    ---------------------

    Doubly Occupied:

       1A    -20.624577     2A    -20.563500     3A    -15.558835
       4A    -11.398064     5A    -11.286571     6A    -11.231759
       7A     -1.459304     8A     -1.361362     9A     -1.199924
      10A     -1.017035    11A     -0.910840    12A     -0.794347
      13A     -0.711975    14A     -0.705729    15A     -0.661010
      16A     -0.621913    17A     -0.613348    18A     -0.601465
      19A     -0.563023    20A     -0.519193    21A     -0.498842
      22A     -0.483297    23A     -0.465231    24A     -0.421858

  @DF-RHF Final Energy:  -321.97835448622766

   => Energetics <=

    Nuclear Repulsion Energy =            247.5911334698013491
    One-Electron Energy =                -930.5929666480790274
    Two-Electron Energy =                 361.0234786920500483
    Total Energy =                       -321.9783544862276585
  Basis Set: (AUG-CC-PVTZ AUX)
    Blend: AUG-CC-PVTZ-RI
    Molecular point group: c1

    Geometry (in Angstrom), charge = 0, multiplicity = 1:

       Center              X                  Y                   Z               Mass
    ------------   -----------------  -----------------  -----------------  -----------------
         O            1.443507494821    -1.017334103032    -0.520028906300    15.994914619570
         O            1.275898494821     1.043896896968     0.476019093700    15.994914619570
         N           -1.539261005179     1.124204496968     0.018335693700    14.003074004430
         C           -0.744881505179    -0.042409103032    -0.359155906300    12.000000000000
         C           -1.380223405179    -1.192422503032     0.431633293700    12.000000000000
         C            0.743632494821     0.082616896968    -0.076294906300    12.000000000000
         H           -0.845186505179    -0.223787103032    -1.439008906300     1.007825032230
         H           -2.391089505179    -1.315729103032     0.176116093700     1.007825032230
         H           -0.826934505179    -2.173757103032     0.111133093700     1.007825032230
         H           -1.208352505179    -1.103972103032     1.480663093700     1.007825032230
         H           -1.075596505179     1.960914896968    -0.519625906300     1.007825032230
         H           -1.355363505179     1.369742896968     0.965673093700     1.007825032230
         H            2.379563494821    -0.835851103032    -0.285790906300     1.007825032230

  Basis Set: AUG-CC-PVTZ
    Blend: AUG-CC-PVTZ
  Basis Set: (AUG-CC-PVTZ AUX)
    Blend: AUG-CC-PVTZ-JKFIT
	 Reference Energy          =    -321.9783544862276585 [Eh]
	 Singles Energy            =      -0.0000000000000000 [Eh]
	 Same-Spin Energy          =      -0.3177354859891793 [Eh]
	 Opposite-Spin Energy      =      -1.0029971236796942 [Eh]
	 Correlation Energy        =      -1.3207326096688736 [Eh]
	 Total Energy              =    -323.2990870958965388 [Eh]

	 ================> DF-SCS-MP2 Energies <==================
	-----------------------------------------------------------
	 SCS Same-Spin Scale       =       0.3333333333333333 [-]
	 SCS Opposite-Spin Scale   =       1.2000000000000000 [-]
	 SCS Same-Spin Energy      =      -0.1059118286630598 [Eh]
	 SCS Opposite-Spin Energy  =      -1.2035965484156330 [Eh]
	 SCS Correlation Energy    =      -1.3095083770786928 [Eh]
	 SCS Total Energy          =    -323.2878628633063727 [Eh]
	-----------------------------------------------------------

  Dipole Moment: [D]
     X:     0.6920      Y:    -1.0704      Z:    -0.3528     Total:     1.3226

*** Psi4 exiting successfully. Buy a developer a beer!
