                               Psi4 1.3.2 release

  ==> Input File <==

--------------------------------------------------------------------------
#psi4
#
memory 32 gb

molecule  {
0 1
  O        1.4293010    -1.0173190    -0.5083850
  O        1.2616920     1.0439120     0.4876630
  N       -1.5094500     1.1665790    -0.0160500
  C       -0.7590880    -0.0423940    -0.3475120
  C       -1.3403730    -1.2419500     0.4105850
  C        0.6690853     0.0518271    -0.0893198
  H       -0.8593930    -0.2237720    -1.4273650
  H       -2.4052960    -1.3157140     0.1877600
  H       -0.8411410    -2.1737420     0.1227770
  H       -1.2225590    -1.1039570     1.4923070
  H       -1.0898030     1.9609300    -0.5079820
  H       -1.3695700     1.3697580     0.9773170
  H        2.3779272    -0.8811454    -0.2949152
units angstrom
no_reorient  #important for SAPT in psi4, default
symmetry c1  #important for SAPT in psi4, default
}

set PROPERTIES_ORIGIN ["COM"]
properties('MP2/aug-cc-pvtz', properties = ['dipole'])
--------------------------------------------------------------------------

    Molecular point group: c1
  Charge       = 0
  Multiplicity = 1
  Basis Set: AUG-CC-PVTZ
    Blend: AUG-CC-PVTZ
  Basis Set: (AUG-CC-PVTZ AUX)
    Blend: AUG-CC-PVTZ-JKFIT

    Orbital Energies [Eh]
    ---------------------

    Doubly Occupied:

       1A    -20.623345     2A    -20.552036     3A    -15.556499
       4A    -11.402289     5A    -11.288304     6A    -11.238062
       7A     -1.446376     8A     -1.325293     9A     -1.205177
      10A     -1.035542    11A     -0.922268    12A     -0.800940
      13A     -0.714008    14A     -0.694825    15A     -0.674692
      16A     -0.621315    17A     -0.607773    18A     -0.587994
      19A     -0.549356    20A     -0.531339    21A     -0.517613
      22A     -0.465560    23A     -0.455056    24A     -0.424730

  @DF-RHF Final Energy:  -321.97840898097803

   => Energetics <=

    Nuclear Repulsion Energy =            247.7377325323658681
    One-Electron Energy =                -930.9514949445754155
    Two-Electron Energy =                 361.2353534312315446
    Total Energy =                       -321.9784089809780312
  Basis Set: (AUG-CC-PVTZ AUX)
    Blend: AUG-CC-PVTZ-RI
    Molecular point group: c1

    Geometry (in Angstrom), charge = 0, multiplicity = 1:

       Center              X                  Y                   Z               Mass
    ------------   -----------------  -----------------  -----------------  -----------------
         O            1.437290114630    -1.012654900366    -0.504825605885    15.994914619570
         O            1.269681114630     1.048576099634     0.491222394115    15.994914619570
         N           -1.501460885370     1.171243099634    -0.012490605885    14.003074004430
         C           -0.751098885370    -0.037729900366    -0.343952605885    12.000000000000
         C           -1.332383885370    -1.237285900366     0.414144394115    12.000000000000
         C            0.677074414630     0.056491199634    -0.085760405885    12.000000000000
         H           -0.851403885370    -0.219107900366    -1.423805605885     1.007825032230
         H           -2.397306885370    -1.311049900366     0.191319394115     1.007825032230
         H           -0.833151885370    -2.169077900366     0.126336394115     1.007825032230
         H           -1.214569885370    -1.099292900366     1.495866394115     1.007825032230
         H           -1.081813885370     1.965594099634    -0.504422605885     1.007825032230
         H           -1.361580885370     1.374422099634     0.980876394115     1.007825032230
         H            2.385916314630    -0.876481300366    -0.291355805885     1.007825032230

  Basis Set: AUG-CC-PVTZ
    Blend: AUG-CC-PVTZ
  Basis Set: (AUG-CC-PVTZ AUX)
    Blend: AUG-CC-PVTZ-JKFIT
	 Reference Energy          =    -321.9784089809780312 [Eh]
	 Singles Energy            =      -0.0000000000000000 [Eh]
	 Same-Spin Energy          =      -0.3188601146473590 [Eh]
	 Opposite-Spin Energy      =      -1.0043715005181666 [Eh]
	 Correlation Energy        =      -1.3232316151655255 [Eh]
	 Total Energy              =    -323.3016405961435566 [Eh]

	 ================> DF-SCS-MP2 Energies <==================
	-----------------------------------------------------------
	 SCS Same-Spin Scale       =       0.3333333333333333 [-]
	 SCS Opposite-Spin Scale   =       1.2000000000000000 [-]
	 SCS Same-Spin Energy      =      -0.1062867048824530 [Eh]
	 SCS Opposite-Spin Energy  =      -1.2052458006217999 [Eh]
	 SCS Correlation Energy    =      -1.3115325055042528 [Eh]
	 SCS Total Energy          =    -323.2899414864822916 [Eh]
	-----------------------------------------------------------

  Dipole Moment: [D]
     X:     0.3394      Y:    -1.4060      Z:    -0.4527     Total:     1.5155

*** Psi4 exiting successfully. Buy a developer a beer!
