                               Psi4 1.3.2 release

  ==> Input File <==

--------------------------------------------------------------------------
#psi4
#
memory 32 gb

molecule  {
0 1
  O        1.4293010    -1.0173190    -0.5083850
  O        1.2616920     1.0439120     0.4876630
  N       -1.5094500     1.1665790    -0.0160500
  C       -0.7590880    -0.0423940    -0.3475120
  C       -1.4161859    -1.3983996     0.5094582
  C        0.7294260     0.0826320    -0.0646510
  H       -0.8593930    -0.2237720    -1.4273650
  H       -2.4052960    -1.3157140     0.1877600
  H       -0.8411410    -2.1737420     0.1227770
  H       -1.2225590    -1.1039570     1.4923070
  H       -1.0898030     1.9609300    -0.5079820
  H       -1.3695700     1.3697580     0.9773170
  H        2.3653570    -0.8358360    -0.2741470
units angstrom
no_reorient  #important for SAPT in psi4, default
symmetry c1  #important for SAPT in psi4, default
}

set PROPERTIES_ORIGIN ["COM"]
properties('MP2/aug-cc-pvtz', properties = ['dipole'])
--------------------------------------------------------------------------

    Molecular point group: c1
  Charge       = 0
  Multiplicity = 1
  Basis Set: AUG-CC-PVTZ
    Blend: AUG-CC-PVTZ
  Basis Set: (AUG-CC-PVTZ AUX)
    Blend: AUG-CC-PVTZ-JKFIT

    Orbital Energies [Eh]
    ---------------------

    Doubly Occupied:

       1A    -20.621566     2A    -20.558501     3A    -15.553251
       4A    -11.393116     5A    -11.290054     6A    -11.235445
       7A     -1.455694     8A     -1.357494     9A     -1.191241
      10A     -1.005466    11A     -0.917221    12A     -0.789800
      13A     -0.708523    14A     -0.697483    15A     -0.664970
      16A     -0.625902    17A     -0.608126    18A     -0.605919
      19A     -0.579456    20A     -0.547759    21A     -0.493072
      22A     -0.467749    23A     -0.453328    24A     -0.408679

  @DF-RHF Final Energy:  -321.96810977299009

   => Energetics <=

    Nuclear Repulsion Energy =            244.8494413026713517
    One-Electron Energy =                -925.1754776106847658
    Two-Electron Energy =                 358.3579265350232959
    Total Energy =                       -321.9681097729900898
  Basis Set: (AUG-CC-PVTZ AUX)
    Blend: AUG-CC-PVTZ-RI
    Molecular point group: c1

    Geometry (in Angstrom), charge = 0, multiplicity = 1:

       Center              X                  Y                   Z               Mass
    ------------   -----------------  -----------------  -----------------  -----------------
         O            1.439517404163    -0.996235915866    -0.521709086035    15.994914619570
         O            1.271908404163     1.064995084134     0.474338913965    15.994914619570
         N           -1.499233595837     1.187662084134    -0.029374086035    14.003074004430
         C           -0.748871595837    -0.021310915866    -0.360836086035    12.000000000000
         C           -1.405969495837    -1.377316515866     0.496134113965    12.000000000000
         C            0.739642404163     0.103715084134    -0.077975086035    12.000000000000
         H           -0.849176595837    -0.202688915866    -1.440689086035     1.007825032230
         H           -2.395079595837    -1.294630915866     0.174435913965     1.007825032230
         H           -0.830924595837    -2.152658915866     0.109452913965     1.007825032230
         H           -1.212342595837    -1.082873915866     1.478982913965     1.007825032230
         H           -1.079586595837     1.982013084134    -0.521306086035     1.007825032230
         H           -1.359353595837     1.390841084134     0.963992913965     1.007825032230
         H            2.375573404163    -0.814752915866    -0.287471086035     1.007825032230

  Basis Set: AUG-CC-PVTZ
    Blend: AUG-CC-PVTZ
  Basis Set: (AUG-CC-PVTZ AUX)
    Blend: AUG-CC-PVTZ-JKFIT
	 Reference Energy          =    -321.9681097729900898 [Eh]
	 Singles Energy            =      -0.0000000000000000 [Eh]
	 Same-Spin Energy          =      -0.3171378748133567 [Eh]
	 Opposite-Spin Energy      =      -1.0022078479865890 [Eh]
	 Correlation Energy        =      -1.3193457227999457 [Eh]
	 Total Energy              =    -323.2874554957900273 [Eh]

	 ================> DF-SCS-MP2 Energies <==================
	-----------------------------------------------------------
	 SCS Same-Spin Scale       =       0.3333333333333333 [-]
	 SCS Opposite-Spin Scale   =       1.2000000000000000 [-]
	 SCS Same-Spin Energy      =      -0.1057126249377856 [Eh]
	 SCS Opposite-Spin Energy  =      -1.2026494175839069 [Eh]
	 SCS Correlation Energy    =      -1.3083620425216924 [Eh]
	 SCS Total Energy          =    -323.2764718155117976 [Eh]
	-----------------------------------------------------------

  Dipole Moment: [D]
     X:     0.5344      Y:    -1.1142      Z:    -0.3105     Total:     1.2741

*** Psi4 exiting successfully. Buy a developer a beer!
