                               Psi4 1.4a3.dev225

  ==> Input File <==

--------------------------------------------------------------------------
#psi4
#
memory 32 gb

molecule  {
0 1
  O       -1.6162430     0.8314800    -0.3809140
  O       -1.1510000    -1.1772170     0.5605200
  N        1.5455560    -1.0219050    -0.2870820
  C        0.6665940     0.1335400    -0.4023590
  C        1.1923300     1.2755990     0.4679010
  C       -0.7916320    -0.1773393    -0.0153472
  H        0.6629820     0.4626600    -1.4478320
  H        2.2238070     1.4912930     0.1836440
  H        0.5830780     2.1739270     0.3501650
  H        1.1794500     0.9804810     1.5223570
  H        1.2015560    -1.7655910    -0.8946420
  H        1.4549450    -1.3946670     0.6589060
  H       -2.5041220     0.5561110    -0.0708870
units angstrom
no_reorient  #important for SAPT in psi4, default
symmetry c1  #important for SAPT in psi4, default
}

set PROPERTIES_ORIGIN ["COM"]
properties('MP2/aug-cc-pvtz', properties = ['dipole'])
--------------------------------------------------------------------------

    Molecular point group: c1
  Charge       = 0
  Multiplicity = 1
  Basis Set: AUG-CC-PVTZ
    Blend: AUG-CC-PVTZ
  Basis Set: (AUG-CC-PVTZ AUX)
    Blend: AUG-CC-PVTZ-JKFIT

    Orbital Energies [Eh]
    ---------------------

    Doubly Occupied:

       1A    -20.623683     2A    -20.559028     3A    -15.550984
       4A    -11.388792     5A    -11.282601     6A    -11.229980
       7A     -1.470576     8A     -1.370006     9A     -1.199309
      10A     -1.020053    11A     -0.903850    12A     -0.794777
      13A     -0.714645    14A     -0.707496    15A     -0.671695
      16A     -0.635005    17A     -0.609865    18A     -0.595828
      19A     -0.550228    20A     -0.531298    21A     -0.510155
      22A     -0.490805    23A     -0.462195    24A     -0.412010

  @DF-RHF Final Energy:  -321.99870026336663

   => Energetics <=

    Nuclear Repulsion Energy =            248.8667413450558570
    One-Electron Energy =                -933.1611552329889037
    Two-Electron Energy =                 362.2957136245664174
    Total Energy =                       -321.9987002633666293
  Basis Set: (AUG-CC-PVTZ AUX)
    Blend: AUG-CC-PVTZ-RI
    Molecular point group: c1

    Geometry (in Angstrom), charge = 0, multiplicity = 1:

       Center              X                  Y                   Z               Mass
    ------------   -----------------  -----------------  -----------------  -----------------
         O           -1.560402049061     0.859941597479    -0.378209399925    15.994914619570
         O           -1.095159049061    -1.148755402521     0.563224600075    15.994914619570
         N            1.601396950939    -0.993443402521    -0.284377399925    14.003074004430
         C            0.722434950939     0.162001597479    -0.399654399925    12.000000000000
         C            1.248170950939     1.304060597479     0.470605600075    12.000000000000
         C           -0.735791049061    -0.148877702521    -0.012642599925    12.000000000000
         H            0.718822950939     0.491121597479    -1.445127399925     1.007825032230
         H            2.279647950939     1.519754597479     0.186348600075     1.007825032230
         H            0.638918950939     2.202388597479     0.352869600075     1.007825032230
         H            1.235290950939     1.008942597479     1.525061600075     1.007825032230
         H            1.257396950939    -1.737129402521    -0.891937399925     1.007825032230
         H            1.510785950939    -1.366205402521     0.661610600075     1.007825032230
         H           -2.448281049061     0.584572597479    -0.068182399925     1.007825032230

  Basis Set: AUG-CC-PVTZ
    Blend: AUG-CC-PVTZ
  Basis Set: (AUG-CC-PVTZ AUX)
    Blend: AUG-CC-PVTZ-JKFIT
	 Reference Energy          =    -321.9987002633666293 [Eh]
	 Singles Energy            =      -0.0000000000000000 [Eh]
	 Same-Spin Energy          =      -0.3164027102252092 [Eh]
	 Opposite-Spin Energy      =      -0.9989707637305767 [Eh]
	 Correlation Energy        =      -1.3153734739557859 [Eh]
	 Total Energy              =    -323.3140737373224169 [Eh]

	 ================> DF-SCS-MP2 Energies <==================
	-----------------------------------------------------------
	 SCS Same-Spin Scale       =       0.3333333333333333 [-]
	 SCS Opposite-Spin Scale   =       1.2000000000000000 [-]
	 SCS Same-Spin Energy      =      -0.1054675700750697 [Eh]
	 SCS Opposite-Spin Energy  =      -1.1987649164766920 [Eh]
	 SCS Correlation Energy    =      -1.3042324865517618 [Eh]
	 SCS Total Energy          =    -323.3029327499183978 [Eh]
	-----------------------------------------------------------

  Dipole Moment: [D]
     X:    -0.8905      Y:     1.0285      Z:    -0.3337     Total:     1.4008

*** Psi4 exiting successfully. Buy a developer a beer!
