                               Psi4 1.3.2 release

  ==> Input File <==

--------------------------------------------------------------------------
#psi4
#
memory 32 gb

molecule  {
0 1
  O        1.4896883    -0.9863599    -0.4840251
  O        1.2616920     1.0439120     0.4876630
  N       -1.5094500     1.1665790    -0.0160500
  C       -0.7693940     0.0288604    -0.3135746
  C       -1.3403730    -1.2419500     0.4105850
  C        0.7294260     0.0826320    -0.0646510
  H       -0.8593930    -0.2237720    -1.4273650
  H       -2.4052960    -1.3157140     0.1877600
  H       -0.8411410    -2.1737420     0.1227770
  H       -1.2225590    -1.1039570     1.4923070
  H       -1.0898030     1.9609300    -0.5079820
  H       -1.3695700     1.3697580     0.9773170
  H        2.3653570    -0.8358360    -0.2741470
units angstrom
no_reorient  #important for SAPT in psi4, default
symmetry c1  #important for SAPT in psi4, default
}

set PROPERTIES_ORIGIN ["COM"]
properties('MP2/aug-cc-pvtz', properties = ['dipole'])
--------------------------------------------------------------------------

    Molecular point group: c1
  Charge       = 0
  Multiplicity = 1
  Basis Set: AUG-CC-PVTZ
    Blend: AUG-CC-PVTZ
  Basis Set: (AUG-CC-PVTZ AUX)
    Blend: AUG-CC-PVTZ-JKFIT

    Orbital Energies [Eh]
    ---------------------

    Doubly Occupied:

       1A    -20.613549     2A    -20.554712     3A    -15.558266
       4A    -11.392881     5A    -11.291342     6A    -11.234875
       7A     -1.464458     8A     -1.359666     9A     -1.224602
      10A     -1.017917    11A     -0.909505    12A     -0.806264
      13A     -0.714361    14A     -0.703654    15A     -0.685887
      16A     -0.625947    17A     -0.616467    18A     -0.593186
      19A     -0.550963    20A     -0.540663    21A     -0.498398
      22A     -0.477046    23A     -0.462687    24A     -0.419072

  @DF-RHF Final Energy:  -321.98721314939877

   => Energetics <=

    Nuclear Repulsion Energy =            248.2553649150893307
    One-Electron Energy =                -931.8524223977437941
    Two-Electron Energy =                 361.6098443332556940
    Total Energy =                       -321.9872131493987695
  Basis Set: (AUG-CC-PVTZ AUX)
    Blend: AUG-CC-PVTZ-RI
    Molecular point group: c1

    Geometry (in Angstrom), charge = 0, multiplicity = 1:

       Center              X                  Y                   Z               Mass
    ------------   -----------------  -----------------  -----------------  -----------------
         O            1.480230159720    -1.001522973169    -0.492974057047    15.994914619570
         O            1.252233859720     1.028748926831     0.478714042953    15.994914619570
         N           -1.518908140280     1.151415926831    -0.024998957047    14.003074004430
         C           -0.778852140280     0.013697326831    -0.322523557047    12.000000000000
         C           -1.349831140280    -1.257113073169     0.401636042953    12.000000000000
         C            0.719967859720     0.067468926831    -0.073599957047    12.000000000000
         H           -0.868851140280    -0.238935073169    -1.436313957047     1.007825032230
         H           -2.414754140280    -1.330877073169     0.178811042953     1.007825032230
         H           -0.850599140280    -2.188905073169     0.113828042953     1.007825032230
         H           -1.232017140280    -1.119120073169     1.483358042953     1.007825032230
         H           -1.099261140280     1.945766926831    -0.516930957047     1.007825032230
         H           -1.379028140280     1.354594926831     0.968368042953     1.007825032230
         H            2.355898859720    -0.850999073169    -0.283095957047     1.007825032230

  Basis Set: AUG-CC-PVTZ
    Blend: AUG-CC-PVTZ
  Basis Set: (AUG-CC-PVTZ AUX)
    Blend: AUG-CC-PVTZ-JKFIT
	 Reference Energy          =    -321.9872131493987695 [Eh]
	 Singles Energy            =      -0.0000000000000000 [Eh]
	 Same-Spin Energy          =      -0.3162851793794193 [Eh]
	 Opposite-Spin Energy      =      -0.9985159224524779 [Eh]
	 Correlation Energy        =      -1.3148011018318972 [Eh]
	 Total Energy              =    -323.3020142512306734 [Eh]

	 ================> DF-SCS-MP2 Energies <==================
	-----------------------------------------------------------
	 SCS Same-Spin Scale       =       0.3333333333333333 [-]
	 SCS Opposite-Spin Scale   =       1.2000000000000000 [-]
	 SCS Same-Spin Energy      =      -0.1054283931264731 [Eh]
	 SCS Opposite-Spin Energy  =      -1.1982191069429735 [Eh]
	 SCS Correlation Energy    =      -1.3036475000694465 [Eh]
	 SCS Total Energy          =    -323.2908606494682431 [Eh]
	-----------------------------------------------------------

  Dipole Moment: [D]
     X:     0.3028      Y:    -0.9827      Z:    -0.3022     Total:     1.0718

*** Psi4 exiting successfully. Buy a developer a beer!
