                               Psi4 1.3.2 release

  ==> Input File <==

--------------------------------------------------------------------------
#psi4
#
memory 32 gb

molecule  {
0 1
  O        1.4293010    -1.0173190    -0.5083850
  O        1.2616920     1.0439120     0.4876630
  N       -1.4437855     1.1987682     0.0063690
  C       -0.7590880    -0.0423940    -0.3475120
  C       -1.3403730    -1.2419500     0.4105850
  C        0.7162078     0.1568424    -0.0390921
  H       -0.8593930    -0.2237720    -1.4273650
  H       -2.4052960    -1.3157140     0.1877600
  H       -0.8411410    -2.1737420     0.1227770
  H       -1.2225590    -1.1039570     1.4923070
  H       -1.0898030     1.9609300    -0.5079820
  H       -1.3695700     1.3697580     0.9773170
  H        2.3653570    -0.8358360    -0.2741470
units angstrom
no_reorient  #important for SAPT in psi4, default
symmetry c1  #important for SAPT in psi4, default
}

set PROPERTIES_ORIGIN ["COM"]
properties('MP2/aug-cc-pvtz', properties = ['dipole'])
--------------------------------------------------------------------------

    Molecular point group: c1
  Charge       = 0
  Multiplicity = 1
  Basis Set: AUG-CC-PVTZ
    Blend: AUG-CC-PVTZ
  Basis Set: (AUG-CC-PVTZ AUX)
    Blend: AUG-CC-PVTZ-JKFIT

    Orbital Energies [Eh]
    ---------------------

    Doubly Occupied:

       1A    -20.598204     2A    -20.573421     3A    -15.542363
       4A    -11.387849     5A    -11.287526     6A    -11.234228
       7A     -1.465092     8A     -1.358582     9A     -1.206043
      10A     -1.023319    11A     -0.902308    12A     -0.777018
      13A     -0.711583    14A     -0.703994    15A     -0.683388
      16A     -0.623798    17A     -0.608809    18A     -0.605470
      19A     -0.555064    20A     -0.535303    21A     -0.513910
      22A     -0.499228    23A     -0.464857    24A     -0.404483

  @DF-RHF Final Energy:  -321.98962041215015

   => Energetics <=

    Nuclear Repulsion Energy =            248.6586594150072642
    One-Electron Energy =                -932.7648845485666698
    Two-Electron Energy =                 362.1166047214092600
    Total Energy =                       -321.9896204121501455
  Basis Set: (AUG-CC-PVTZ AUX)
    Blend: AUG-CC-PVTZ-RI
    Molecular point group: c1

    Geometry (in Angstrom), charge = 0, multiplicity = 1:

       Center              X                  Y                   Z               Mass
    ------------   -----------------  -----------------  -----------------  -----------------
         O            1.420756204751    -1.032381358455    -0.515354774574    15.994914619570
         O            1.253147204751     1.028849641545     0.480693225426    15.994914619570
         N           -1.452330295249     1.183705841545    -0.000600774574    14.003074004430
         C           -0.767632795249    -0.057456358455    -0.354481774574    12.000000000000
         C           -1.348917795249    -1.257012358455     0.403615225426    12.000000000000
         C            0.707663004751     0.141780041545    -0.046061874574    12.000000000000
         H           -0.867937795249    -0.238834358455    -1.434334774574     1.007825032230
         H           -2.413840795249    -1.330776358455     0.180790225426     1.007825032230
         H           -0.849685795249    -2.188804358455     0.115807225426     1.007825032230
         H           -1.231103795249    -1.119019358455     1.485337225426     1.007825032230
         H           -1.098347795249     1.945867641545    -0.514951774574     1.007825032230
         H           -1.378114795249     1.354695641545     0.970347225426     1.007825032230
         H            2.356812204751    -0.850898358455    -0.281116774574     1.007825032230

  Basis Set: AUG-CC-PVTZ
    Blend: AUG-CC-PVTZ
  Basis Set: (AUG-CC-PVTZ AUX)
    Blend: AUG-CC-PVTZ-JKFIT
	 Reference Energy          =    -321.9896204121501455 [Eh]
	 Singles Energy            =      -0.0000000000000000 [Eh]
	 Same-Spin Energy          =      -0.3159895310984391 [Eh]
	 Opposite-Spin Energy      =      -0.9986518049045028 [Eh]
	 Correlation Energy        =      -1.3146413360029419 [Eh]
	 Total Energy              =    -323.3042617481530669 [Eh]

	 ================> DF-SCS-MP2 Energies <==================
	-----------------------------------------------------------
	 SCS Same-Spin Scale       =       0.3333333333333333 [-]
	 SCS Opposite-Spin Scale   =       1.2000000000000000 [-]
	 SCS Same-Spin Energy      =      -0.1053298436994797 [Eh]
	 SCS Opposite-Spin Energy  =      -1.1983821658854032 [Eh]
	 SCS Correlation Energy    =      -1.3037120095848829 [Eh]
	 SCS Total Energy          =    -323.2933324217350446 [Eh]
	-----------------------------------------------------------

  Dipole Moment: [D]
     X:     0.2540      Y:    -0.6140      Z:    -0.0877     Total:     0.6702

*** Psi4 exiting successfully. Buy a developer a beer!
