                               Psi4 1.3.2 release

  ==> Input File <==

--------------------------------------------------------------------------
#psi4
#
memory 32 gb

molecule  {
0 1
  O        1.4293010    -1.0173190    -0.5083850
  O        1.2616920     1.0439120     0.4876630
  N       -1.5094500     1.1665790    -0.0160500
  C       -0.7590880    -0.0423940    -0.3475120
  C       -1.3403730    -1.2419500     0.4105850
  C        0.7396738     0.0874752    -0.0606560
  H       -0.8593930    -0.2237720    -1.4273650
  H       -2.4052960    -1.3157140     0.1877600
  H       -0.8411410    -2.1737420     0.1227770
  H       -1.2225590    -1.1039570     1.4923070
  H       -1.0898030     1.9609300    -0.5079820
  H       -1.3695700     1.3697580     0.9773170
  H        2.3630115    -0.8283295    -0.2707465
units angstrom
no_reorient  #important for SAPT in psi4, default
symmetry c1  #important for SAPT in psi4, default
}

set PROPERTIES_ORIGIN ["COM"]
properties('MP2/aug-cc-pvtz', properties = ['dipole'])
--------------------------------------------------------------------------

    Molecular point group: c1
  Charge       = 0
  Multiplicity = 1
  Basis Set: AUG-CC-PVTZ
    Blend: AUG-CC-PVTZ
  Basis Set: (AUG-CC-PVTZ AUX)
    Blend: AUG-CC-PVTZ-JKFIT

    Orbital Energies [Eh]
    ---------------------

    Doubly Occupied:

       1A    -20.622970     2A    -20.562456     3A    -15.552780
       4A    -11.393796     5A    -11.285581     6A    -11.232232
       7A     -1.460209     8A     -1.364802     9A     -1.198210
      10A     -1.020225    11A     -0.904449    12A     -0.791067
      13A     -0.712427    14A     -0.702310    15A     -0.672329
      16A     -0.627456    17A     -0.609790    18A     -0.596551
      19A     -0.551445    20A     -0.529318    21A     -0.511799
      22A     -0.489908    23A     -0.462426    24A     -0.414528

  @DF-RHF Final Energy:  -321.99517198586148

   => Energetics <=

    Nuclear Repulsion Energy =            247.8337132458011638
    One-Electron Energy =                -931.1196355719526991
    Two-Electron Energy =                 361.2907503402900602
    Total Energy =                       -321.9951719858614752
  Basis Set: (AUG-CC-PVTZ AUX)
    Blend: AUG-CC-PVTZ-RI
    Molecular point group: c1

    Geometry (in Angstrom), charge = 0, multiplicity = 1:

       Center              X                  Y                   Z               Mass
    ------------   -----------------  -----------------  -----------------  -----------------
         O            1.427946473128    -1.018056572755    -0.508961855445    15.994914619570
         O            1.260337473128     1.043174427245     0.487086144555    15.994914619570
         N           -1.510804526872     1.165841427245    -0.016626855445    14.003074004430
         C           -0.760442526872    -0.043131572755    -0.348088855445    12.000000000000
         C           -1.341727526872    -1.242687572755     0.410008144555    12.000000000000
         C            0.738319273128     0.086737627245    -0.061232855445    12.000000000000
         H           -0.860747526872    -0.224509572755    -1.427941855445     1.007825032230
         H           -2.406650526872    -1.316451572755     0.187183144555     1.007825032230
         H           -0.842495526872    -2.174479572755     0.122200144555     1.007825032230
         H           -1.223913526872    -1.104694572755     1.491730144555     1.007825032230
         H           -1.091157526872     1.960192427245    -0.508558855445     1.007825032230
         H           -1.370924526872     1.369020427245     0.976740144555     1.007825032230
         H            2.361656973128    -0.829067072755    -0.271323355445     1.007825032230

  Basis Set: AUG-CC-PVTZ
    Blend: AUG-CC-PVTZ
  Basis Set: (AUG-CC-PVTZ AUX)
    Blend: AUG-CC-PVTZ-JKFIT
	 Reference Energy          =    -321.9951719858614752 [Eh]
	 Singles Energy            =      -0.0000000000000000 [Eh]
	 Same-Spin Energy          =      -0.3169398034828940 [Eh]
	 Opposite-Spin Energy      =      -1.0007245430246403 [Eh]
	 Correlation Energy        =      -1.3176643465075344 [Eh]
	 Total Energy              =    -323.3128363323689882 [Eh]

	 ================> DF-SCS-MP2 Energies <==================
	-----------------------------------------------------------
	 SCS Same-Spin Scale       =       0.3333333333333333 [-]
	 SCS Opposite-Spin Scale   =       1.2000000000000000 [-]
	 SCS Same-Spin Energy      =      -0.1056466011609647 [Eh]
	 SCS Opposite-Spin Energy  =      -1.2008694516295684 [Eh]
	 SCS Correlation Energy    =      -1.3065160527905331 [Eh]
	 SCS Total Energy          =    -323.3016880386520029 [Eh]
	-----------------------------------------------------------

  Dipole Moment: [D]
     X:     0.6411      Y:    -1.1009      Z:    -0.2927     Total:     1.3071

*** Psi4 exiting successfully. Buy a developer a beer!
