                               Psi4 1.4a3.dev225

  ==> Input File <==

--------------------------------------------------------------------------
#psi4
#
memory 32 gb

molecule  {
0 1
  O       -1.6162430     0.8314800    -0.3809140
  O       -1.1510000    -1.1772170     0.5605200
  N        1.5455560    -1.0219050    -0.2870820
  C        0.6967712     0.0938704    -0.3984012
  C        1.1923300     1.2755990     0.4679010
  C       -0.7726990    -0.1733030    -0.0203720
  H        0.6629820     0.4626600    -1.4478320
  H        2.2238070     1.4912930     0.1836440
  H        0.5830780     2.1739270     0.3501650
  H        1.1794500     0.9804810     1.5223570
  H        1.2015560    -1.7655910    -0.8946420
  H        1.4549450    -1.3946670     0.6589060
  H       -2.5041220     0.5561110    -0.0708870
units angstrom
no_reorient  #important for SAPT in psi4, default
symmetry c1  #important for SAPT in psi4, default
}

set PROPERTIES_ORIGIN ["COM"]
properties('MP2/aug-cc-pvtz', properties = ['dipole'])
--------------------------------------------------------------------------

    Molecular point group: c1
  Charge       = 0
  Multiplicity = 1
  Basis Set: AUG-CC-PVTZ
    Blend: AUG-CC-PVTZ
  Basis Set: (AUG-CC-PVTZ AUX)
    Blend: AUG-CC-PVTZ-JKFIT

    Orbital Energies [Eh]
    ---------------------

    Doubly Occupied:

       1A    -20.621736     2A    -20.556092     3A    -15.553468
       4A    -11.388531     5A    -11.284794     6A    -11.231076
       7A     -1.463721     8A     -1.361339     9A     -1.216721
      10A     -1.018093    11A     -0.901939    12A     -0.795074
      13A     -0.712204    14A     -0.706605    15A     -0.678824
      16A     -0.631313    17A     -0.612331    18A     -0.596418
      19A     -0.548620    20A     -0.540139    21A     -0.502781
      22A     -0.484616    23A     -0.463033    24A     -0.412095

  @DF-RHF Final Energy:  -321.99570064406072

   => Energetics <=

    Nuclear Repulsion Energy =            248.9077400254915062
    One-Electron Energy =                -933.2437555822400554
    Two-Electron Energy =                 362.3403149126878020
    Total Energy =                       -321.9957006440607188
  Basis Set: (AUG-CC-PVTZ AUX)
    Blend: AUG-CC-PVTZ-RI
    Molecular point group: c1

    Geometry (in Angstrom), charge = 0, multiplicity = 1:

       Center              X                  Y                   Z               Mass
    ------------   -----------------  -----------------  -----------------  -----------------
         O           -1.567020103682     0.864743514917    -0.378065611786    15.994914619570
         O           -1.101777103682    -1.143953485083     0.563368388214    15.994914619570
         N            1.594778896318    -0.988641485083    -0.284233611786    14.003074004430
         C            0.745994096318     0.127133914917    -0.395552811786    12.000000000000
         C            1.241552896318     1.308862514917     0.470749388214    12.000000000000
         C           -0.723476103682    -0.140039485083    -0.017523611786    12.000000000000
         H            0.712204896318     0.495923514917    -1.444983611786     1.007825032230
         H            2.273029896318     1.524556514917     0.186492388214     1.007825032230
         H            0.632300896318     2.207190514917     0.353013388214     1.007825032230
         H            1.228672896318     1.013744514917     1.525205388214     1.007825032230
         H            1.250778896318    -1.732327485083    -0.891793611786     1.007825032230
         H            1.504167896318    -1.361403485083     0.661754388214     1.007825032230
         H           -2.454899103682     0.589374514917    -0.068038611786     1.007825032230

  Basis Set: AUG-CC-PVTZ
    Blend: AUG-CC-PVTZ
  Basis Set: (AUG-CC-PVTZ AUX)
    Blend: AUG-CC-PVTZ-JKFIT
	 Reference Energy          =    -321.9957006440607188 [Eh]
	 Singles Energy            =      -0.0000000000000000 [Eh]
	 Same-Spin Energy          =      -0.3168454426392473 [Eh]
	 Opposite-Spin Energy      =      -0.9993816196532809 [Eh]
	 Correlation Energy        =      -1.3162270622925281 [Eh]
	 Total Energy              =    -323.3119277063532309 [Eh]

	 ================> DF-SCS-MP2 Energies <==================
	-----------------------------------------------------------
	 SCS Same-Spin Scale       =       0.3333333333333333 [-]
	 SCS Opposite-Spin Scale   =       1.2000000000000000 [-]
	 SCS Same-Spin Energy      =      -0.1056151475464158 [Eh]
	 SCS Opposite-Spin Energy  =      -1.1992579435839370 [Eh]
	 SCS Correlation Energy    =      -1.3048730911303528 [Eh]
	 SCS Total Energy          =    -323.3005737351910511 [Eh]
	-----------------------------------------------------------

  Dipole Moment: [D]
     X:    -0.6933      Y:     0.9526      Z:    -0.3622     Total:     1.2326

*** Psi4 exiting successfully. Buy a developer a beer!
