                               Psi4 1.3.2 release

  ==> Input File <==

--------------------------------------------------------------------------
#psi4
#
memory 32 gb

molecule  {
0 1
  O        1.4293010    -1.0173190    -0.5083850
  O        1.2616920     1.0439120     0.4876630
  N       -1.5094500     1.1665790    -0.0160500
  C       -0.7590880    -0.0423940    -0.3475120
  C       -1.3403730    -1.2419500     0.4105850
  C        0.6889754     0.0624254    -0.0809659
  H       -0.8593930    -0.2237720    -1.4273650
  H       -2.4052960    -1.3157140     0.1877600
  H       -0.8411410    -2.1737420     0.1227770
  H       -1.2225590    -1.1039570     1.4923070
  H       -1.0898030     1.9609300    -0.5079820
  H       -1.3695700     1.3697580     0.9773170
  H        2.3740245    -0.8659946    -0.2879246
units angstrom
no_reorient  #important for SAPT in psi4, default
symmetry c1  #important for SAPT in psi4, default
}

set PROPERTIES_ORIGIN ["COM"]
properties('MP2/aug-cc-pvtz', properties = ['dipole'])
--------------------------------------------------------------------------

    Molecular point group: c1
  Charge       = 0
  Multiplicity = 1
  Basis Set: AUG-CC-PVTZ
    Blend: AUG-CC-PVTZ
  Basis Set: (AUG-CC-PVTZ AUX)
    Blend: AUG-CC-PVTZ-JKFIT

    Orbital Energies [Eh]
    ---------------------

    Doubly Occupied:

       1A    -20.623211     2A    -20.555113     3A    -15.555417
       4A    -11.399854     5A    -11.287721     6A    -11.236349
       7A     -1.449488     8A     -1.336868     9A     -1.203224
      10A     -1.030866    11A     -0.917362    12A     -0.798003
      13A     -0.711577    14A     -0.698169    15A     -0.673729
      16A     -0.622730    17A     -0.607279    18A     -0.591789
      19A     -0.549701    20A     -0.531153    21A     -0.515960
      22A     -0.472713    23A     -0.457624    24A     -0.422297

  @DF-RHF Final Energy:  -321.98564782403713

   => Energetics <=

    Nuclear Repulsion Energy =            247.7530408395321331
    One-Electron Energy =                -930.9809802289186109
    Two-Electron Energy =                 361.2422915653493760
    Total Energy =                       -321.9856478240371302
  Basis Set: (AUG-CC-PVTZ AUX)
    Blend: AUG-CC-PVTZ-RI
    Molecular point group: c1

    Geometry (in Angstrom), charge = 0, multiplicity = 1:

       Center              X                  Y                   Z               Mass
    ------------   -----------------  -----------------  -----------------  -----------------
         O            1.434653909337    -1.014254593451    -0.506030489645    15.994914619570
         O            1.267044909337     1.046976406549     0.490017510355    15.994914619570
         N           -1.504097090663     1.169643406549    -0.013695489645    14.003074004430
         C           -0.753735090663    -0.039329593451    -0.345157489645    12.000000000000
         C           -1.335020090663    -1.238885593451     0.412939510355    12.000000000000
         C            0.694328309337     0.065489806549    -0.078611389645    12.000000000000
         H           -0.854040090663    -0.220707593451    -1.425010489645     1.007825032230
         H           -2.399943090663    -1.312649593451     0.190114510355     1.007825032230
         H           -0.835788090663    -2.170677593451     0.125131510355     1.007825032230
         H           -1.217206090663    -1.100892593451     1.494661510355     1.007825032230
         H           -1.084450090663     1.963994406549    -0.505627489645     1.007825032230
         H           -1.364217090663     1.372822406549     0.979671510355     1.007825032230
         H            2.379377409337    -0.862930193451    -0.285570089645     1.007825032230

  Basis Set: AUG-CC-PVTZ
    Blend: AUG-CC-PVTZ
  Basis Set: (AUG-CC-PVTZ AUX)
    Blend: AUG-CC-PVTZ-JKFIT
	 Reference Energy          =    -321.9856478240371302 [Eh]
	 Singles Energy            =      -0.0000000000000000 [Eh]
	 Same-Spin Energy          =      -0.3182249531335259 [Eh]
	 Opposite-Spin Energy      =      -1.0031787931635336 [Eh]
	 Correlation Energy        =      -1.3214037462970596 [Eh]
	 Total Energy              =    -323.3070515703341812 [Eh]

	 ================> DF-SCS-MP2 Energies <==================
	-----------------------------------------------------------
	 SCS Same-Spin Scale       =       0.3333333333333333 [-]
	 SCS Opposite-Spin Scale   =       1.2000000000000000 [-]
	 SCS Same-Spin Energy      =      -0.1060749843778420 [Eh]
	 SCS Opposite-Spin Energy  =      -1.2038145517962404 [Eh]
	 SCS Correlation Energy    =      -1.3098895361740823 [Eh]
	 SCS Total Energy          =    -323.2955373602111990 [Eh]
	-----------------------------------------------------------

  Dipole Moment: [D]
     X:     0.4233      Y:    -1.3198      Z:    -0.4078     Total:     1.4448

*** Psi4 exiting successfully. Buy a developer a beer!
