                               Psi4 1.4a3.dev225

  ==> Input File <==

--------------------------------------------------------------------------
#psi4
#
memory 32 gb

molecule  {
0 1
  O       -1.6162430     0.8314800    -0.3809140
  O       -1.1510000    -1.1772170     0.5605200
  N        1.5455560    -1.0219050    -0.2870820
  C        0.6665940     0.1335400    -0.4023590
  C        1.1923300     1.2755990     0.4679010
  C       -0.7416993    -0.2102281    -0.0071223
  H        0.6629820     0.4626600    -1.4478320
  H        2.2238070     1.4912930     0.1836440
  H        0.5830780     2.1739270     0.3501650
  H        1.1794500     0.9804810     1.5223570
  H        1.2015560    -1.7655910    -0.8946420
  H        1.4549450    -1.3946670     0.6589060
  H       -2.5041220     0.5561110    -0.0708870
units angstrom
no_reorient  #important for SAPT in psi4, default
symmetry c1  #important for SAPT in psi4, default
}

set PROPERTIES_ORIGIN ["COM"]
properties('MP2/aug-cc-pvtz', properties = ['dipole'])
--------------------------------------------------------------------------

    Molecular point group: c1
  Charge       = 0
  Multiplicity = 1
  Basis Set: AUG-CC-PVTZ
    Blend: AUG-CC-PVTZ
  Basis Set: (AUG-CC-PVTZ AUX)
    Blend: AUG-CC-PVTZ-JKFIT

    Orbital Energies [Eh]
    ---------------------

    Doubly Occupied:

       1A    -20.607562     2A    -20.566518     3A    -15.553568
       4A    -11.390275     5A    -11.284848     6A    -11.232844
       7A     -1.458844     8A     -1.363106     9A     -1.205745
      10A     -1.025073    11A     -0.907399    12A     -0.784110
      13A     -0.714340    14A     -0.704131    15A     -0.672845
      16A     -0.625948    17A     -0.609364    18A     -0.599110
      19A     -0.551930    20A     -0.533510    21A     -0.511688
      22A     -0.494095    23A     -0.466789    24A     -0.416550

  @DF-RHF Final Energy:  -321.99565978549094

   => Energetics <=

    Nuclear Repulsion Energy =            248.9788038809342652
    One-Electron Energy =                -933.3885415668834185
    Two-Electron Energy =                 362.4140779004582100
    Total Energy =                       -321.9956597854909432
  Basis Set: (AUG-CC-PVTZ AUX)
    Blend: AUG-CC-PVTZ-RI
    Molecular point group: c1

    Geometry (in Angstrom), charge = 0, multiplicity = 1:

       Center              X                  Y                   Z               Mass
    ------------   -----------------  -----------------  -----------------  -----------------
         O           -1.567130943180     0.864373668105    -0.379317781431    15.994914619570
         O           -1.101887943180    -1.144323331895     0.562116218569    15.994914619570
         N            1.594668056820    -0.989011331895    -0.285485781431    14.003074004430
         C            0.715706056820     0.166433668105    -0.400762781431    12.000000000000
         C            1.241442056820     1.308492668105     0.469497218569    12.000000000000
         C           -0.692587243180    -0.177334431895    -0.005526081431    12.000000000000
         H            0.712094056820     0.495553668105    -1.446235781431     1.007825032230
         H            2.272919056820     1.524186668105     0.185240218569     1.007825032230
         H            0.632190056820     2.206820668105     0.351761218569     1.007825032230
         H            1.228562056820     1.013374668105     1.523953218569     1.007825032230
         H            1.250668056820    -1.732697331895    -0.893045781431     1.007825032230
         H            1.504057056820    -1.361773331895     0.660502218569     1.007825032230
         H           -2.455009943180     0.589004668105    -0.069290781431     1.007825032230

  Basis Set: AUG-CC-PVTZ
    Blend: AUG-CC-PVTZ
  Basis Set: (AUG-CC-PVTZ AUX)
    Blend: AUG-CC-PVTZ-JKFIT
	 Reference Energy          =    -321.9956597854909432 [Eh]
	 Singles Energy            =      -0.0000000000000000 [Eh]
	 Same-Spin Energy          =      -0.3165986105830696 [Eh]
	 Opposite-Spin Energy      =      -0.9997519323779326 [Eh]
	 Correlation Energy        =      -1.3163505429610023 [Eh]
	 Total Energy              =    -323.3120103284519473 [Eh]

	 ================> DF-SCS-MP2 Energies <==================
	-----------------------------------------------------------
	 SCS Same-Spin Scale       =       0.3333333333333333 [-]
	 SCS Opposite-Spin Scale   =       1.2000000000000000 [-]
	 SCS Same-Spin Energy      =      -0.1055328701943565 [Eh]
	 SCS Opposite-Spin Energy  =      -1.1997023188535190 [Eh]
	 SCS Correlation Energy    =      -1.3052351890478755 [Eh]
	 SCS Total Energy          =    -323.3008949745388350 [Eh]
	-----------------------------------------------------------

  Dipole Moment: [D]
     X:    -0.5463      Y:     0.7571      Z:    -0.2219     Total:     0.9596

*** Psi4 exiting successfully. Buy a developer a beer!
