                               Psi4 1.3.2 release

  ==> Input File <==

--------------------------------------------------------------------------
#psi4
#
memory 32 gb

molecule  {
0 1
  O        1.4293010    -1.0173190    -0.5083850
  O        1.2616920     1.0439120     0.4876630
  N       -1.5094500     1.1665790    -0.0160500
  C       -0.7253779    -0.0756736    -0.3724337
  C       -1.3403730    -1.2419500     0.4105850
  C        0.7294260     0.0826320    -0.0646510
  H       -0.8593930    -0.2237720    -1.4273650
  H       -2.4052960    -1.3157140     0.1877600
  H       -0.8191114    -2.1537359     0.0987596
  H       -1.2225590    -1.1039570     1.4923070
  H       -1.0898030     1.9609300    -0.5079820
  H       -1.3695700     1.3697580     0.9773170
  H        2.3653570    -0.8358360    -0.2741470
units angstrom
no_reorient  #important for SAPT in psi4, default
symmetry c1  #important for SAPT in psi4, default
}

set PROPERTIES_ORIGIN ["COM"]
properties('MP2/aug-cc-pvtz', properties = ['dipole'])
--------------------------------------------------------------------------

    Molecular point group: c1
  Charge       = 0
  Multiplicity = 1
  Basis Set: AUG-CC-PVTZ
    Blend: AUG-CC-PVTZ
  Basis Set: (AUG-CC-PVTZ AUX)
    Blend: AUG-CC-PVTZ-JKFIT

    Orbital Energies [Eh]
    ---------------------

    Doubly Occupied:

       1A    -20.623259     2A    -20.563204     3A    -15.551487
       4A    -11.396952     5A    -11.284439     6A    -11.234429
       7A     -1.459497     8A     -1.360876     9A     -1.185841
      10A     -1.025712    11A     -0.912969    12A     -0.793293
      13A     -0.713112    14A     -0.704349    15A     -0.665050
      16A     -0.627091    17A     -0.607986    18A     -0.595872
      19A     -0.553438    20A     -0.522720    21A     -0.515829
      22A     -0.487404    23A     -0.463015    24A     -0.416934

  @DF-RHF Final Energy:  -321.99033152401228

   => Energetics <=

    Nuclear Repulsion Energy =            247.8171106674372197
    One-Electron Energy =                -931.0853660079678775
    Two-Electron Energy =                 361.2779238165184097
    Total Energy =                       -321.9903315240122765
  Basis Set: (AUG-CC-PVTZ AUX)
    Blend: AUG-CC-PVTZ-RI
    Molecular point group: c1

    Geometry (in Angstrom), charge = 0, multiplicity = 1:

       Center              X                  Y                   Z               Mass
    ------------   -----------------  -----------------  -----------------  -----------------
         O            1.424508837906    -1.013060640263    -0.504754751426    15.994914619570
         O            1.256899837906     1.048170359737     0.491293248574    15.994914619570
         N           -1.514242162094     1.170837359737    -0.012419751426    14.003074004430
         C           -0.730170062094    -0.071415240263    -0.368803451426    12.000000000000
         C           -1.345165162094    -1.237691640263     0.414215248574    12.000000000000
         C            0.724633837906     0.086890359737    -0.061020751426    12.000000000000
         H           -0.864185162094    -0.219513640263    -1.423734751426     1.007825032230
         H           -2.410088162094    -1.311455640263     0.191390248574     1.007825032230
         H           -0.823903562094    -2.149477540263     0.102389848574     1.007825032230
         H           -1.227351162094    -1.099698640263     1.495937248574     1.007825032230
         H           -1.094595162094     1.965188359737    -0.504351751426     1.007825032230
         H           -1.374362162094     1.374016359737     0.980947248574     1.007825032230
         H            2.360564837906    -0.831577640263    -0.270516751426     1.007825032230

  Basis Set: AUG-CC-PVTZ
    Blend: AUG-CC-PVTZ
  Basis Set: (AUG-CC-PVTZ AUX)
    Blend: AUG-CC-PVTZ-JKFIT
	 Reference Energy          =    -321.9903315240122765 [Eh]
	 Singles Energy            =      -0.0000000000000000 [Eh]
	 Same-Spin Energy          =      -0.3172802508849445 [Eh]
	 Opposite-Spin Energy      =      -1.0019192482068120 [Eh]
	 Correlation Energy        =      -1.3191994990917566 [Eh]
	 Total Energy              =    -323.3095310231040571 [Eh]

	 ================> DF-SCS-MP2 Energies <==================
	-----------------------------------------------------------
	 SCS Same-Spin Scale       =       0.3333333333333333 [-]
	 SCS Opposite-Spin Scale   =       1.2000000000000000 [-]
	 SCS Same-Spin Energy      =      -0.1057600836283148 [Eh]
	 SCS Opposite-Spin Energy  =      -1.2023030978481744 [Eh]
	 SCS Correlation Energy    =      -1.3080631814764891 [Eh]
	 SCS Total Energy          =    -323.2983947054887608 [Eh]
	-----------------------------------------------------------

  Dipole Moment: [D]
     X:     0.6746      Y:    -1.2235      Z:    -0.3385     Total:     1.4375

*** Psi4 exiting successfully. Buy a developer a beer!
