                               Psi4 1.3.2 release

  ==> Input File <==

--------------------------------------------------------------------------
#psi4
#
memory 32 gb

molecule  {
0 1
  O        1.4897289    -0.9862218    -0.4843033
  O        1.3183985     1.0141378     0.4810828
  N       -1.5094500     1.1665790    -0.0160500
  C       -0.7590880    -0.0423940    -0.3475120
  C       -1.3403730    -1.2419500     0.4105850
  C        0.7294260     0.0826320    -0.0646510
  H       -0.8593930    -0.2237720    -1.4273650
  H       -2.4052960    -1.3157140     0.1877600
  H       -0.8411410    -2.1737420     0.1227770
  H       -1.2225590    -1.1039570     1.4923070
  H       -1.0898030     1.9609300    -0.5079820
  H       -1.3695700     1.3697580     0.9773170
  H        2.3653570    -0.8358360    -0.2741470
units angstrom
no_reorient  #important for SAPT in psi4, default
symmetry c1  #important for SAPT in psi4, default
}

set PROPERTIES_ORIGIN ["COM"]
properties('MP2/aug-cc-pvtz', properties = ['dipole'])
--------------------------------------------------------------------------

    Molecular point group: c1
  Charge       = 0
  Multiplicity = 1
  Basis Set: AUG-CC-PVTZ
    Blend: AUG-CC-PVTZ
  Basis Set: (AUG-CC-PVTZ AUX)
    Blend: AUG-CC-PVTZ-JKFIT

    Orbital Energies [Eh]
    ---------------------

    Doubly Occupied:

       1A    -20.607555     2A    -20.556708     3A    -15.557979
       4A    -11.394878     5A    -11.292747     6A    -11.236141
       7A     -1.464861     8A     -1.355459     9A     -1.204156
      10A     -1.027021    11A     -0.914116    12A     -0.806437
      13A     -0.713204    14A     -0.701443    15A     -0.675938
      16A     -0.625485    17A     -0.611101    18A     -0.596820
      19A     -0.551345    20A     -0.532313    21A     -0.515990
      22A     -0.481717    23A     -0.461225    24A     -0.421445

  @DF-RHF Final Energy:  -321.99363316671099

   => Energetics <=

    Nuclear Repulsion Energy =            247.6493788123144384
    One-Electron Energy =                -930.6738560001873566
    Two-Electron Energy =                 361.0308440211618972
    Total Energy =                       -321.9936331667109926
  Basis Set: (AUG-CC-PVTZ AUX)
    Blend: AUG-CC-PVTZ-RI
    Molecular point group: c1

    Geometry (in Angstrom), charge = 0, multiplicity = 1:

       Center              X                  Y                   Z               Mass
    ------------   -----------------  -----------------  -----------------  -----------------
         O            1.468688907872    -0.986459389293    -0.487446958905    15.994914619570
         O            1.297358507872     1.013900210707     0.477939141095    15.994914619570
         N           -1.530489992128     1.166341410707    -0.019193658905    14.003074004430
         C           -0.780127992128    -0.042631589293    -0.350655658905    12.000000000000
         C           -1.361412992128    -1.242187589293     0.407441341095    12.000000000000
         C            0.708386007872     0.082394410707    -0.067794658905    12.000000000000
         H           -0.880432992128    -0.224009589293    -1.430508658905     1.007825032230
         H           -2.426335992128    -1.315951589293     0.184616341095     1.007825032230
         H           -0.862180992128    -2.173979589293     0.119633341095     1.007825032230
         H           -1.243598992128    -1.104194589293     1.489163341095     1.007825032230
         H           -1.110842992128     1.960692410707    -0.511125658905     1.007825032230
         H           -1.390609992128     1.369520410707     0.974173341095     1.007825032230
         H            2.344317007872    -0.836073589293    -0.277290658905     1.007825032230

  Basis Set: AUG-CC-PVTZ
    Blend: AUG-CC-PVTZ
  Basis Set: (AUG-CC-PVTZ AUX)
    Blend: AUG-CC-PVTZ-JKFIT
	 Reference Energy          =    -321.9936331667109926 [Eh]
	 Singles Energy            =      -0.0000000000000000 [Eh]
	 Same-Spin Energy          =      -0.3157375097301697 [Eh]
	 Opposite-Spin Energy      =      -0.9981931837681181 [Eh]
	 Correlation Energy        =      -1.3139306934982877 [Eh]
	 Total Energy              =    -323.3075638602092567 [Eh]

	 ================> DF-SCS-MP2 Energies <==================
	-----------------------------------------------------------
	 SCS Same-Spin Scale       =       0.3333333333333333 [-]
	 SCS Opposite-Spin Scale   =       1.2000000000000000 [-]
	 SCS Same-Spin Energy      =      -0.1052458365767232 [Eh]
	 SCS Opposite-Spin Energy  =      -1.1978318205217415 [Eh]
	 SCS Correlation Energy    =      -1.3030776570984648 [Eh]
	 SCS Total Energy          =    -323.2967108238094625 [Eh]
	-----------------------------------------------------------

  Dipole Moment: [D]
     X:     0.2312      Y:    -1.0843      Z:    -0.3203     Total:     1.1541

*** Psi4 exiting successfully. Buy a developer a beer!
