                               Psi4 1.3.2 release

  ==> Input File <==

--------------------------------------------------------------------------
#psi4
#
memory 32 gb

molecule  {
0 1
  O        1.4293010    -1.0173190    -0.5083850
  O        1.2616920     1.0439120     0.4876630
  N       -1.5243571     1.1528218    -0.0005996
  C       -0.7590880    -0.0423940    -0.3475120
  C       -1.3585764    -1.2257946     0.4217178
  C        0.7294260     0.0826320    -0.0646510
  H       -0.8593930    -0.2237720    -1.4273650
  H       -2.4052960    -1.3157140     0.1877600
  H       -0.8411410    -2.1737420     0.1227770
  H       -1.2225590    -1.1039570     1.4923070
  H       -1.0898030     1.9609300    -0.5079820
  H       -1.3695700     1.3697580     0.9773170
  H        2.3653570    -0.8358360    -0.2741470
units angstrom
no_reorient  #important for SAPT in psi4, default
symmetry c1  #important for SAPT in psi4, default
}

set PROPERTIES_ORIGIN ["COM"]
properties('MP2/aug-cc-pvtz', properties = ['dipole'])
--------------------------------------------------------------------------

    Molecular point group: c1
  Charge       = 0
  Multiplicity = 1
  Basis Set: AUG-CC-PVTZ
    Blend: AUG-CC-PVTZ
  Basis Set: (AUG-CC-PVTZ AUX)
    Blend: AUG-CC-PVTZ-JKFIT

    Orbital Energies [Eh]
    ---------------------

    Doubly Occupied:

       1A    -20.623504     2A    -20.561808     3A    -15.554984
       4A    -11.395967     5A    -11.286055     6A    -11.232272
       7A     -1.458168     8A     -1.360044     9A     -1.199121
      10A     -1.020276    11A     -0.908161    12A     -0.792787
      13A     -0.711264    14A     -0.703314    15A     -0.667861
      16A     -0.625386    17A     -0.610271    18A     -0.597723
      19A     -0.555170    20A     -0.520308    21A     -0.513482
      22A     -0.486632    23A     -0.462910    24A     -0.418100

  @DF-RHF Final Energy:  -321.99183066057816

   => Energetics <=

    Nuclear Repulsion Energy =            247.7269530111484528
    One-Electron Energy =                -930.9064316105270791
    Two-Electron Energy =                 361.1876479388004668
    Total Energy =                       -321.9918306605781595
  Basis Set: (AUG-CC-PVTZ AUX)
    Blend: AUG-CC-PVTZ-RI
    Molecular point group: c1

    Geometry (in Angstrom), charge = 0, multiplicity = 1:

       Center              X                  Y                   Z               Mass
    ------------   -----------------  -----------------  -----------------  -----------------
         O            1.434098186236    -1.017332669230    -0.512314885987    15.994914619570
         O            1.266489186236     1.043898330770     0.483733114013    15.994914619570
         N           -1.519559913764     1.152808130770    -0.004529485987    14.003074004430
         C           -0.754290813764    -0.042407669230    -0.351441885987    12.000000000000
         C           -1.353779213764    -1.225808269230     0.417787914013    12.000000000000
         C            0.734223186236     0.082618330770    -0.068580885987    12.000000000000
         H           -0.854595813764    -0.223785669230    -1.431294885987     1.007825032230
         H           -2.400498813764    -1.315727669230     0.183830114013     1.007825032230
         H           -0.836343813764    -2.173755669230     0.118847114013     1.007825032230
         H           -1.217761813764    -1.103970669230     1.488377114013     1.007825032230
         H           -1.085005813764     1.960916330770    -0.511911885987     1.007825032230
         H           -1.364772813764     1.369744330770     0.973387114013     1.007825032230
         H            2.370154186236    -0.835849669230    -0.278076885987     1.007825032230

  Basis Set: AUG-CC-PVTZ
    Blend: AUG-CC-PVTZ
  Basis Set: (AUG-CC-PVTZ AUX)
    Blend: AUG-CC-PVTZ-JKFIT
	 Reference Energy          =    -321.9918306605781595 [Eh]
	 Singles Energy            =      -0.0000000000000000 [Eh]
	 Same-Spin Energy          =      -0.3172945199104132 [Eh]
	 Opposite-Spin Energy      =      -1.0016099985538933 [Eh]
	 Correlation Energy        =      -1.3189045184643065 [Eh]
	 Total Energy              =    -323.3107351790424673 [Eh]

	 ================> DF-SCS-MP2 Energies <==================
	-----------------------------------------------------------
	 SCS Same-Spin Scale       =       0.3333333333333333 [-]
	 SCS Opposite-Spin Scale   =       1.2000000000000000 [-]
	 SCS Same-Spin Energy      =      -0.1057648399701377 [Eh]
	 SCS Opposite-Spin Energy  =      -1.2019319982646719 [Eh]
	 SCS Correlation Energy    =      -1.3076968382348095 [Eh]
	 SCS Total Energy          =    -323.2995274988129495 [Eh]
	-----------------------------------------------------------

  Dipole Moment: [D]
     X:     0.6294      Y:    -1.1214      Z:    -0.3292     Total:     1.3274

*** Psi4 exiting successfully. Buy a developer a beer!
