                               Psi4 1.3.2 release

  ==> Input File <==

--------------------------------------------------------------------------
#psi4
#
memory 32 gb

molecule  {
0 1
  O        1.4293010    -1.0173190    -0.5083850
  O        1.2616920     1.0439120     0.4876630
  N       -1.5094500     1.1665790    -0.0160500
  C       -0.7088013    -0.0928488    -0.3845386
  C       -1.3403730    -1.2419500     0.4105850
  C        0.7294260     0.0826320    -0.0646510
  H       -0.8593930    -0.2237720    -1.4273650
  H       -2.4052960    -1.3157140     0.1877600
  H       -0.8083330    -2.1433147     0.0868916
  H       -1.2225590    -1.1039570     1.4923070
  H       -1.0898030     1.9609300    -0.5079820
  H       -1.3695700     1.3697580     0.9773170
  H        2.3653570    -0.8358360    -0.2741470
units angstrom
no_reorient  #important for SAPT in psi4, default
symmetry c1  #important for SAPT in psi4, default
}

set PROPERTIES_ORIGIN ["COM"]
properties('MP2/aug-cc-pvtz', properties = ['dipole'])
--------------------------------------------------------------------------

    Molecular point group: c1
  Charge       = 0
  Multiplicity = 1
  Basis Set: AUG-CC-PVTZ
    Blend: AUG-CC-PVTZ
  Basis Set: (AUG-CC-PVTZ AUX)
    Blend: AUG-CC-PVTZ-JKFIT

    Orbital Energies [Eh]
    ---------------------

    Doubly Occupied:

       1A    -20.623354     2A    -20.564280     3A    -15.550514
       4A    -11.397884     5A    -11.283974     6A    -11.235245
       7A     -1.460429     8A     -1.361578     9A     -1.179920
      10A     -1.027499    11A     -0.915795    12A     -0.793979
      13A     -0.714173    14A     -0.705603    15A     -0.661852
      16A     -0.627295    17A     -0.608413    18A     -0.595344
      19A     -0.554554    20A     -0.526586    21A     -0.509618
      22A     -0.487227    23A     -0.464166    24A     -0.416288

  @DF-RHF Final Energy:  -321.98599095184466

   => Energetics <=

    Nuclear Repulsion Energy =            247.8245008965110401
    One-Electron Energy =                -931.0898416040097345
    Two-Electron Energy =                 361.2793497556540387
    Total Energy =                       -321.9859909518446557
  Basis Set: (AUG-CC-PVTZ AUX)
    Blend: AUG-CC-PVTZ-RI
    Molecular point group: c1

    Geometry (in Angstrom), charge = 0, multiplicity = 1:

       Center              X                  Y                   Z               Mass
    ------------   -----------------  -----------------  -----------------  -----------------
         O            1.422152999495    -1.010864068076    -0.502989184146    15.994914619570
         O            1.254543999495     1.050366931924     0.493058815854    15.994914619570
         N           -1.516598000505     1.173033931924    -0.010654184146    14.003074004430
         C           -0.715949300505    -0.086393868076    -0.379142784146    12.000000000000
         C           -1.347521000505    -1.235495068076     0.415980815854    12.000000000000
         C            0.722277999495     0.089086931924    -0.059255184146    12.000000000000
         H           -0.866541000505    -0.217317068076    -1.421969184146     1.007825032230
         H           -2.412444000505    -1.309259068076     0.193155815854     1.007825032230
         H           -0.815481000505    -2.136859768076     0.092287415854     1.007825032230
         H           -1.229707000505    -1.097502068076     1.497702815854     1.007825032230
         H           -1.096951000505     1.967384931924    -0.502586184146     1.007825032230
         H           -1.376718000505     1.376212931924     0.982712815854     1.007825032230
         H            2.358208999495    -0.829381068076    -0.268751184146     1.007825032230

  Basis Set: AUG-CC-PVTZ
    Blend: AUG-CC-PVTZ
  Basis Set: (AUG-CC-PVTZ AUX)
    Blend: AUG-CC-PVTZ-JKFIT
	 Reference Energy          =    -321.9859909518446557 [Eh]
	 Singles Energy            =      -0.0000000000000000 [Eh]
	 Same-Spin Energy          =      -0.3174438878519462 [Eh]
	 Opposite-Spin Energy      =      -1.0024911516574000 [Eh]
	 Correlation Energy        =      -1.3199350395093461 [Eh]
	 Total Energy              =    -323.3059259913540018 [Eh]

	 ================> DF-SCS-MP2 Energies <==================
	-----------------------------------------------------------
	 SCS Same-Spin Scale       =       0.3333333333333333 [-]
	 SCS Opposite-Spin Scale   =       1.2000000000000000 [-]
	 SCS Same-Spin Energy      =      -0.1058146292839821 [Eh]
	 SCS Opposite-Spin Energy  =      -1.2029893819888799 [Eh]
	 SCS Correlation Energy    =      -1.3088040112728621 [Eh]
	 SCS Total Energy          =    -323.2947949631175106 [Eh]
	-----------------------------------------------------------

  Dipole Moment: [D]
     X:     0.7101      Y:    -1.2598      Z:    -0.3478     Total:     1.4873

*** Psi4 exiting successfully. Buy a developer a beer!
