                               Psi4 1.3.2 release

  ==> Input File <==

--------------------------------------------------------------------------
#psi4
#
memory 32 gb

molecule  {
0 1
  O        1.4293010    -1.0173190    -0.5083850
  O        1.2616920     1.0439120     0.4876630
  N       -1.4789547     1.1929845    -0.0472490
  C       -0.7590880    -0.0423940    -0.3475120
  C       -1.3034406    -1.2731598     0.3876300
  C        0.7294260     0.0826320    -0.0646510
  H       -0.8593930    -0.2237720    -1.4273650
  H       -2.4052960    -1.3157140     0.1877600
  H       -0.8411410    -2.1737420     0.1227770
  H       -1.2225590    -1.1039570     1.4923070
  H       -1.0898030     1.9609300    -0.5079820
  H       -1.3695700     1.3697580     0.9773170
  H        2.3653570    -0.8358360    -0.2741470
units angstrom
no_reorient  #important for SAPT in psi4, default
symmetry c1  #important for SAPT in psi4, default
}

set PROPERTIES_ORIGIN ["COM"]
properties('MP2/aug-cc-pvtz', properties = ['dipole'])
--------------------------------------------------------------------------

    Molecular point group: c1
  Charge       = 0
  Multiplicity = 1
  Basis Set: AUG-CC-PVTZ
    Blend: AUG-CC-PVTZ
  Basis Set: (AUG-CC-PVTZ AUX)
    Blend: AUG-CC-PVTZ-JKFIT

    Orbital Energies [Eh]
    ---------------------

    Doubly Occupied:

       1A    -20.622061     2A    -20.559531     3A    -15.550370
       4A    -11.393150     5A    -11.286823     6A    -11.235538
       7A     -1.456698     8A     -1.358311     9A     -1.200411
      10A     -1.026884    11A     -0.905673    12A     -0.792821
      13A     -0.711529    14A     -0.700487    15A     -0.682306
      16A     -0.627242    17A     -0.605915    18A     -0.594439
      19A     -0.554503    20A     -0.539229    21A     -0.506751
      22A     -0.485845    23A     -0.459131    24A     -0.412915

  @DF-RHF Final Energy:  -321.98937482308725

   => Energetics <=

    Nuclear Repulsion Energy =            248.0225609860981990
    One-Electron Energy =                -931.4867489813610746
    Two-Electron Energy =                 361.4748131721755726
    Total Energy =                       -321.9893748230872461
  Basis Set: (AUG-CC-PVTZ AUX)
    Blend: AUG-CC-PVTZ-RI
    Molecular point group: c1

    Geometry (in Angstrom), charge = 0, multiplicity = 1:

       Center              X                  Y                   Z               Mass
    ------------   -----------------  -----------------  -----------------  -----------------
         O            1.419528432263    -1.017265501396    -0.500385449771    15.994914619570
         O            1.251919432263     1.043965498604     0.495662550229    15.994914619570
         N           -1.488727267737     1.193037998604    -0.039249449771    14.003074004430
         C           -0.768860567737    -0.042340501396    -0.339512449771    12.000000000000
         C           -1.313213167737    -1.273106301396     0.395629550229    12.000000000000
         C            0.719653432263     0.082685498604    -0.056651449771    12.000000000000
         H           -0.869165567737    -0.223718501396    -1.419365449771     1.007825032230
         H           -2.415068567737    -1.315660501396     0.195759550229     1.007825032230
         H           -0.850913567737    -2.173688501396     0.130776550229     1.007825032230
         H           -1.232331567737    -1.103903501396     1.500306550229     1.007825032230
         H           -1.099575567737     1.960983498604    -0.499982449771     1.007825032230
         H           -1.379342567737     1.369811498604     0.985316550229     1.007825032230
         H            2.355584432263    -0.835782501396    -0.266147449771     1.007825032230

  Basis Set: AUG-CC-PVTZ
    Blend: AUG-CC-PVTZ
  Basis Set: (AUG-CC-PVTZ AUX)
    Blend: AUG-CC-PVTZ-JKFIT
	 Reference Energy          =    -321.9893748230872461 [Eh]
	 Singles Energy            =      -0.0000000000000000 [Eh]
	 Same-Spin Energy          =      -0.3170643641114000 [Eh]
	 Opposite-Spin Energy      =      -1.0007181211077276 [Eh]
	 Correlation Energy        =      -1.3177824852191278 [Eh]
	 Total Energy              =    -323.3071573083063868 [Eh]

	 ================> DF-SCS-MP2 Energies <==================
	-----------------------------------------------------------
	 SCS Same-Spin Scale       =       0.3333333333333333 [-]
	 SCS Opposite-Spin Scale   =       1.2000000000000000 [-]
	 SCS Same-Spin Energy      =      -0.1056881213704667 [Eh]
	 SCS Opposite-Spin Energy  =      -1.2008617453292731 [Eh]
	 SCS Correlation Energy    =      -1.3065498666997399 [Eh]
	 SCS Total Energy          =    -323.2959246897870003 [Eh]
	-----------------------------------------------------------

  Dipole Moment: [D]
     X:     0.5283      Y:    -1.1887      Z:    -0.2880     Total:     1.3323

*** Psi4 exiting successfully. Buy a developer a beer!
