                               Psi4 1.3.2 release

  ==> Input File <==

--------------------------------------------------------------------------
#psi4
#
memory 32 gb

molecule  {
0 1
  O        1.4190386    -1.0222109    -0.5122821
  O        1.2520948     1.0486203     0.4886129
  N       -1.5094500     1.1665790    -0.0160500
  C       -0.7590880    -0.0423940    -0.3475120
  C       -1.3403730    -1.2419500     0.4105850
  C        0.7294260     0.0826320    -0.0646510
  H       -0.8593930    -0.2237720    -1.4273650
  H       -2.4052960    -1.3157140     0.1877600
  H       -0.8411410    -2.1737420     0.1227770
  H       -1.2225590    -1.1039570     1.4923070
  H       -1.0898030     1.9609300    -0.5079820
  H       -1.3695700     1.3697580     0.9773170
  H        2.3653570    -0.8358360    -0.2741470
units angstrom
no_reorient  #important for SAPT in psi4, default
symmetry c1  #important for SAPT in psi4, default
}

set PROPERTIES_ORIGIN ["COM"]
properties('MP2/aug-cc-pvtz', properties = ['dipole'])
--------------------------------------------------------------------------

    Molecular point group: c1
  Charge       = 0
  Multiplicity = 1
  Basis Set: AUG-CC-PVTZ
    Blend: AUG-CC-PVTZ
  Basis Set: (AUG-CC-PVTZ AUX)
    Blend: AUG-CC-PVTZ-JKFIT

    Orbital Energies [Eh]
    ---------------------

    Doubly Occupied:

       1A    -20.625394     2A    -20.561701     3A    -15.552521
       4A    -11.395069     5A    -11.284984     6A    -11.232526
       7A     -1.456633     8A     -1.360129     9A     -1.198390
      10A     -1.021452    11A     -0.906017    12A     -0.790303
      13A     -0.711054    14A     -0.702024    15A     -0.671942
      16A     -0.626506    17A     -0.608374    18A     -0.596026
      19A     -0.550940    20A     -0.529346    21A     -0.512067
      22A     -0.487326    23A     -0.461524    24A     -0.415394

  @DF-RHF Final Energy:  -321.99289553576352

   => Energetics <=

    Nuclear Repulsion Energy =            247.8572785401582621
    One-Electron Energy =                -931.1850668581199670
    Two-Electron Energy =                 361.3348927821981533
    Total Energy =                       -321.9928955357635232
  Basis Set: (AUG-CC-PVTZ AUX)
    Blend: AUG-CC-PVTZ-RI
    Molecular point group: c1

    Geometry (in Angstrom), charge = 0, multiplicity = 1:

       Center              X                  Y                   Z               Mass
    ------------   -----------------  -----------------  -----------------  -----------------
         O            1.422605732629    -1.022177870914    -0.511752724232    15.994914619570
         O            1.255661932629     1.048653329086     0.489142275768    15.994914619570
         N           -1.505882867371     1.166612029086    -0.015520624232    14.003074004430
         C           -0.755520867371    -0.042360970914    -0.346982624232    12.000000000000
         C           -1.336805867371    -1.241916970914     0.411114375768    12.000000000000
         C            0.732993132629     0.082665029086    -0.064121624232    12.000000000000
         H           -0.855825867371    -0.223738970914    -1.426835624232     1.007825032230
         H           -2.401728867371    -1.315680970914     0.188289375768     1.007825032230
         H           -0.837573867371    -2.173708970914     0.123306375768     1.007825032230
         H           -1.218991867371    -1.103923970914     1.492836375768     1.007825032230
         H           -1.086235867371     1.960963029086    -0.507452624232     1.007825032230
         H           -1.366002867371     1.369791029086     0.977846375768     1.007825032230
         H            2.368924132629    -0.835802970914    -0.273617624232     1.007825032230

  Basis Set: AUG-CC-PVTZ
    Blend: AUG-CC-PVTZ
  Basis Set: (AUG-CC-PVTZ AUX)
    Blend: AUG-CC-PVTZ-JKFIT
	 Reference Energy          =    -321.9928955357635232 [Eh]
	 Singles Energy            =      -0.0000000000000000 [Eh]
	 Same-Spin Energy          =      -0.3174261150946120 [Eh]
	 Opposite-Spin Energy      =      -1.0017151922399512 [Eh]
	 Correlation Energy        =      -1.3191413073345633 [Eh]
	 Total Energy              =    -323.3120368430980989 [Eh]

	 ================> DF-SCS-MP2 Energies <==================
	-----------------------------------------------------------
	 SCS Same-Spin Scale       =       0.3333333333333333 [-]
	 SCS Opposite-Spin Scale   =       1.2000000000000000 [-]
	 SCS Same-Spin Energy      =      -0.1058087050315373 [Eh]
	 SCS Opposite-Spin Energy  =      -1.2020582306879415 [Eh]
	 SCS Correlation Energy    =      -1.3078669357194788 [Eh]
	 SCS Total Energy          =    -323.3007624714829831 [Eh]
	-----------------------------------------------------------

  Dipole Moment: [D]
     X:     0.6557      Y:    -1.1542      Z:    -0.3151     Total:     1.3643

*** Psi4 exiting successfully. Buy a developer a beer!
