                               Psi4 1.3.2 release

  ==> Input File <==

--------------------------------------------------------------------------
#psi4
#
memory 32 gb

molecule  {
0 1
  O        1.4293010    -1.0173190    -0.5083850
  O        1.2616920     1.0439120     0.4876630
  N       -1.5094500     1.1665790    -0.0160500
  C       -0.7590880    -0.0423940    -0.3475120
  C       -1.3403730    -1.2419500     0.4105850
  C        0.7294260     0.0826320    -0.0646510
  H       -0.8593930    -0.2237720    -1.4273650
  H       -2.4052960    -1.3157140     0.1877600
  H       -0.8411410    -2.1737420     0.1227770
  H       -1.2225590    -1.1039570     1.4923070
  H       -1.0920532     1.9572270    -0.5157997
  H       -1.3736847     1.3621141     0.9794197
  H        2.3653570    -0.8358360    -0.2741470
units angstrom
no_reorient  #important for SAPT in psi4, default
symmetry c1  #important for SAPT in psi4, default
}

set PROPERTIES_ORIGIN ["COM"]
properties('MP2/aug-cc-pvtz', properties = ['dipole'])
--------------------------------------------------------------------------

    Molecular point group: c1
  Charge       = 0
  Multiplicity = 1
  Basis Set: AUG-CC-PVTZ
    Blend: AUG-CC-PVTZ
  Basis Set: (AUG-CC-PVTZ AUX)
    Blend: AUG-CC-PVTZ-JKFIT

    Orbital Energies [Eh]
    ---------------------

    Doubly Occupied:

       1A    -20.622923     2A    -20.560902     3A    -15.553256
       4A    -11.394854     5A    -11.285949     6A    -11.233036
       7A     -1.457557     8A     -1.359324     9A     -1.199144
      10A     -1.021992    11A     -0.907060    12A     -0.792114
      13A     -0.711093    14A     -0.702254    15A     -0.673146
      16A     -0.626567    17A     -0.608522    18A     -0.596417
      19A     -0.550937    20A     -0.529624    21A     -0.512837
      22A     -0.486491    23A     -0.461533    24A     -0.415799

  @DF-RHF Final Energy:  -321.99425007725984

   => Energetics <=

    Nuclear Repulsion Energy =            247.8167076364995296
    One-Electron Energy =                -931.0952520179669136
    Two-Electron Energy =                 361.2842943042074921
    Total Energy =                       -321.9942500772598351
  Basis Set: (AUG-CC-PVTZ AUX)
    Blend: AUG-CC-PVTZ-RI
    Molecular point group: c1

    Geometry (in Angstrom), charge = 0, multiplicity = 1:

       Center              X                  Y                   Z               Mass
    ------------   -----------------  -----------------  -----------------  -----------------
         O            1.429372949979    -1.017190527398    -0.508320324637    15.994914619570
         O            1.261763949979     1.044040472602     0.487727675363    15.994914619570
         N           -1.509378050021     1.166707472602    -0.015985324637    14.003074004430
         C           -0.759016050021    -0.042265527398    -0.347447324637    12.000000000000
         C           -1.340301050021    -1.241821527398     0.410649675363    12.000000000000
         C            0.729497949979     0.082760472602    -0.064586324637    12.000000000000
         H           -0.859321050021    -0.223643527398    -1.427300324637     1.007825032230
         H           -2.405224050021    -1.315585527398     0.187824675363     1.007825032230
         H           -0.841069050021    -2.173613527398     0.122841675363     1.007825032230
         H           -1.222487050021    -1.103828527398     1.492371675363     1.007825032230
         H           -1.091981250021     1.957355472602    -0.515735024637     1.007825032230
         H           -1.373612750021     1.362242572602     0.979484375363     1.007825032230
         H            2.365428949979    -0.835707527398    -0.274082324637     1.007825032230

  Basis Set: AUG-CC-PVTZ
    Blend: AUG-CC-PVTZ
  Basis Set: (AUG-CC-PVTZ AUX)
    Blend: AUG-CC-PVTZ-JKFIT
	 Reference Energy          =    -321.9942500772598351 [Eh]
	 Singles Energy            =      -0.0000000000000000 [Eh]
	 Same-Spin Energy          =      -0.3171621971048941 [Eh]
	 Opposite-Spin Energy      =      -1.0011500078501343 [Eh]
	 Correlation Energy        =      -1.3183122049550284 [Eh]
	 Total Energy              =    -323.3125622822148557 [Eh]

	 ================> DF-SCS-MP2 Energies <==================
	-----------------------------------------------------------
	 SCS Same-Spin Scale       =       0.3333333333333333 [-]
	 SCS Opposite-Spin Scale   =       1.2000000000000000 [-]
	 SCS Same-Spin Energy      =      -0.1057207323682980 [Eh]
	 SCS Opposite-Spin Energy  =      -1.2013800094201612 [Eh]
	 SCS Correlation Energy    =      -1.3071007417884593 [Eh]
	 SCS Total Energy          =    -323.3013508190483094 [Eh]
	-----------------------------------------------------------

  Dipole Moment: [D]
     X:     0.5860      Y:    -1.1486      Z:    -0.3206     Total:     1.3287

*** Psi4 exiting successfully. Buy a developer a beer!
