                               Psi4 1.4a3.dev225

  ==> Input File <==

--------------------------------------------------------------------------
#psi4
#
memory 32 gb

molecule  {
0 1
  O       -1.6162430     0.8314800    -0.3809140
  O       -1.1510000    -1.1772170     0.5605200
  N        1.5455560    -1.0219050    -0.2870820
  C        0.6545231     0.1494078    -0.4039421
  C        1.1923300     1.2755990     0.4679010
  C       -0.7726990    -0.1733030    -0.0203720
  H        0.6629820     0.4626600    -1.4478320
  H        2.2238070     1.4912930     0.1836440
  H        0.5830780     2.1739270     0.3501650
  H        1.1794500     0.9804810     1.5223570
  H        1.2015560    -1.7655910    -0.8946420
  H        1.4549450    -1.3946670     0.6589060
  H       -2.5041220     0.5561110    -0.0708870
units angstrom
no_reorient  #important for SAPT in psi4, default
symmetry c1  #important for SAPT in psi4, default
}

set PROPERTIES_ORIGIN ["COM"]
properties('MP2/aug-cc-pvtz', properties = ['dipole'])
--------------------------------------------------------------------------

    Molecular point group: c1
  Charge       = 0
  Multiplicity = 1
  Basis Set: AUG-CC-PVTZ
    Blend: AUG-CC-PVTZ
  Basis Set: (AUG-CC-PVTZ AUX)
    Blend: AUG-CC-PVTZ-JKFIT

    Orbital Energies [Eh]
    ---------------------

    Doubly Occupied:

       1A    -20.622030     2A    -20.559124     3A    -15.551447
       4A    -11.391437     5A    -11.283340     6A    -11.231681
       7A     -1.465924     8A     -1.363177     9A     -1.196085
      10A     -1.025372    11A     -0.909744    12A     -0.794464
      13A     -0.714115    14A     -0.706905    15A     -0.669489
      16A     -0.632681    17A     -0.608302    18A     -0.595624
      19A     -0.550963    20A     -0.528577    21A     -0.514809
      22A     -0.487807    23A     -0.462102    24A     -0.415645

  @DF-RHF Final Energy:  -321.99718509825925

   => Energetics <=

    Nuclear Repulsion Energy =            248.8547948660518330
    One-Electron Energy =                -933.1422708208804124
    Two-Electron Energy =                 362.2902908565692996
    Total Energy =                       -321.9971850982592514
  Basis Set: (AUG-CC-PVTZ AUX)
    Blend: AUG-CC-PVTZ-RI
    Molecular point group: c1

    Geometry (in Angstrom), charge = 0, multiplicity = 1:

       Center              X                  Y                   Z               Mass
    ------------   -----------------  -----------------  -----------------  -----------------
         O           -1.561326780636     0.857259335526    -0.377318924155    15.994914619570
         O           -1.096083780636    -1.151437664474     0.564115075845    15.994914619570
         N            1.600472219364    -0.996125664474    -0.283486924155    14.003074004430
         C            0.709439319364     0.175187135526    -0.400347024155    12.000000000000
         C            1.247246219364     1.301378335526     0.471496075845    12.000000000000
         C           -0.717782780636    -0.147523664474    -0.016776924155    12.000000000000
         H            0.717898219364     0.488439335526    -1.444236924155     1.007825032230
         H            2.278723219364     1.517072335526     0.187239075845     1.007825032230
         H            0.637994219364     2.199706335526     0.353760075845     1.007825032230
         H            1.234366219364     1.006260335526     1.525952075845     1.007825032230
         H            1.256472219364    -1.739811664474    -0.891046924155     1.007825032230
         H            1.509861219364    -1.368887664474     0.662501075845     1.007825032230
         H           -2.449205780636     0.581890335526    -0.067291924155     1.007825032230

  Basis Set: AUG-CC-PVTZ
    Blend: AUG-CC-PVTZ
  Basis Set: (AUG-CC-PVTZ AUX)
    Blend: AUG-CC-PVTZ-JKFIT
	 Reference Energy          =    -321.9971850982592514 [Eh]
	 Singles Energy            =      -0.0000000000000000 [Eh]
	 Same-Spin Energy          =      -0.3167600132355518 [Eh]
	 Opposite-Spin Energy      =      -0.9998863153512729 [Eh]
	 Correlation Energy        =      -1.3166463285868248 [Eh]
	 Total Energy              =    -323.3138314268460931 [Eh]

	 ================> DF-SCS-MP2 Energies <==================
	-----------------------------------------------------------
	 SCS Same-Spin Scale       =       0.3333333333333333 [-]
	 SCS Opposite-Spin Scale   =       1.2000000000000000 [-]
	 SCS Same-Spin Energy      =      -0.1055866710785173 [Eh]
	 SCS Opposite-Spin Energy  =      -1.1998635784215275 [Eh]
	 SCS Correlation Energy    =      -1.3054502495000446 [Eh]
	 SCS Total Energy          =    -323.3026353477592920 [Eh]
	-----------------------------------------------------------

  Dipole Moment: [D]
     X:    -0.8193      Y:     1.0861      Z:    -0.3436     Total:     1.4032

*** Psi4 exiting successfully. Buy a developer a beer!
