                               Psi4 1.3.2 release

  ==> Input File <==

--------------------------------------------------------------------------
#psi4
#
memory 32 gb

molecule  {
0 1
  O        1.3879666    -1.0362884    -0.5239532
  O        1.2616920     1.0439120     0.4876630
  N       -1.5094500     1.1665790    -0.0160500
  C       -0.7499485    -0.0897186    -0.3697119
  C       -1.3403730    -1.2419500     0.4105850
  C        0.7294260     0.0826320    -0.0646510
  H       -0.8593930    -0.2237720    -1.4273650
  H       -2.4052960    -1.3157140     0.1877600
  H       -0.8411410    -2.1737420     0.1227770
  H       -1.2225590    -1.1039570     1.4923070
  H       -1.0898030     1.9609300    -0.5079820
  H       -1.3695700     1.3697580     0.9773170
  H        2.3653570    -0.8358360    -0.2741470
units angstrom
no_reorient  #important for SAPT in psi4, default
symmetry c1  #important for SAPT in psi4, default
}

set PROPERTIES_ORIGIN ["COM"]
properties('MP2/aug-cc-pvtz', properties = ['dipole'])
--------------------------------------------------------------------------

    Molecular point group: c1
  Charge       = 0
  Multiplicity = 1
  Basis Set: AUG-CC-PVTZ
    Blend: AUG-CC-PVTZ
  Basis Set: (AUG-CC-PVTZ AUX)
    Blend: AUG-CC-PVTZ-JKFIT

    Orbital Energies [Eh]
    ---------------------

    Doubly Occupied:

       1A    -20.628738     2A    -20.565317     3A    -15.549741
       4A    -11.397051     5A    -11.283784     6A    -11.232083
       7A     -1.454560     8A     -1.360060     9A     -1.184672
      10A     -1.024852    11A     -0.906436    12A     -0.786105
      13A     -0.710259    14A     -0.700677    15A     -0.665732
      16A     -0.626280    17A     -0.605919    18A     -0.594825
      19A     -0.551863    20A     -0.524522    21A     -0.518963
      22A     -0.490168    23A     -0.461864    24A     -0.411965

  @DF-RHF Final Energy:  -321.98434114615674

   => Energetics <=

    Nuclear Repulsion Energy =            247.6092878958397137
    One-Electron Energy =                -930.7143849333332355
    Two-Electron Energy =                 361.1207558913368416
    Total Energy =                       -321.9843411461567371
  Basis Set: (AUG-CC-PVTZ AUX)
    Blend: AUG-CC-PVTZ-RI
    Molecular point group: c1

    Geometry (in Angstrom), charge = 0, multiplicity = 1:

       Center              X                  Y                   Z               Mass
    ------------   -----------------  -----------------  -----------------  -----------------
         O            1.394159445017    -1.026503601054    -0.518165173748    15.994914619570
         O            1.267884845017     1.053696798946     0.493451026252    15.994914619570
         N           -1.503257154983     1.176363798946    -0.010261973748    14.003074004430
         C           -0.743755654983    -0.079933801054    -0.363923873748    12.000000000000
         C           -1.334180154983    -1.232165201054     0.416373026252    12.000000000000
         C            0.735618845017     0.092416798946    -0.058862973748    12.000000000000
         H           -0.853200154983    -0.213987201054    -1.421576973748     1.007825032230
         H           -2.399103154983    -1.305929201054     0.193548026252     1.007825032230
         H           -0.834948154983    -2.163957201054     0.128565026252     1.007825032230
         H           -1.216366154983    -1.094172201054     1.498095026252     1.007825032230
         H           -1.083610154983     1.970714798946    -0.502193973748     1.007825032230
         H           -1.363377154983     1.379542798946     0.983105026252     1.007825032230
         H            2.371549845017    -0.826051201054    -0.268358973748     1.007825032230

  Basis Set: AUG-CC-PVTZ
    Blend: AUG-CC-PVTZ
  Basis Set: (AUG-CC-PVTZ AUX)
    Blend: AUG-CC-PVTZ-JKFIT
	 Reference Energy          =    -321.9843411461567371 [Eh]
	 Singles Energy            =      -0.0000000000000000 [Eh]
	 Same-Spin Energy          =      -0.3181726362693393 [Eh]
	 Opposite-Spin Energy      =      -1.0038029607547905 [Eh]
	 Correlation Energy        =      -1.3219755970241298 [Eh]
	 Total Energy              =    -323.3063167431808438 [Eh]

	 ================> DF-SCS-MP2 Energies <==================
	-----------------------------------------------------------
	 SCS Same-Spin Scale       =       0.3333333333333333 [-]
	 SCS Opposite-Spin Scale   =       1.2000000000000000 [-]
	 SCS Same-Spin Energy      =      -0.1060575454231131 [Eh]
	 SCS Opposite-Spin Energy  =      -1.2045635529057486 [Eh]
	 SCS Correlation Energy    =      -1.3106210983288618 [Eh]
	 SCS Total Energy          =    -323.2949622444855891 [Eh]
	-----------------------------------------------------------

  Dipole Moment: [D]
     X:     0.7794      Y:    -1.2458      Z:    -0.3195     Total:     1.5039

*** Psi4 exiting successfully. Buy a developer a beer!
