                               Psi4 1.3.2 release

  ==> Input File <==

--------------------------------------------------------------------------
#psi4
#
memory 32 gb

molecule  {
0 1
  O        1.4293010    -1.0173190    -0.5083850
  O        1.2616920     1.0439120     0.4876630
  N       -1.5094500     1.1665790    -0.0160500
  C       -0.7590880    -0.0423940    -0.3475120
  C       -1.3403730    -1.2419500     0.4105850
  C        0.7499742     0.0922342    -0.0566951
  H       -0.8593930    -0.2237720    -1.4273650
  H       -2.4052960    -1.3157140     0.1877600
  H       -0.8411410    -2.1737420     0.1227770
  H       -1.2225590    -1.1039570     1.4923070
  H       -1.0898030     1.9609300    -0.5079820
  H       -1.3695700     1.3697580     0.9773170
  H        2.3605949    -0.8208373    -0.2673642
units angstrom
no_reorient  #important for SAPT in psi4, default
symmetry c1  #important for SAPT in psi4, default
}

set PROPERTIES_ORIGIN ["COM"]
properties('MP2/aug-cc-pvtz', properties = ['dipole'])
--------------------------------------------------------------------------

    Molecular point group: c1
  Charge       = 0
  Multiplicity = 1
  Basis Set: AUG-CC-PVTZ
    Blend: AUG-CC-PVTZ
  Basis Set: (AUG-CC-PVTZ AUX)
    Blend: AUG-CC-PVTZ-JKFIT

    Orbital Energies [Eh]
    ---------------------

    Doubly Occupied:

       1A    -20.622955     2A    -20.563897     3A    -15.552261
       4A    -11.392637     5A    -11.285015     6A    -11.231427
       7A     -1.463030     8A     -1.370012     9A     -1.197203
      10A     -1.018268    11A     -0.901782    12A     -0.789752
      13A     -0.714090    14A     -0.702202    15A     -0.672285
      16A     -0.628607    17A     -0.610970    18A     -0.596538
      19A     -0.551944    20A     -0.528838    21A     -0.511006
      22A     -0.493122    23A     -0.463067    24A     -0.412665

  @DF-RHF Final Energy:  -321.99553203911495

   => Energetics <=

    Nuclear Repulsion Energy =            247.8569508577452325
    One-Electron Energy =                -931.1578205558629406
    Two-Electron Energy =                 361.3053376590027597
    Total Energy =                       -321.9955320391149485
  Basis Set: (AUG-CC-PVTZ AUX)
    Blend: AUG-CC-PVTZ-RI
    Molecular point group: c1

    Geometry (in Angstrom), charge = 0, multiplicity = 1:

       Center              X                  Y                   Z               Mass
    ------------   -----------------  -----------------  -----------------  -----------------
         O            1.426585749389    -1.018782687437    -0.509533903672    15.994914619570
         O            1.258976749389     1.042448312563     0.486514096328    15.994914619570
         N           -1.512165250611     1.165115312563    -0.017198903672    14.003074004430
         C           -0.761803250611    -0.043857687437    -0.348660903672    12.000000000000
         C           -1.343088250611    -1.243413687437     0.409436096328    12.000000000000
         C            0.747258949389     0.090770512563    -0.057844003672    12.000000000000
         H           -0.862108250611    -0.225235687437    -1.428513903672     1.007825032230
         H           -2.408011250611    -1.317177687437     0.186611096328     1.007825032230
         H           -0.843856250611    -2.175205687437     0.121628096328     1.007825032230
         H           -1.225274250611    -1.105420687437     1.491158096328     1.007825032230
         H           -1.092518250611     1.959466312563    -0.509130903672     1.007825032230
         H           -1.372285250611     1.368294312563     0.976168096328     1.007825032230
         H            2.357879649389    -0.822300987437    -0.268513103672     1.007825032230

  Basis Set: AUG-CC-PVTZ
    Blend: AUG-CC-PVTZ
  Basis Set: (AUG-CC-PVTZ AUX)
    Blend: AUG-CC-PVTZ-JKFIT
	 Reference Energy          =    -321.9955320391149485 [Eh]
	 Singles Energy            =      -0.0000000000000000 [Eh]
	 Same-Spin Energy          =      -0.3167383070094078 [Eh]
	 Opposite-Spin Energy      =      -1.0003319176796599 [Eh]
	 Correlation Energy        =      -1.3170702246890678 [Eh]
	 Total Energy              =    -323.3126022638040240 [Eh]

	 ================> DF-SCS-MP2 Energies <==================
	-----------------------------------------------------------
	 SCS Same-Spin Scale       =       0.3333333333333333 [-]
	 SCS Opposite-Spin Scale   =       1.2000000000000000 [-]
	 SCS Same-Spin Energy      =      -0.1055794356698026 [Eh]
	 SCS Opposite-Spin Energy  =      -1.2003983012155919 [Eh]
	 SCS Correlation Energy    =      -1.3059777368853944 [Eh]
	 SCS Total Energy          =    -323.3015097760003300 [Eh]
	-----------------------------------------------------------

  Dipole Moment: [D]
     X:     0.6866      Y:    -1.0564      Z:    -0.2692     Total:     1.2884

*** Psi4 exiting successfully. Buy a developer a beer!
