                               Psi4 1.3.2 release

  ==> Input File <==

--------------------------------------------------------------------------
#psi4
#
memory 32 gb

molecule  {
0 1
  O        1.4293010    -1.0173190    -0.5083850
  O        1.2616920     1.0439120     0.4876630
  N       -1.5094500     1.1665790    -0.0160500
  C       -0.7590880    -0.0423940    -0.3475120
  C       -1.3403730    -1.2419500     0.4105850
  C        0.6277869     0.2423719    -0.0002099
  H       -0.8593930    -0.2237720    -1.4273650
  H       -2.4052960    -1.3157140     0.1877600
  H       -0.8411410    -2.1737420     0.1227770
  H       -1.2225590    -1.1039570     1.4923070
  H       -1.0898030     1.9609300    -0.5079820
  H       -1.3695700     1.3697580     0.9773170
  H        2.3653570    -0.8358360    -0.2741470
units angstrom
no_reorient  #important for SAPT in psi4, default
symmetry c1  #important for SAPT in psi4, default
}

set PROPERTIES_ORIGIN ["COM"]
properties('MP2/aug-cc-pvtz', properties = ['dipole'])
--------------------------------------------------------------------------

    Molecular point group: c1
  Charge       = 0
  Multiplicity = 1
  Basis Set: AUG-CC-PVTZ
    Blend: AUG-CC-PVTZ
  Basis Set: (AUG-CC-PVTZ AUX)
    Blend: AUG-CC-PVTZ-JKFIT

    Orbital Energies [Eh]
    ---------------------

    Doubly Occupied:

       1A    -20.594781     2A    -20.560819     3A    -15.561420
       4A    -11.396080     5A    -11.294403     6A    -11.238923
       7A     -1.493854     8A     -1.311291     9A     -1.219051
      10A     -1.029202    11A     -0.915483    12A     -0.772765
      13A     -0.715742    14A     -0.703324    15A     -0.681664
      16A     -0.621910    17A     -0.611891    18A     -0.595845
      19A     -0.558696    20A     -0.535593    21A     -0.518772
      22A     -0.481792    23A     -0.464826    24A     -0.417479

  @DF-RHF Final Energy:  -321.96025702830491

   => Energetics <=

    Nuclear Repulsion Energy =            248.4278439173394020
    One-Electron Energy =                -932.1849901854313885
    Two-Electron Energy =                 361.7968892397871059
    Total Energy =                       -321.9602570283049090
  Basis Set: (AUG-CC-PVTZ AUX)
    Blend: AUG-CC-PVTZ-RI
    Molecular point group: c1

    Geometry (in Angstrom), charge = 0, multiplicity = 1:

       Center              X                  Y                   Z               Mass
    ------------   -----------------  -----------------  -----------------  -----------------
         O            1.442997723980    -1.038845381551    -0.517069041431    15.994914619570
         O            1.275388723980     1.022385618449     0.478978958569    15.994914619570
         N           -1.495753276020     1.145052618449    -0.024734041431    14.003074004430
         C           -0.745391276020    -0.063920381551    -0.356196041431    12.000000000000
         C           -1.326676276020    -1.263476381551     0.401900958569    12.000000000000
         C            0.641483623980     0.220845518449    -0.008893941431    12.000000000000
         H           -0.845696276020    -0.245298381551    -1.436049041431     1.007825032230
         H           -2.391599276020    -1.337240381551     0.179075958569     1.007825032230
         H           -0.827444276020    -2.195268381551     0.114092958569     1.007825032230
         H           -1.208862276020    -1.125483381551     1.483622958569     1.007825032230
         H           -1.076106276020     1.939403618449    -0.516666041431     1.007825032230
         H           -1.355873276020     1.348231618449     0.968632958569     1.007825032230
         H            2.379053723980    -0.857362381551    -0.282831041431     1.007825032230

  Basis Set: AUG-CC-PVTZ
    Blend: AUG-CC-PVTZ
  Basis Set: (AUG-CC-PVTZ AUX)
    Blend: AUG-CC-PVTZ-JKFIT
	 Reference Energy          =    -321.9602570283049090 [Eh]
	 Singles Energy            =      -0.0000000000000000 [Eh]
	 Same-Spin Energy          =      -0.3173873394960414 [Eh]
	 Opposite-Spin Energy      =      -1.0027790567397139 [Eh]
	 Correlation Energy        =      -1.3201663962357553 [Eh]
	 Total Energy              =    -323.2804234245406860 [Eh]

	 ================> DF-SCS-MP2 Energies <==================
	-----------------------------------------------------------
	 SCS Same-Spin Scale       =       0.3333333333333333 [-]
	 SCS Opposite-Spin Scale   =       1.2000000000000000 [-]
	 SCS Same-Spin Energy      =      -0.1057957798320138 [Eh]
	 SCS Opposite-Spin Energy  =      -1.2033348680876566 [Eh]
	 SCS Correlation Energy    =      -1.3091306479196703 [Eh]
	 SCS Total Energy          =    -323.2693876762245964 [Eh]
	-----------------------------------------------------------

  Dipole Moment: [D]
     X:    -0.2924      Y:     0.1890      Z:     0.2862     Total:     0.4507

*** Psi4 exiting successfully. Buy a developer a beer!
