                               Psi4 1.3.2 release

  ==> Input File <==

--------------------------------------------------------------------------
#psi4
#
memory 32 gb

molecule  {
0 1
  O        1.4293010    -1.0173190    -0.5083850
  O        1.2616920     1.0439120     0.4876630
  N       -1.5094500     1.1665790    -0.0160500
  C       -0.7590880    -0.0423940    -0.3475120
  C       -1.3403730    -1.2419500     0.4105850
  C        0.8273352     0.0908558    -0.0460454
  H       -0.8593930    -0.2237720    -1.4273650
  H       -2.4052960    -1.3157140     0.1877600
  H       -0.8411410    -2.1737420     0.1227770
  H       -1.2225590    -1.1039570     1.4923070
  H       -1.0898030     1.9609300    -0.5079820
  H       -1.3695700     1.3697580     0.9773170
  H        2.3653570    -0.8358360    -0.2741470
units angstrom
no_reorient  #important for SAPT in psi4, default
symmetry c1  #important for SAPT in psi4, default
}

set PROPERTIES_ORIGIN ["COM"]
properties('MP2/aug-cc-pvtz', properties = ['dipole'])
--------------------------------------------------------------------------

    Molecular point group: c1
  Charge       = 0
  Multiplicity = 1
  Basis Set: AUG-CC-PVTZ
    Blend: AUG-CC-PVTZ
  Basis Set: (AUG-CC-PVTZ AUX)
    Blend: AUG-CC-PVTZ-JKFIT

    Orbital Energies [Eh]
    ---------------------

    Doubly Occupied:

       1A    -20.631852     2A    -20.565375     3A    -15.548263
       4A    -11.387403     5A    -11.279700     6A    -11.225790
       7A     -1.483479     8A     -1.395292     9A     -1.188941
      10A     -1.007013    11A     -0.889284    12A     -0.792724
      13A     -0.725164    14A     -0.702203    15A     -0.671617
      16A     -0.639997    17A     -0.612768    18A     -0.592902
      19A     -0.553007    20A     -0.524987    21A     -0.509154
      22A     -0.500529    23A     -0.459866    24A     -0.398229

  @DF-RHF Final Energy:  -321.98934168614915

   => Energetics <=

    Nuclear Repulsion Energy =            247.8030619334194284
    One-Electron Energy =                -931.0137263227626363
    Two-Electron Energy =                 361.2213227031941187
    Total Energy =                       -321.9893416861491460
  Basis Set: (AUG-CC-PVTZ AUX)
    Blend: AUG-CC-PVTZ-RI
    Molecular point group: c1

    Geometry (in Angstrom), charge = 0, multiplicity = 1:

       Center              X                  Y                   Z               Mass
    ------------   -----------------  -----------------  -----------------  -----------------
         O            1.416106741068    -1.018427182769    -0.510892282986    15.994914619570
         O            1.248497741068     1.042803817231     0.485155717014    15.994914619570
         N           -1.522644258932     1.165470817231    -0.018557282986    14.003074004430
         C           -0.772282258932    -0.043502182769    -0.350019282986    12.000000000000
         C           -1.353567258932    -1.243058182769     0.408077717014    12.000000000000
         C            0.814140941068     0.089747617231    -0.048552682986    12.000000000000
         H           -0.872587258932    -0.224880182769    -1.429872282986     1.007825032230
         H           -2.418490258932    -1.316822182769     0.185252717014     1.007825032230
         H           -0.854335258932    -2.174850182769     0.120269717014     1.007825032230
         H           -1.235753258932    -1.105065182769     1.489799717014     1.007825032230
         H           -1.102997258932     1.959821817231    -0.510489282986     1.007825032230
         H           -1.382764258932     1.368649817231     0.974809717014     1.007825032230
         H            2.352162741068    -0.836944182769    -0.276654282986     1.007825032230

  Basis Set: AUG-CC-PVTZ
    Blend: AUG-CC-PVTZ
  Basis Set: (AUG-CC-PVTZ AUX)
    Blend: AUG-CC-PVTZ-JKFIT
	 Reference Energy          =    -321.9893416861491460 [Eh]
	 Singles Energy            =      -0.0000000000000000 [Eh]
	 Same-Spin Energy          =      -0.3159902123598444 [Eh]
	 Opposite-Spin Energy      =      -0.9986583649429291 [Eh]
	 Correlation Energy        =      -1.3146485773027736 [Eh]
	 Total Energy              =    -323.3039902634519080 [Eh]

	 ================> DF-SCS-MP2 Energies <==================
	-----------------------------------------------------------
	 SCS Same-Spin Scale       =       0.3333333333333333 [-]
	 SCS Opposite-Spin Scale   =       1.2000000000000000 [-]
	 SCS Same-Spin Energy      =      -0.1053300707866148 [Eh]
	 SCS Opposite-Spin Energy  =      -1.1983900379315149 [Eh]
	 SCS Correlation Energy    =      -1.3037201087181296 [Eh]
	 SCS Total Energy          =    -323.2930617948672989 [Eh]
	-----------------------------------------------------------

  Dipole Moment: [D]
     X:     1.1359      Y:    -1.0877      Z:    -0.2634     Total:     1.5946

*** Psi4 exiting successfully. Buy a developer a beer!
