                               Psi4 1.4a3.dev225

  ==> Input File <==

--------------------------------------------------------------------------
#psi4
#
memory 32 gb

molecule  {
0 1
  O       -1.6162430     0.8314800    -0.3809140
  O       -1.1510000    -1.1772170     0.5605200
  N        1.5455560    -1.0219050    -0.2870820
  C        0.6665940     0.1335400    -0.4023590
  C        1.1923300     1.2755990     0.4679010
  C       -0.7726990    -0.1733030    -0.0203720
  H        0.6629820     0.4626600    -1.4478320
  H        2.2238070     1.4912930     0.1836440
  H        0.5830780     2.1739270     0.3501650
  H        1.1794500     0.9804810     1.5223570
  H        1.2015560    -1.7655910    -0.8946420
  H        1.4549450    -1.3946670     0.6589060
  H       -2.4860008     0.5617311    -0.0772145
units angstrom
no_reorient  #important for SAPT in psi4, default
symmetry c1  #important for SAPT in psi4, default
}

set PROPERTIES_ORIGIN ["COM"]
properties('MP2/aug-cc-pvtz', properties = ['dipole'])
--------------------------------------------------------------------------

    Molecular point group: c1
  Charge       = 0
  Multiplicity = 1
  Basis Set: AUG-CC-PVTZ
    Blend: AUG-CC-PVTZ
  Basis Set: (AUG-CC-PVTZ AUX)
    Blend: AUG-CC-PVTZ-JKFIT

    Orbital Energies [Eh]
    ---------------------

    Doubly Occupied:

       1A    -20.620692     2A    -20.558671     3A    -15.552137
       4A    -11.391037     5A    -11.283728     6A    -11.231619
       7A     -1.468354     8A     -1.364636     9A     -1.201657
      10A     -1.023907    11A     -0.909202    12A     -0.797151
      13A     -0.715365    14A     -0.707248    15A     -0.672231
      16A     -0.633124    17A     -0.610359    18A     -0.596312
      19A     -0.550420    20A     -0.532553    21A     -0.511743
      22A     -0.487614    23A     -0.462416    24A     -0.415304

  @DF-RHF Final Energy:  -321.99875218503564

   => Energetics <=

    Nuclear Repulsion Energy =            248.9884440663502403
    One-Electron Energy =                -933.3794366007955432
    Two-Electron Energy =                 362.3922403494096898
    Total Energy =                       -321.9987521850356416
  Basis Set: (AUG-CC-PVTZ AUX)
    Blend: AUG-CC-PVTZ-RI
    Molecular point group: c1

    Geometry (in Angstrom), charge = 0, multiplicity = 1:

       Center              X                  Y                   Z               Mass
    ------------   -----------------  -----------------  -----------------  -----------------
         O           -1.563158538654     0.859334061400    -0.377460648087    15.994914619570
         O           -1.097915538654    -1.149362938600     0.563973351913    15.994914619570
         N            1.598640461346    -0.994050938600    -0.283628648087    14.003074004430
         C            0.719678461346     0.161394061400    -0.398905648087    12.000000000000
         C            1.245414461346     1.303453061400     0.471354351913    12.000000000000
         C           -0.719614538654    -0.145448938600    -0.016918648087    12.000000000000
         H            0.716066461346     0.490514061400    -1.444378648087     1.007825032230
         H            2.276891461346     1.519147061400     0.187097351913     1.007825032230
         H            0.636162461346     2.201781061400     0.353618351913     1.007825032230
         H            1.232534461346     1.008335061400     1.525810351913     1.007825032230
         H            1.254640461346    -1.737736938600    -0.891188648087     1.007825032230
         H            1.508029461346    -1.366812938600     0.662359351913     1.007825032230
         H           -2.432916338654     0.589585161400    -0.073761148087     1.007825032230

  Basis Set: AUG-CC-PVTZ
    Blend: AUG-CC-PVTZ
  Basis Set: (AUG-CC-PVTZ AUX)
    Blend: AUG-CC-PVTZ-JKFIT
	 Reference Energy          =    -321.9987521850356416 [Eh]
	 Singles Energy            =      -0.0000000000000000 [Eh]
	 Same-Spin Energy          =      -0.3164812754681696 [Eh]
	 Opposite-Spin Energy      =      -0.9990706721234343 [Eh]
	 Correlation Energy        =      -1.3155519475916038 [Eh]
	 Total Energy              =    -323.3143041326272282 [Eh]

	 ================> DF-SCS-MP2 Energies <==================
	-----------------------------------------------------------
	 SCS Same-Spin Scale       =       0.3333333333333333 [-]
	 SCS Opposite-Spin Scale   =       1.2000000000000000 [-]
	 SCS Same-Spin Energy      =      -0.1054937584893899 [Eh]
	 SCS Opposite-Spin Energy  =      -1.1988848065481210 [Eh]
	 SCS Correlation Energy    =      -1.3043785650375108 [Eh]
	 SCS Total Energy          =    -323.3031307500731373 [Eh]
	-----------------------------------------------------------

  Dipole Moment: [D]
     X:    -0.7622      Y:     1.0516      Z:    -0.3539     Total:     1.3461

*** Psi4 exiting successfully. Buy a developer a beer!
