                               Psi4 1.4a3.dev225

  ==> Input File <==

--------------------------------------------------------------------------
#psi4
#
memory 32 gb

molecule  {
0 1
  O       -1.6162430     0.8314800    -0.3809140
  O       -1.1510000    -1.1772170     0.5605200
  N        1.5455560    -1.0219050    -0.2870820
  C        0.6665940     0.1335400    -0.4023590
  C        1.1923300     1.2755990     0.4679010
  C       -0.7537660    -0.1692667    -0.0253968
  H        0.6629820     0.4626600    -1.4478320
  H        2.2238070     1.4912930     0.1836440
  H        0.5830780     2.1739270     0.3501650
  H        1.1794500     0.9804810     1.5223570
  H        1.2015560    -1.7655910    -0.8946420
  H        1.4549450    -1.3946670     0.6589060
  H       -2.5041220     0.5561110    -0.0708870
units angstrom
no_reorient  #important for SAPT in psi4, default
symmetry c1  #important for SAPT in psi4, default
}

set PROPERTIES_ORIGIN ["COM"]
properties('MP2/aug-cc-pvtz', properties = ['dipole'])
--------------------------------------------------------------------------

    Molecular point group: c1
  Charge       = 0
  Multiplicity = 1
  Basis Set: AUG-CC-PVTZ
    Blend: AUG-CC-PVTZ
  Basis Set: (AUG-CC-PVTZ AUX)
    Blend: AUG-CC-PVTZ-JKFIT

    Orbital Energies [Eh]
    ---------------------

    Doubly Occupied:

       1A    -20.620267     2A    -20.557554     3A    -15.553107
       4A    -11.392591     5A    -11.284509     6A    -11.233029
       7A     -1.460023     8A     -1.355381     9A     -1.203767
      10A     -1.026864    11A     -0.911321    12A     -0.794253
      13A     -0.714020    14A     -0.704490    15A     -0.672268
      16A     -0.629887    17A     -0.608171    18A     -0.595998
      19A     -0.549965    20A     -0.533435    21A     -0.512842
      22A     -0.483361    23A     -0.461685    24A     -0.417974

  @DF-RHF Final Energy:  -321.99581583515675

   => Energetics <=

    Nuclear Repulsion Energy =            248.8691852583876027
    One-Electron Energy =                -933.1764759913255602
    Two-Electron Energy =                 362.3114748977812383
    Total Energy =                       -321.9958158351567477
  Basis Set: (AUG-CC-PVTZ AUX)
    Blend: AUG-CC-PVTZ-RI
    Molecular point group: c1

    Geometry (in Angstrom), charge = 0, multiplicity = 1:

       Center              X                  Y                   Z               Mass
    ------------   -----------------  -----------------  -----------------  -----------------
         O           -1.565504843517     0.858853739810    -0.376855123182    15.994914619570
         O           -1.100261843517    -1.149843260190     0.564578876818    15.994914619570
         N            1.596294156483    -0.994531260190    -0.283023123182    14.003074004430
         C            0.717332156483     0.160913739810    -0.398300123182    12.000000000000
         C            1.243068156483     1.302972739810     0.471959876818    12.000000000000
         C           -0.703027843517    -0.141892960190    -0.021337923182    12.000000000000
         H            0.713720156483     0.490033739810    -1.443773123182     1.007825032230
         H            2.274545156483     1.518666739810     0.187702876818     1.007825032230
         H            0.633816156483     2.201300739810     0.354223876818     1.007825032230
         H            1.230188156483     1.007854739810     1.526415876818     1.007825032230
         H            1.252294156483    -1.738217260190    -0.890583123182     1.007825032230
         H            1.505683156483    -1.367293260190     0.662964876818     1.007825032230
         H           -2.453383843517     0.583484739810    -0.066828123182     1.007825032230

  Basis Set: AUG-CC-PVTZ
    Blend: AUG-CC-PVTZ
  Basis Set: (AUG-CC-PVTZ AUX)
    Blend: AUG-CC-PVTZ-JKFIT
	 Reference Energy          =    -321.9958158351567477 [Eh]
	 Singles Energy            =      -0.0000000000000000 [Eh]
	 Same-Spin Energy          =      -0.3171269680489247 [Eh]
	 Opposite-Spin Energy      =      -1.0004549544811787 [Eh]
	 Correlation Energy        =      -1.3175819225301033 [Eh]
	 Total Energy              =    -323.3133977576868574 [Eh]

	 ================> DF-SCS-MP2 Energies <==================
	-----------------------------------------------------------
	 SCS Same-Spin Scale       =       0.3333333333333333 [-]
	 SCS Opposite-Spin Scale   =       1.2000000000000000 [-]
	 SCS Same-Spin Energy      =      -0.1057089893496415 [Eh]
	 SCS Opposite-Spin Energy  =      -1.2005459453774143 [Eh]
	 SCS Correlation Energy    =      -1.3062549347270558 [Eh]
	 SCS Total Energy          =    -323.3020707698838123 [Eh]
	-----------------------------------------------------------

  Dipole Moment: [D]
     X:    -0.6810      Y:     1.0704      Z:    -0.3637     Total:     1.3198

*** Psi4 exiting successfully. Buy a developer a beer!
