                               Psi4 1.3.2 release

  ==> Input File <==

--------------------------------------------------------------------------
#psi4
#
memory 32 gb

molecule  {
0 1
  O        1.4293010    -1.0173190    -0.5083850
  O        1.2616920     1.0439120     0.4876630
  N       -1.5094500     1.1665790    -0.0160500
  C       -0.7590880    -0.0423940    -0.3475120
  C       -1.2916455    -1.2518444     0.4304020
  C        0.7261037     0.0399585    -0.0332835
  H       -0.8593930    -0.2237720    -1.4273650
  H       -2.4052960    -1.3157140     0.1877600
  H       -0.8411410    -2.1737420     0.1227770
  H       -1.2225590    -1.1039570     1.4923070
  H       -1.0898030     1.9609300    -0.5079820
  H       -1.3695700     1.3697580     0.9773170
  H        2.3653570    -0.8358360    -0.2741470
units angstrom
no_reorient  #important for SAPT in psi4, default
symmetry c1  #important for SAPT in psi4, default
}

set PROPERTIES_ORIGIN ["COM"]
properties('MP2/aug-cc-pvtz', properties = ['dipole'])
--------------------------------------------------------------------------

    Molecular point group: c1
  Charge       = 0
  Multiplicity = 1
  Basis Set: AUG-CC-PVTZ
    Blend: AUG-CC-PVTZ
  Basis Set: (AUG-CC-PVTZ AUX)
    Blend: AUG-CC-PVTZ-JKFIT

    Orbital Energies [Eh]
    ---------------------

    Doubly Occupied:

       1A    -20.628949     2A    -20.555513     3A    -15.554195
       4A    -11.395350     5A    -11.286874     6A    -11.233254
       7A     -1.463048     8A     -1.349279     9A     -1.198596
      10A     -1.025948    11A     -0.906469    12A     -0.799146
      13A     -0.712077    14A     -0.703775    15A     -0.672278
      16A     -0.629596    17A     -0.608005    18A     -0.598488
      19A     -0.539024    20A     -0.532773    21A     -0.518066
      22A     -0.479281    23A     -0.455399    24A     -0.416287

  @DF-RHF Final Energy:  -321.98743950447215

   => Energetics <=

    Nuclear Repulsion Energy =            248.0219464856100728
    One-Electron Energy =                -931.4954327232546802
    Two-Electron Energy =                 361.4860467331724294
    Total Energy =                       -321.9874395044721496
  Basis Set: (AUG-CC-PVTZ AUX)
    Blend: AUG-CC-PVTZ-RI
    Molecular point group: c1

    Geometry (in Angstrom), charge = 0, multiplicity = 1:

       Center              X                  Y                   Z               Mass
    ------------   -----------------  -----------------  -----------------  -----------------
         O            1.423182141695    -1.010234937755    -0.515282591714    15.994914619570
         O            1.255573141695     1.050996062245     0.480765408286    15.994914619570
         N           -1.515568858305     1.173663062245    -0.022947591714    14.003074004430
         C           -0.765206858305    -0.035309937755    -0.354409591714    12.000000000000
         C           -1.297764358305    -1.244760337755     0.423504408286    12.000000000000
         C            0.719984841695     0.047042562245    -0.040181091714    12.000000000000
         H           -0.865511858305    -0.216687937755    -1.434262591714     1.007825032230
         H           -2.411414858305    -1.308629937755     0.180862408286     1.007825032230
         H           -0.847259858305    -2.166657937755     0.115879408286     1.007825032230
         H           -1.228677858305    -1.096872937755     1.485409408286     1.007825032230
         H           -1.095921858305     1.968014062245    -0.514879591714     1.007825032230
         H           -1.375688858305     1.376842062245     0.970419408286     1.007825032230
         H            2.359238141695    -0.828751937755    -0.281044591714     1.007825032230

  Basis Set: AUG-CC-PVTZ
    Blend: AUG-CC-PVTZ
  Basis Set: (AUG-CC-PVTZ AUX)
    Blend: AUG-CC-PVTZ-JKFIT
	 Reference Energy          =    -321.9874395044721496 [Eh]
	 Singles Energy            =      -0.0000000000000000 [Eh]
	 Same-Spin Energy          =      -0.3177256277893594 [Eh]
	 Opposite-Spin Energy      =      -1.0020511941663484 [Eh]
	 Correlation Energy        =      -1.3197768219557078 [Eh]
	 Total Energy              =    -323.3072163264278629 [Eh]

	 ================> DF-SCS-MP2 Energies <==================
	-----------------------------------------------------------
	 SCS Same-Spin Scale       =       0.3333333333333333 [-]
	 SCS Opposite-Spin Scale   =       1.2000000000000000 [-]
	 SCS Same-Spin Energy      =      -0.1059085425964531 [Eh]
	 SCS Opposite-Spin Energy  =      -1.2024614329996179 [Eh]
	 SCS Correlation Energy    =      -1.3083699755960712 [Eh]
	 SCS Total Energy          =    -323.2958094800682147 [Eh]
	-----------------------------------------------------------

  Dipole Moment: [D]
     X:     0.6279      Y:    -1.3125      Z:    -0.3581     Total:     1.4984

*** Psi4 exiting successfully. Buy a developer a beer!
