                               Psi4 1.3.2 release

  ==> Input File <==

--------------------------------------------------------------------------
#psi4
#
memory 32 gb

molecule  {
0 1
  O        1.4293010    -1.0173190    -0.5083850
  O        1.2616920     1.0439120     0.4876630
  N       -1.5094500     1.1665790    -0.0160500
  C       -0.7590880    -0.0423940    -0.3475120
  C       -1.3403730    -1.2419500     0.4105850
  C        0.7294260     0.0826320    -0.0646510
  H       -0.8776375    -0.2567629    -1.6237797
  H       -2.4052960    -1.3157140     0.1877600
  H       -0.8411410    -2.1737420     0.1227770
  H       -1.2225590    -1.1039570     1.4923070
  H       -1.0898030     1.9609300    -0.5079820
  H       -1.3695700     1.3697580     0.9773170
  H        2.3653570    -0.8358360    -0.2741470
units angstrom
no_reorient  #important for SAPT in psi4, default
symmetry c1  #important for SAPT in psi4, default
}

set PROPERTIES_ORIGIN ["COM"]
properties('MP2/aug-cc-pvtz', properties = ['dipole'])
--------------------------------------------------------------------------

    Molecular point group: c1
  Charge       = 0
  Multiplicity = 1
  Basis Set: AUG-CC-PVTZ
    Blend: AUG-CC-PVTZ
  Basis Set: (AUG-CC-PVTZ AUX)
    Blend: AUG-CC-PVTZ-JKFIT

    Orbital Energies [Eh]
    ---------------------

    Doubly Occupied:

       1A    -20.622660     2A    -20.562310     3A    -15.555890
       4A    -11.397115     5A    -11.307921     6A    -11.234884
       7A     -1.457819     8A     -1.360160     9A     -1.198796
      10A     -1.019762    11A     -0.905251    12A     -0.781605
      13A     -0.710090    14A     -0.693479    15A     -0.672513
      16A     -0.626695    17A     -0.608939    18A     -0.591869
      19A     -0.552103    20A     -0.531234    21A     -0.496057
      22A     -0.482939    23A     -0.461559    24A     -0.415862

  @DF-RHF Final Energy:  -321.97369967302768

   => Energetics <=

    Nuclear Repulsion Energy =            246.8891027152324966
    One-Electron Energy =                -929.2305784705705491
    Two-Electron Energy =                 360.3677760823103426
    Total Energy =                       -321.9736996730276815
  Basis Set: (AUG-CC-PVTZ AUX)
    Blend: AUG-CC-PVTZ-RI
    Molecular point group: c1

    Geometry (in Angstrom), charge = 0, multiplicity = 1:

       Center              X                  Y                   Z               Mass
    ------------   -----------------  -----------------  -----------------  -----------------
         O            1.429507401078    -1.016945564639    -0.506162020967    15.994914619570
         O            1.261898401078     1.044285435361     0.489885979033    15.994914619570
         N           -1.509243598922     1.166952435361    -0.013827020967    14.003074004430
         C           -0.758881598922    -0.042020564639    -0.345289020967    12.000000000000
         C           -1.340166598922    -1.241576564639     0.412807979033    12.000000000000
         C            0.729632401078     0.083005435361    -0.062428020967    12.000000000000
         H           -0.877431098922    -0.256389464639    -1.621556720967     1.007825032230
         H           -2.405089598922    -1.315340564639     0.189982979033     1.007825032230
         H           -0.840934598922    -2.173368564639     0.124999979033     1.007825032230
         H           -1.222352598922    -1.103583564639     1.494529979033     1.007825032230
         H           -1.089596598922     1.961303435361    -0.505759020967     1.007825032230
         H           -1.369363598922     1.370131435361     0.979539979033     1.007825032230
         H            2.365563401078    -0.835462564639    -0.271924020967     1.007825032230

  Basis Set: AUG-CC-PVTZ
    Blend: AUG-CC-PVTZ
  Basis Set: (AUG-CC-PVTZ AUX)
    Blend: AUG-CC-PVTZ-JKFIT
	 Reference Energy          =    -321.9736996730276815 [Eh]
	 Singles Energy            =      -0.0000000000000000 [Eh]
	 Same-Spin Energy          =      -0.3174347512661975 [Eh]
	 Opposite-Spin Energy      =      -1.0029144322719088 [Eh]
	 Correlation Energy        =      -1.3203491835381063 [Eh]
	 Total Energy              =    -323.2940488565657802 [Eh]

	 ================> DF-SCS-MP2 Energies <==================
	-----------------------------------------------------------
	 SCS Same-Spin Scale       =       0.3333333333333333 [-]
	 SCS Opposite-Spin Scale   =       1.2000000000000000 [-]
	 SCS Same-Spin Energy      =      -0.1058115837553992 [Eh]
	 SCS Opposite-Spin Energy  =      -1.2034973187262905 [Eh]
	 SCS Correlation Energy    =      -1.3093089024816897 [Eh]
	 SCS Total Energy          =    -323.2830085755093705 [Eh]
	-----------------------------------------------------------

  Dipole Moment: [D]
     X:     0.5764      Y:    -1.1178      Z:    -0.2151     Total:     1.2760

*** Psi4 exiting successfully. Buy a developer a beer!
