                               Psi4 1.3.2 release

  ==> Input File <==

--------------------------------------------------------------------------
#psi4
#
memory 32 gb

molecule  {
0 1
  O        1.4293010    -1.0173190    -0.5083850
  O        1.2616920     1.0439120     0.4876630
  N       -1.5094500     1.1665790    -0.0160500
  C       -0.7590880    -0.0423940    -0.3475120
  C       -1.3403730    -1.2419500     0.4105850
  C        0.7294260     0.0826320    -0.0646510
  H       -0.8593930    -0.2237720    -1.4273650
  H       -2.4052960    -1.3157140     0.1877600
  H       -0.8411410    -2.1737420     0.1227770
  H       -1.2225590    -1.1039570     1.4923070
  H       -1.0853986     1.9681542    -0.4922347
  H       -1.3613729     1.3849988     0.9728848
  H        2.3653570    -0.8358360    -0.2741470
units angstrom
no_reorient  #important for SAPT in psi4, default
symmetry c1  #important for SAPT in psi4, default
}

set PROPERTIES_ORIGIN ["COM"]
properties('MP2/aug-cc-pvtz', properties = ['dipole'])
--------------------------------------------------------------------------

    Molecular point group: c1
  Charge       = 0
  Multiplicity = 1
  Basis Set: AUG-CC-PVTZ
    Blend: AUG-CC-PVTZ
  Basis Set: (AUG-CC-PVTZ AUX)
    Blend: AUG-CC-PVTZ-JKFIT

    Orbital Energies [Eh]
    ---------------------

    Doubly Occupied:

       1A    -20.623149     2A    -20.561234     3A    -15.553385
       4A    -11.395236     5A    -11.286395     6A    -11.233053
       7A     -1.457820     8A     -1.359647     9A     -1.199386
      10A     -1.022738    11A     -0.907163    12A     -0.793006
      13A     -0.711207    14A     -0.702322    15A     -0.671099
      16A     -0.626003    17A     -0.609238    18A     -0.595980
      19A     -0.551118    20A     -0.530067    21A     -0.512138
      22A     -0.486798    23A     -0.461953    24A     -0.417240

  @DF-RHF Final Energy:  -321.99417975939883

   => Energetics <=

    Nuclear Repulsion Energy =            247.8054458686686417
    One-Electron Energy =                -931.0645009449192457
    Two-Electron Energy =                 361.2648753168518283
    Total Energy =                       -321.9941797593988326
  Basis Set: (AUG-CC-PVTZ AUX)
    Blend: AUG-CC-PVTZ-RI
    Molecular point group: c1

    Geometry (in Angstrom), charge = 0, multiplicity = 1:

       Center              X                  Y                   Z               Mass
    ------------   -----------------  -----------------  -----------------  -----------------
         O            1.429158291798    -1.017573204182    -0.508513068136    15.994914619570
         O            1.261549291798     1.043657795818     0.487534931864    15.994914619570
         N           -1.509592708202     1.166324795818    -0.016178068136    14.003074004430
         C           -0.759230708202    -0.042648204182    -0.347640068136    12.000000000000
         C           -1.340515708202    -1.242204204182     0.410456931864    12.000000000000
         C            0.729283291798     0.082377795818    -0.064779068136    12.000000000000
         H           -0.859535708202    -0.224026204182    -1.427493068136     1.007825032230
         H           -2.405438708202    -1.315968204182     0.187631931864     1.007825032230
         H           -0.841283708202    -2.173996204182     0.122648931864     1.007825032230
         H           -1.222701708202    -1.104211204182     1.492178931864     1.007825032230
         H           -1.085541308202     1.967899995818    -0.492362768136     1.007825032230
         H           -1.361515608202     1.384744595818     0.972756731864     1.007825032230
         H            2.365214291798    -0.836090204182    -0.274275068136     1.007825032230

  Basis Set: AUG-CC-PVTZ
    Blend: AUG-CC-PVTZ
  Basis Set: (AUG-CC-PVTZ AUX)
    Blend: AUG-CC-PVTZ-JKFIT
	 Reference Energy          =    -321.9941797593988326 [Eh]
	 Singles Energy            =      -0.0000000000000000 [Eh]
	 Same-Spin Energy          =      -0.3171650183590898 [Eh]
	 Opposite-Spin Energy      =      -1.0011652070522128 [Eh]
	 Correlation Energy        =      -1.3183302254113025 [Eh]
	 Total Energy              =    -323.3125099848101627 [Eh]

	 ================> DF-SCS-MP2 Energies <==================
	-----------------------------------------------------------
	 SCS Same-Spin Scale       =       0.3333333333333333 [-]
	 SCS Opposite-Spin Scale   =       1.2000000000000000 [-]
	 SCS Same-Spin Energy      =      -0.1057216727863633 [Eh]
	 SCS Opposite-Spin Energy  =      -1.2013982484626553 [Eh]
	 SCS Correlation Energy    =      -1.3071199212490185 [Eh]
	 SCS Total Energy          =    -323.3012996806478441 [Eh]
	-----------------------------------------------------------

  Dipole Moment: [D]
     X:     0.6170      Y:    -1.1381      Z:    -0.3071     Total:     1.3305

*** Psi4 exiting successfully. Buy a developer a beer!
