                               Psi4 1.4a3.dev225

  ==> Input File <==

--------------------------------------------------------------------------
#psi4
#
memory 32 gb

molecule  {
0 1
  O       -1.6162430     0.8314800    -0.3809140
  O       -1.1510000    -1.1772170     0.5605200
  N        1.5455560    -1.0219050    -0.2870820
  C        0.6665940     0.1335400    -0.4023590
  C        1.1923300     1.2755990     0.4679010
  C       -0.7664973    -0.1568453    -0.0298949
  H        0.6629820     0.4626600    -1.4478320
  H        2.2238070     1.4912930     0.1836440
  H        0.5830780     2.1739270     0.3501650
  H        1.1794500     0.9804810     1.5223570
  H        1.2015560    -1.7655910    -0.8946420
  H        1.4549450    -1.3946670     0.6589060
  H       -2.5041220     0.5561110    -0.0708870
units angstrom
no_reorient  #important for SAPT in psi4, default
symmetry c1  #important for SAPT in psi4, default
}

set PROPERTIES_ORIGIN ["COM"]
properties('MP2/aug-cc-pvtz', properties = ['dipole'])
--------------------------------------------------------------------------

    Molecular point group: c1
  Charge       = 0
  Multiplicity = 1
  Basis Set: AUG-CC-PVTZ
    Blend: AUG-CC-PVTZ
  Basis Set: (AUG-CC-PVTZ AUX)
    Blend: AUG-CC-PVTZ-JKFIT

    Orbital Energies [Eh]
    ---------------------

    Doubly Occupied:

       1A    -20.625357     2A    -20.554664     3A    -15.552503
       4A    -11.392496     5A    -11.284133     6A    -11.232421
       7A     -1.466358     8A     -1.352939     9A     -1.202081
      10A     -1.025923    11A     -0.911253    12A     -0.798458
      13A     -0.713448    14A     -0.706690    15A     -0.671996
      16A     -0.633269    17A     -0.608039    18A     -0.594493
      19A     -0.549150    20A     -0.532884    21A     -0.512524
      22A     -0.480600    23A     -0.459623    24A     -0.417107

  @DF-RHF Final Energy:  -321.99565042019526

   => Energetics <=

    Nuclear Repulsion Energy =            248.8382426229304940
    One-Electron Energy =                -933.1109638502565531
    Two-Electron Energy =                 362.2770708071308263
    Total Energy =                       -321.9956504201952612
  Basis Set: (AUG-CC-PVTZ AUX)
    Blend: AUG-CC-PVTZ-RI
    Molecular point group: c1

    Geometry (in Angstrom), charge = 0, multiplicity = 1:

       Center              X                  Y                   Z               Mass
    ------------   -----------------  -----------------  -----------------  -----------------
         O           -1.563789182843     0.857179841034    -0.376248962516    15.994914619570
         O           -1.098546182843    -1.151517158966     0.565185037484    15.994914619570
         N            1.598009817157    -0.996205158966    -0.282416962516    14.003074004430
         C            0.719047817157     0.159239841034    -0.397693962516    12.000000000000
         C            1.244783817157     1.301298841034     0.472566037484    12.000000000000
         C           -0.714043482843    -0.131145458966    -0.025229862516    12.000000000000
         H            0.715435817157     0.488359841034    -1.443166962516     1.007825032230
         H            2.276260817157     1.516992841034     0.188309037484     1.007825032230
         H            0.635531817157     2.199626841034     0.354830037484     1.007825032230
         H            1.231903817157     1.006180841034     1.527022037484     1.007825032230
         H            1.254009817157    -1.739891158966    -0.889976962516     1.007825032230
         H            1.507398817157    -1.368967158966     0.663571037484     1.007825032230
         H           -2.451668182843     0.581810841034    -0.066221962516     1.007825032230

  Basis Set: AUG-CC-PVTZ
    Blend: AUG-CC-PVTZ
  Basis Set: (AUG-CC-PVTZ AUX)
    Blend: AUG-CC-PVTZ-JKFIT
	 Reference Energy          =    -321.9956504201952612 [Eh]
	 Singles Energy            =      -0.0000000000000000 [Eh]
	 Same-Spin Energy          =      -0.3171511914491149 [Eh]
	 Opposite-Spin Energy      =      -1.0003673490095149 [Eh]
	 Correlation Energy        =      -1.3175185404586296 [Eh]
	 Total Energy              =    -323.3131689606539112 [Eh]

	 ================> DF-SCS-MP2 Energies <==================
	-----------------------------------------------------------
	 SCS Same-Spin Scale       =       0.3333333333333333 [-]
	 SCS Opposite-Spin Scale   =       1.2000000000000000 [-]
	 SCS Same-Spin Energy      =      -0.1057170638163716 [Eh]
	 SCS Opposite-Spin Energy  =      -1.2004408188114177 [Eh]
	 SCS Correlation Energy    =      -1.3061578826277893 [Eh]
	 SCS Total Energy          =    -323.3018083028230762 [Eh]
	-----------------------------------------------------------

  Dipole Moment: [D]
     X:    -0.7716      Y:     1.1692      Z:    -0.4067     Total:     1.4587

*** Psi4 exiting successfully. Buy a developer a beer!
