                               Psi4 1.3.2 release

  ==> Input File <==

--------------------------------------------------------------------------
#psi4
#
memory 32 gb

molecule  {
0 1
  O        1.4293010    -1.0173190    -0.5083850
  O        1.2035677     1.0711902     0.4924481
  N       -1.5094500     1.1665790    -0.0160500
  C       -0.7693476     0.0290153    -0.3138874
  C       -1.3403730    -1.2419500     0.4105850
  C        0.7294260     0.0826320    -0.0646510
  H       -0.8593930    -0.2237720    -1.4273650
  H       -2.4052960    -1.3157140     0.1877600
  H       -0.8411410    -2.1737420     0.1227770
  H       -1.2225590    -1.1039570     1.4923070
  H       -1.0898030     1.9609300    -0.5079820
  H       -1.3695700     1.3697580     0.9773170
  H        2.3653570    -0.8358360    -0.2741470
units angstrom
no_reorient  #important for SAPT in psi4, default
symmetry c1  #important for SAPT in psi4, default
}

set PROPERTIES_ORIGIN ["COM"]
properties('MP2/aug-cc-pvtz', properties = ['dipole'])
--------------------------------------------------------------------------

    Molecular point group: c1
  Charge       = 0
  Multiplicity = 1
  Basis Set: AUG-CC-PVTZ
    Blend: AUG-CC-PVTZ
  Basis Set: (AUG-CC-PVTZ AUX)
    Blend: AUG-CC-PVTZ-JKFIT

    Orbital Energies [Eh]
    ---------------------

    Doubly Occupied:

       1A    -20.628591     2A    -20.558761     3A    -15.553631
       4A    -11.393090     5A    -11.284555     6A    -11.231664
       7A     -1.457269     8A     -1.363342     9A     -1.219647
      10A     -1.012979    11A     -0.902253    12A     -0.791878
      13A     -0.712097    14A     -0.704724    15A     -0.681918
      16A     -0.627247    17A     -0.614030    18A     -0.593305
      19A     -0.549807    20A     -0.539065    21A     -0.498512
      22A     -0.477906    23A     -0.461785    24A     -0.413691

  @DF-RHF Final Energy:  -321.98535731516506

   => Energetics <=

    Nuclear Repulsion Energy =            248.4857823656596452
    One-Electron Energy =                -932.3987808978562271
    Two-Electron Energy =                 361.9276412170314643
    Total Energy =                       -321.9853573151650608
  Basis Set: (AUG-CC-PVTZ AUX)
    Blend: AUG-CC-PVTZ-RI
    Molecular point group: c1

    Geometry (in Angstrom), charge = 0, multiplicity = 1:

       Center              X                  Y                   Z               Mass
    ------------   -----------------  -----------------  -----------------  -----------------
         O            1.441123887547    -1.031841777069    -0.513775741267    15.994914619570
         O            1.215390587547     1.056667422931     0.487057358733    15.994914619570
         N           -1.497627112453     1.152056222931    -0.021440741267    14.003074004430
         C           -0.757524712453     0.014492522931    -0.319278141267    12.000000000000
         C           -1.328550112453    -1.256472777069     0.405194258733    12.000000000000
         C            0.741248887547     0.068109222931    -0.070041741267    12.000000000000
         H           -0.847570112453    -0.238294777069    -1.432755741267     1.007825032230
         H           -2.393473112453    -1.330236777069     0.182369258733     1.007825032230
         H           -0.829318112453    -2.188264777069     0.117386258733     1.007825032230
         H           -1.210736112453    -1.118479777069     1.486916258733     1.007825032230
         H           -1.077980112453     1.946407222931    -0.513372741267     1.007825032230
         H           -1.357747112453     1.355235222931     0.971926258733     1.007825032230
         H            2.377179887547    -0.850358777069    -0.279537741267     1.007825032230

  Basis Set: AUG-CC-PVTZ
    Blend: AUG-CC-PVTZ
  Basis Set: (AUG-CC-PVTZ AUX)
    Blend: AUG-CC-PVTZ-JKFIT
	 Reference Energy          =    -321.9853573151650608 [Eh]
	 Singles Energy            =      -0.0000000000000000 [Eh]
	 Same-Spin Energy          =      -0.3177816225234616 [Eh]
	 Opposite-Spin Energy      =      -1.0016254073410678 [Eh]
	 Correlation Energy        =      -1.3194070298645295 [Eh]
	 Total Energy              =    -323.3047643450295823 [Eh]

	 ================> DF-SCS-MP2 Energies <==================
	-----------------------------------------------------------
	 SCS Same-Spin Scale       =       0.3333333333333333 [-]
	 SCS Opposite-Spin Scale   =       1.2000000000000000 [-]
	 SCS Same-Spin Energy      =      -0.1059272075078205 [Eh]
	 SCS Opposite-Spin Energy  =      -1.2019504888092813 [Eh]
	 SCS Correlation Energy    =      -1.3078776963171019 [Eh]
	 SCS Total Energy          =    -323.2932350114821816 [Eh]
	-----------------------------------------------------------

  Dipole Moment: [D]
     X:     0.6706      Y:    -1.0348      Z:    -0.2929     Total:     1.2674

*** Psi4 exiting successfully. Buy a developer a beer!
