                               Psi4 1.3.2 release

  ==> Input File <==

--------------------------------------------------------------------------
#psi4
#
memory 32 gb

molecule  {
0 1
  O        1.4293010    -1.0173190    -0.5083850
  O        1.2616920     1.0439120     0.4876630
  N       -1.5094500     1.1665790    -0.0160500
  C       -0.7505925    -0.0505784    -0.3538302
  C       -1.3403730    -1.2419500     0.4105850
  C        0.7294260     0.0826320    -0.0646510
  H       -0.8593930    -0.2237720    -1.4273650
  H       -2.4052960    -1.3157140     0.1877600
  H       -0.8355755    -2.1688460     0.1167386
  H       -1.2225590    -1.1039570     1.4923070
  H       -1.0898030     1.9609300    -0.5079820
  H       -1.3695700     1.3697580     0.9773170
  H        2.3653570    -0.8358360    -0.2741470
units angstrom
no_reorient  #important for SAPT in psi4, default
symmetry c1  #important for SAPT in psi4, default
}

set PROPERTIES_ORIGIN ["COM"]
properties('MP2/aug-cc-pvtz', properties = ['dipole'])
--------------------------------------------------------------------------

    Molecular point group: c1
  Charge       = 0
  Multiplicity = 1
  Basis Set: AUG-CC-PVTZ
    Blend: AUG-CC-PVTZ
  Basis Set: (AUG-CC-PVTZ AUX)
    Blend: AUG-CC-PVTZ-JKFIT

    Orbital Energies [Eh]
    ---------------------

    Doubly Occupied:

       1A    -20.623076     2A    -20.561566     3A    -15.552858
       4A    -11.395493     5A    -11.285595     6A    -11.233357
       7A     -1.458110     8A     -1.359800     9A     -1.195677
      10A     -1.023087    11A     -0.908591    12A     -0.792567
      13A     -0.711601    14A     -0.702719    15A     -0.670496
      16A     -0.626588    17A     -0.608346    18A     -0.596289
      19A     -0.551622    20A     -0.526699    21A     -0.514908
      22A     -0.486899    23A     -0.461861    24A     -0.416711

  @DF-RHF Final Energy:  -321.99391275516808

   => Energetics <=

    Nuclear Repulsion Energy =            247.8124002819674274
    One-Electron Energy =                -931.0835943631458349
    Two-Electron Energy =                 361.2772813260103817
    Total Energy =                       -321.9939127551680826
  Basis Set: (AUG-CC-PVTZ AUX)
    Blend: AUG-CC-PVTZ-RI
    Molecular point group: c1

    Geometry (in Angstrom), charge = 0, multiplicity = 1:

       Center              X                  Y                   Z               Mass
    ------------   -----------------  -----------------  -----------------  -----------------
         O            1.428093076570    -1.016271437758    -0.507465228447    15.994914619570
         O            1.260484076570     1.044959562242     0.488582771553    15.994914619570
         N           -1.510657923430     1.167626562242    -0.015130228447    14.003074004430
         C           -0.751800423430    -0.049530837758    -0.352910428447    12.000000000000
         C           -1.341580923430    -1.240902437758     0.411504771553    12.000000000000
         C            0.728218076570     0.083679562242    -0.063731228447    12.000000000000
         H           -0.860600923430    -0.222724437758    -1.426445228447     1.007825032230
         H           -2.406503923430    -1.314666437758     0.188679771553     1.007825032230
         H           -0.836783423430    -2.167798437758     0.117658371553     1.007825032230
         H           -1.223766923430    -1.102909437758     1.493226771553     1.007825032230
         H           -1.091010923430     1.961977562242    -0.507062228447     1.007825032230
         H           -1.370777923430     1.370805562242     0.978236771553     1.007825032230
         H            2.364149076570    -0.834788437758    -0.273227228447     1.007825032230

  Basis Set: AUG-CC-PVTZ
    Blend: AUG-CC-PVTZ
  Basis Set: (AUG-CC-PVTZ AUX)
    Blend: AUG-CC-PVTZ-JKFIT
	 Reference Energy          =    -321.9939127551680826 [Eh]
	 Singles Energy            =      -0.0000000000000000 [Eh]
	 Same-Spin Energy          =      -0.3171643058699097 [Eh]
	 Opposite-Spin Energy      =      -1.0012958429844701 [Eh]
	 Correlation Energy        =      -1.3184601488543799 [Eh]
	 Total Energy              =    -323.3123729040224816 [Eh]

	 ================> DF-SCS-MP2 Energies <==================
	-----------------------------------------------------------
	 SCS Same-Spin Scale       =       0.3333333333333333 [-]
	 SCS Opposite-Spin Scale   =       1.2000000000000000 [-]
	 SCS Same-Spin Energy      =      -0.1057214352899699 [Eh]
	 SCS Opposite-Spin Energy  =      -1.2015550115813640 [Eh]
	 SCS Correlation Energy    =      -1.3072764468713340 [Eh]
	 SCS Total Energy          =    -323.3011892020394384 [Eh]
	-----------------------------------------------------------

  Dipole Moment: [D]
     X:     0.6170      Y:    -1.1655      Z:    -0.3222     Total:     1.3575

*** Psi4 exiting successfully. Buy a developer a beer!
