                               Psi4 1.3.2 release

  ==> Input File <==

--------------------------------------------------------------------------
#psi4
#
memory 32 gb

molecule  {
0 1
  O        1.4293010    -1.0173190    -0.5083850
  O        1.2616920     1.0439120     0.4876630
  N       -1.5094500     1.1665790    -0.0160500
  C       -0.7590880    -0.0423940    -0.3475120
  C       -1.3524465    -1.2392475     0.4054855
  C        0.7299733     0.0932786    -0.0725482
  H       -0.8593930    -0.2237720    -1.4273650
  H       -2.4052960    -1.3157140     0.1877600
  H       -0.8411410    -2.1737420     0.1227770
  H       -1.2225590    -1.1039570     1.4923070
  H       -1.0898030     1.9609300    -0.5079820
  H       -1.3695700     1.3697580     0.9773170
  H        2.3653570    -0.8358360    -0.2741470
units angstrom
no_reorient  #important for SAPT in psi4, default
symmetry c1  #important for SAPT in psi4, default
}

set PROPERTIES_ORIGIN ["COM"]
properties('MP2/aug-cc-pvtz', properties = ['dipole'])
--------------------------------------------------------------------------

    Molecular point group: c1
  Charge       = 0
  Multiplicity = 1
  Basis Set: AUG-CC-PVTZ
    Blend: AUG-CC-PVTZ
  Basis Set: (AUG-CC-PVTZ AUX)
    Blend: AUG-CC-PVTZ-JKFIT

    Orbital Energies [Eh]
    ---------------------

    Doubly Occupied:

       1A    -20.621458     2A    -20.562454     3A    -15.553123
       4A    -11.395033     5A    -11.286034     6A    -11.233175
       7A     -1.456741     8A     -1.361256     9A     -1.199434
      10A     -1.021454    11A     -0.907411    12A     -0.790765
      13A     -0.710986    14A     -0.701934    15A     -0.672603
      16A     -0.625810    17A     -0.609296    18A     -0.595363
      19A     -0.555348    20A     -0.527464    21A     -0.511155
      22A     -0.488148    23A     -0.463035    24A     -0.416210

  @DF-RHF Final Energy:  -321.99423836611436

   => Energetics <=

    Nuclear Repulsion Energy =            247.7564675873534839
    One-Electron Energy =                -930.9700330746310328
    Two-Electron Energy =                 361.2193271211631327
    Total Energy =                       -321.9942383661143595
  Basis Set: (AUG-CC-PVTZ AUX)
    Blend: AUG-CC-PVTZ-RI
    Molecular point group: c1

    Geometry (in Angstrom), charge = 0, multiplicity = 1:

       Center              X                  Y                   Z               Mass
    ------------   -----------------  -----------------  -----------------  -----------------
         O            1.430854175505    -1.019117864447    -0.506633580159    15.994914619570
         O            1.263245175505     1.042113135553     0.489414419841    15.994914619570
         N           -1.507896824495     1.164780135553    -0.014298580159    14.003074004430
         C           -0.757534824495    -0.044192864447    -0.345760580159    12.000000000000
         C           -1.350893324495    -1.241046364447     0.407236919841    12.000000000000
         C            0.731526475505     0.091479735553    -0.070796780159    12.000000000000
         H           -0.857839824495    -0.225570864447    -1.425613580159     1.007825032230
         H           -2.403742824495    -1.317512864447     0.189511419841     1.007825032230
         H           -0.839587824495    -2.175540864447     0.124528419841     1.007825032230
         H           -1.221005824495    -1.105755864447     1.494058419841     1.007825032230
         H           -1.088249824495     1.959131135553    -0.506230580159     1.007825032230
         H           -1.368016824495     1.367959135553     0.979068419841     1.007825032230
         H            2.366910175505    -0.837634864447    -0.272395580159     1.007825032230

  Basis Set: AUG-CC-PVTZ
    Blend: AUG-CC-PVTZ
  Basis Set: (AUG-CC-PVTZ AUX)
    Blend: AUG-CC-PVTZ-JKFIT
	 Reference Energy          =    -321.9942383661143595 [Eh]
	 Singles Energy            =      -0.0000000000000000 [Eh]
	 Same-Spin Energy          =      -0.3170760003691327 [Eh]
	 Opposite-Spin Energy      =      -1.0010667424233612 [Eh]
	 Correlation Energy        =      -1.3181427427924941 [Eh]
	 Total Energy              =    -323.3123811089068340 [Eh]

	 ================> DF-SCS-MP2 Energies <==================
	-----------------------------------------------------------
	 SCS Same-Spin Scale       =       0.3333333333333333 [-]
	 SCS Opposite-Spin Scale   =       1.2000000000000000 [-]
	 SCS Same-Spin Energy      =      -0.1056920001230442 [Eh]
	 SCS Opposite-Spin Energy  =      -1.2012800909080334 [Eh]
	 SCS Correlation Energy    =      -1.3069720910310778 [Eh]
	 SCS Total Energy          =    -323.3012104571454302 [Eh]
	-----------------------------------------------------------

  Dipole Moment: [D]
     X:     0.5878      Y:    -1.1001      Z:    -0.3061     Total:     1.2843

*** Psi4 exiting successfully. Buy a developer a beer!
