                               Psi4 1.3.2 release

  ==> Input File <==

--------------------------------------------------------------------------
#psi4
#
memory 32 gb

molecule  {
0 1
  O        1.4293010    -1.0173190    -0.5083850
  O        1.2616920     1.0439120     0.4876630
  N       -1.5094500     1.1665790    -0.0160500
  C       -0.7590880    -0.0423940    -0.3475120
  C       -1.3403730    -1.2419500     0.4105850
  C        0.7430285     0.0707154    -0.1421631
  H       -0.8020277    -0.2214142    -1.4315551
  H       -2.4052960    -1.3157140     0.1877600
  H       -0.8411410    -2.1737420     0.1227770
  H       -1.2225590    -1.1039570     1.4923070
  H       -1.0898030     1.9609300    -0.5079820
  H       -1.3695700     1.3697580     0.9773170
  H        2.3653570    -0.8358360    -0.2741470
units angstrom
no_reorient  #important for SAPT in psi4, default
symmetry c1  #important for SAPT in psi4, default
}

set PROPERTIES_ORIGIN ["COM"]
properties('MP2/aug-cc-pvtz', properties = ['dipole'])
--------------------------------------------------------------------------

    Molecular point group: c1
  Charge       = 0
  Multiplicity = 1
  Basis Set: AUG-CC-PVTZ
    Blend: AUG-CC-PVTZ
  Basis Set: (AUG-CC-PVTZ AUX)
    Blend: AUG-CC-PVTZ-JKFIT

    Orbital Energies [Eh]
    ---------------------

    Doubly Occupied:

       1A    -20.634473     2A    -20.551723     3A    -15.553337
       4A    -11.396743     5A    -11.286852     6A    -11.234378
       7A     -1.470489     8A     -1.339647     9A     -1.197368
      10A     -1.023401    11A     -0.914535    12A     -0.802864
      13A     -0.712475    14A     -0.699603    15A     -0.673884
      16A     -0.632744    17A     -0.607751    18A     -0.590579
      19A     -0.549176    20A     -0.529033    21A     -0.515353
      22A     -0.472874    23A     -0.453974    24A     -0.415913

  @DF-RHF Final Energy:  -321.98587836424986

   => Energetics <=

    Nuclear Repulsion Energy =            247.6208048009531808
    One-Electron Energy =                -930.6950279606512595
    Two-Electron Energy =                 361.0883447954481653
    Total Energy =                       -321.9858783642498565
  Basis Set: (AUG-CC-PVTZ AUX)
    Blend: AUG-CC-PVTZ-RI
    Molecular point group: c1

    Geometry (in Angstrom), charge = 0, multiplicity = 1:

       Center              X                  Y                   Z               Mass
    ------------   -----------------  -----------------  -----------------  -----------------
         O            1.426818600502    -1.015739762342    -0.497892109286    15.994914619570
         O            1.259209600502     1.045491237658     0.498155890714    15.994914619570
         N           -1.511932399498     1.168158237658    -0.005557109286    14.003074004430
         C           -0.761570399498    -0.040814762342    -0.337019109286    12.000000000000
         C           -1.342855399498    -1.240370762342     0.421077890714    12.000000000000
         C            0.740546100502     0.072294637658    -0.131670209286    12.000000000000
         H           -0.804510099498    -0.219834962342    -1.421062209286     1.007825032230
         H           -2.407778399498    -1.314134762342     0.198252890714     1.007825032230
         H           -0.843623399498    -2.172162762342     0.133269890714     1.007825032230
         H           -1.225041399498    -1.102377762342     1.502799890714     1.007825032230
         H           -1.092285399498     1.962509237658    -0.497489109286     1.007825032230
         H           -1.372052399498     1.371337237658     0.987809890714     1.007825032230
         H            2.362874600502    -0.834256762342    -0.263654109286     1.007825032230

  Basis Set: AUG-CC-PVTZ
    Blend: AUG-CC-PVTZ
  Basis Set: (AUG-CC-PVTZ AUX)
    Blend: AUG-CC-PVTZ-JKFIT
	 Reference Energy          =    -321.9858783642498565 [Eh]
	 Singles Energy            =      -0.0000000000000000 [Eh]
	 Same-Spin Energy          =      -0.3178764484548843 [Eh]
	 Opposite-Spin Energy      =      -1.0022540319253537 [Eh]
	 Correlation Energy        =      -1.3201304803802381 [Eh]
	 Total Energy              =    -323.3060088446300711 [Eh]

	 ================> DF-SCS-MP2 Energies <==================
	-----------------------------------------------------------
	 SCS Same-Spin Scale       =       0.3333333333333333 [-]
	 SCS Opposite-Spin Scale   =       1.2000000000000000 [-]
	 SCS Same-Spin Energy      =      -0.1059588161516281 [Eh]
	 SCS Opposite-Spin Energy  =      -1.2027048383104244 [Eh]
	 SCS Correlation Energy    =      -1.3086636544620525 [Eh]
	 SCS Total Energy          =    -323.2945420187119225 [Eh]
	-----------------------------------------------------------

  Dipole Moment: [D]
     X:     0.6736      Y:    -1.4295      Z:    -0.4920     Total:     1.6551

*** Psi4 exiting successfully. Buy a developer a beer!
