                               Psi4 1.3.2 release

  ==> Input File <==

--------------------------------------------------------------------------
#psi4
#
memory 32 gb

molecule  {
0 1
  O        1.4293010    -1.0173190    -0.5083850
  O        1.2616920     1.0439120     0.4876630
  N       -1.5094500     1.1665790    -0.0160500
  C       -0.7762112    -0.0262998    -0.3347029
  C       -1.3403730    -1.2419500     0.4105850
  C        0.7294260     0.0826320    -0.0646510
  H       -0.8593930    -0.2237720    -1.4273650
  H       -2.4052960    -1.3157140     0.1877600
  H       -0.8523856    -2.1833208     0.1349190
  H       -1.2225590    -1.1039570     1.4923070
  H       -1.0898030     1.9609300    -0.5079820
  H       -1.3695700     1.3697580     0.9773170
  H        2.3653570    -0.8358360    -0.2741470
units angstrom
no_reorient  #important for SAPT in psi4, default
symmetry c1  #important for SAPT in psi4, default
}

set PROPERTIES_ORIGIN ["COM"]
properties('MP2/aug-cc-pvtz', properties = ['dipole'])
--------------------------------------------------------------------------

    Molecular point group: c1
  Charge       = 0
  Multiplicity = 1
  Basis Set: AUG-CC-PVTZ
    Blend: AUG-CC-PVTZ
  Basis Set: (AUG-CC-PVTZ AUX)
    Blend: AUG-CC-PVTZ-JKFIT

    Orbital Energies [Eh]
    ---------------------

    Doubly Occupied:

       1A    -20.622808     2A    -20.559888     3A    -15.554184
       4A    -11.393906     5A    -11.287268     6A    -11.232477
       7A     -1.456703     8A     -1.358674     9A     -1.206701
      10A     -1.020588    11A     -0.904039    12A     -0.792215
      13A     -0.710216    14A     -0.701518    15A     -0.676558
      16A     -0.625894    17A     -0.610059    18A     -0.596130
      19A     -0.549752    20A     -0.535728    21A     -0.507812
      22A     -0.485792    23A     -0.461638    24A     -0.414865

  @DF-RHF Final Energy:  -321.99373643772634

   => Energetics <=

    Nuclear Repulsion Energy =            247.8169492664351594
    One-Electron Energy =                -931.0905455565718967
    Two-Electron Energy =                 361.2798598524104250
    Total Energy =                       -321.9937364377263407
  Basis Set: (AUG-CC-PVTZ AUX)
    Blend: AUG-CC-PVTZ-RI
    Molecular point group: c1

    Geometry (in Angstrom), charge = 0, multiplicity = 1:

       Center              X                  Y                   Z               Mass
    ------------   -----------------  -----------------  -----------------  -----------------
         O            1.431735687418    -1.019379381041    -0.510248571780    15.994914619570
         O            1.264126687418     1.041851618959     0.485799428220    15.994914619570
         N           -1.507015312582     1.164518618959    -0.017913571780    14.003074004430
         C           -0.773776512582    -0.028360181041    -0.336566471780    12.000000000000
         C           -1.337938312582    -1.244010381041     0.408721428220    12.000000000000
         C            0.731860687418     0.080571618959    -0.066514571780    12.000000000000
         H           -0.856958312582    -0.225832381041    -1.429228571780     1.007825032230
         H           -2.402861312582    -1.317774381041     0.185896428220     1.007825032230
         H           -0.849950912582    -2.185381181041     0.133055428220     1.007825032230
         H           -1.220124312582    -1.106017381041     1.490443428220     1.007825032230
         H           -1.087368312582     1.958869618959    -0.509845571780     1.007825032230
         H           -1.367135312582     1.367697618959     0.975453428220     1.007825032230
         H            2.367791687418    -0.837896381041    -0.276010571780     1.007825032230

  Basis Set: AUG-CC-PVTZ
    Blend: AUG-CC-PVTZ
  Basis Set: (AUG-CC-PVTZ AUX)
    Blend: AUG-CC-PVTZ-JKFIT
	 Reference Energy          =    -321.9937364377263407 [Eh]
	 Singles Energy            =      -0.0000000000000000 [Eh]
	 Same-Spin Energy          =      -0.3172043618451749 [Eh]
	 Opposite-Spin Energy      =      -1.0009559524230491 [Eh]
	 Correlation Energy        =      -1.3181603142682241 [Eh]
	 Total Energy              =    -323.3118967519945386 [Eh]

	 ================> DF-SCS-MP2 Energies <==================
	-----------------------------------------------------------
	 SCS Same-Spin Scale       =       0.3333333333333333 [-]
	 SCS Opposite-Spin Scale   =       1.2000000000000000 [-]
	 SCS Same-Spin Energy      =      -0.1057347872817250 [Eh]
	 SCS Opposite-Spin Energy  =      -1.2011471429076590 [Eh]
	 SCS Correlation Energy    =      -1.3068819301893839 [Eh]
	 SCS Total Energy          =    -323.3006183679157175 [Eh]
	-----------------------------------------------------------

  Dipole Moment: [D]
     X:     0.5526      Y:    -1.1024      Z:    -0.3025     Total:     1.2697

*** Psi4 exiting successfully. Buy a developer a beer!
