                               Psi4 1.3.2 release

  ==> Input File <==

--------------------------------------------------------------------------
#psi4
#
memory 32 gb

molecule  {
0 1
  O        1.4293010    -1.0173190    -0.5083850
  O        1.2616920     1.0439120     0.4876630
  N       -1.5094500     1.1665790    -0.0160500
  C       -0.7590880    -0.0423940    -0.3475120
  C       -1.3403730    -1.2419500     0.4105850
  C        0.6315168     0.0744082    -0.0832566
  H       -0.8593930    -0.2237720    -1.4273650
  H       -2.4052960    -1.3157140     0.1877600
  H       -0.8411410    -2.1737420     0.1227770
  H       -1.2225590    -1.1039570     1.4923070
  H       -1.0898030     1.9609300    -0.5079820
  H       -1.3695700     1.3697580     0.9773170
  H        2.3653570    -0.8358360    -0.2741470
units angstrom
no_reorient  #important for SAPT in psi4, default
symmetry c1  #important for SAPT in psi4, default
}

set PROPERTIES_ORIGIN ["COM"]
properties('MP2/aug-cc-pvtz', properties = ['dipole'])
--------------------------------------------------------------------------

    Molecular point group: c1
  Charge       = 0
  Multiplicity = 1
  Basis Set: AUG-CC-PVTZ
    Blend: AUG-CC-PVTZ
  Basis Set: (AUG-CC-PVTZ AUX)
    Blend: AUG-CC-PVTZ-JKFIT

    Orbital Energies [Eh]
    ---------------------

    Doubly Occupied:

       1A    -20.614332     2A    -20.557370     3A    -15.558839
       4A    -11.404601     5A    -11.289107     6A    -11.241082
       7A     -1.431759     8A     -1.324869     9A     -1.211265
      10A     -1.041588    11A     -0.927521    12A     -0.789860
      13A     -0.715910    14A     -0.690769    15A     -0.676154
      16A     -0.616242    17A     -0.608398    18A     -0.589676
      19A     -0.551605    20A     -0.533507    21A     -0.519246
      22A     -0.467911    23A     -0.458188    24A     -0.427824

  @DF-RHF Final Energy:  -321.97096474697690

   => Energetics <=

    Nuclear Repulsion Energy =            247.9103211128108910
    One-Electron Energy =                -931.2673268863202338
    Two-Electron Energy =                 361.3860410265324958
    Total Energy =                       -321.9709647469769038
  Basis Set: (AUG-CC-PVTZ AUX)
    Blend: AUG-CC-PVTZ-RI
    Molecular point group: c1

    Geometry (in Angstrom), charge = 0, multiplicity = 1:

       Center              X                  Y                   Z               Mass
    ------------   -----------------  -----------------  -----------------  -----------------
         O            1.442495085385    -1.016210716227    -0.505877728899    15.994914619570
         O            1.274886085385     1.045020283773     0.490170271101    15.994914619570
         N           -1.496255914615     1.167687283773    -0.013542728899    14.003074004430
         C           -0.745893914615    -0.041285716227    -0.345004728899    12.000000000000
         C           -1.327178914615    -1.240841716227     0.413092271101    12.000000000000
         C            0.644710885385     0.075516483773    -0.080749328899    12.000000000000
         H           -0.846198914615    -0.222663716227    -1.424857728899     1.007825032230
         H           -2.392101914615    -1.314605716227     0.190267271101     1.007825032230
         H           -0.827946914615    -2.172633716227     0.125284271101     1.007825032230
         H           -1.209364914615    -1.102848716227     1.494814271101     1.007825032230
         H           -1.076608914615     1.962038283773    -0.505474728899     1.007825032230
         H           -1.356375914615     1.370866283773     0.979824271101     1.007825032230
         H            2.378551085385    -0.834727716227    -0.271639728899     1.007825032230

  Basis Set: AUG-CC-PVTZ
    Blend: AUG-CC-PVTZ
  Basis Set: (AUG-CC-PVTZ AUX)
    Blend: AUG-CC-PVTZ-JKFIT
	 Reference Energy          =    -321.9709647469769038 [Eh]
	 Singles Energy            =      -0.0000000000000000 [Eh]
	 Same-Spin Energy          =      -0.3195753261052887 [Eh]
	 Opposite-Spin Energy      =      -1.0060066213549481 [Eh]
	 Correlation Energy        =      -1.3255819474602368 [Eh]
	 Total Energy              =    -323.2965466944371542 [Eh]

	 ================> DF-SCS-MP2 Energies <==================
	-----------------------------------------------------------
	 SCS Same-Spin Scale       =       0.3333333333333333 [-]
	 SCS Opposite-Spin Scale   =       1.2000000000000000 [-]
	 SCS Same-Spin Energy      =      -0.1065251087017629 [Eh]
	 SCS Opposite-Spin Energy  =      -1.2072079456259377 [Eh]
	 SCS Correlation Energy    =      -1.3137330543277006 [Eh]
	 SCS Total Energy          =    -323.2846978013046169 [Eh]
	-----------------------------------------------------------

  Dipole Moment: [D]
     X:     0.0573      Y:    -1.1681      Z:    -0.3502     Total:     1.2208

*** Psi4 exiting successfully. Buy a developer a beer!
