                               Psi4 1.3.2 release

  ==> Input File <==

--------------------------------------------------------------------------
#psi4
#
memory 32 gb

molecule  {
0 1
  O        1.4496515    -1.0073303    -0.5003969
  O        1.2616920     1.0439120     0.4876630
  N       -1.5094500     1.1665790    -0.0160500
  C       -0.7629783    -0.0186710    -0.3362811
  C       -1.3403730    -1.2419500     0.4105850
  C        0.7294260     0.0826320    -0.0646510
  H       -0.8593930    -0.2237720    -1.4273650
  H       -2.4052960    -1.3157140     0.1877600
  H       -0.8411410    -2.1737420     0.1227770
  H       -1.2225590    -1.1039570     1.4923070
  H       -1.0898030     1.9609300    -0.5079820
  H       -1.3695700     1.3697580     0.9773170
  H        2.3653570    -0.8358360    -0.2741470
units angstrom
no_reorient  #important for SAPT in psi4, default
symmetry c1  #important for SAPT in psi4, default
}

set PROPERTIES_ORIGIN ["COM"]
properties('MP2/aug-cc-pvtz', properties = ['dipole'])
--------------------------------------------------------------------------

    Molecular point group: c1
  Charge       = 0
  Multiplicity = 1
  Basis Set: AUG-CC-PVTZ
    Blend: AUG-CC-PVTZ
  Basis Set: (AUG-CC-PVTZ AUX)
    Blend: AUG-CC-PVTZ-JKFIT

    Orbital Energies [Eh]
    ---------------------

    Doubly Occupied:

       1A    -20.619968     2A    -20.558892     3A    -15.554985
       4A    -11.394143     5A    -11.287619     6A    -11.233612
       7A     -1.459620     8A     -1.359356     9A     -1.207192
      10A     -1.020836    11A     -0.907693    12A     -0.796538
      13A     -0.711765    14A     -0.702894    15A     -0.676580
      16A     -0.626297    17A     -0.611282    18A     -0.595613
      19A     -0.550728    20A     -0.534043    21A     -0.507317
      22A     -0.484160    23A     -0.461816    24A     -0.417739

  @DF-RHF Final Energy:  -321.99507598138490

   => Energetics <=

    Nuclear Repulsion Energy =            247.9417300247523599
    One-Electron Energy =                -931.3122391741753745
    Two-Electron Energy =                 361.3754331680381142
    Total Energy =                       -321.9950759813849004
  Basis Set: (AUG-CC-PVTZ AUX)
    Blend: AUG-CC-PVTZ-RI
    Molecular point group: c1

    Geometry (in Angstrom), charge = 0, multiplicity = 1:

       Center              X                  Y                   Z               Mass
    ------------   -----------------  -----------------  -----------------  -----------------
         O            1.446520271407    -1.012321333054    -0.503345211636    15.994914619570
         O            1.258560771407     1.038920966946     0.484714688364    15.994914619570
         N           -1.512581228593     1.161587966946    -0.018998311636    14.003074004430
         C           -0.766109528593    -0.023662033054    -0.339229411636    12.000000000000
         C           -1.343504228593    -1.246941033054     0.407636688364    12.000000000000
         C            0.726294771407     0.077640966946    -0.067599311636    12.000000000000
         H           -0.862524228593    -0.228763033054    -1.430313311636     1.007825032230
         H           -2.408427228593    -1.320705033054     0.184811688364     1.007825032230
         H           -0.844272228593    -2.178733033054     0.119828688364     1.007825032230
         H           -1.225690228593    -1.108948033054     1.489358688364     1.007825032230
         H           -1.092934228593     1.955938966946    -0.510930311636     1.007825032230
         H           -1.372701228593     1.364766966946     0.974368688364     1.007825032230
         H            2.362225771407    -0.840827033054    -0.277095311636     1.007825032230

  Basis Set: AUG-CC-PVTZ
    Blend: AUG-CC-PVTZ
  Basis Set: (AUG-CC-PVTZ AUX)
    Blend: AUG-CC-PVTZ-JKFIT
	 Reference Energy          =    -321.9950759813849004 [Eh]
	 Singles Energy            =      -0.0000000000000000 [Eh]
	 Same-Spin Energy          =      -0.3167819348204886 [Eh]
	 Opposite-Spin Energy      =      -1.0000923587195438 [Eh]
	 Correlation Energy        =      -1.3168742935400324 [Eh]
	 Total Energy              =    -323.3119502749249250 [Eh]

	 ================> DF-SCS-MP2 Energies <==================
	-----------------------------------------------------------
	 SCS Same-Spin Scale       =       0.3333333333333333 [-]
	 SCS Opposite-Spin Scale   =       1.2000000000000000 [-]
	 SCS Same-Spin Energy      =      -0.1055939782734962 [Eh]
	 SCS Opposite-Spin Energy  =      -1.2001108304634525 [Eh]
	 SCS Correlation Energy    =      -1.3057048087369487 [Eh]
	 SCS Total Energy          =    -323.3007807901218484 [Eh]
	-----------------------------------------------------------

  Dipole Moment: [D]
     X:     0.5010      Y:    -1.0928      Z:    -0.3128     Total:     1.2422

*** Psi4 exiting successfully. Buy a developer a beer!
