                               Psi4 1.3.2 release

  ==> Input File <==

--------------------------------------------------------------------------
#psi4
#
memory 32 gb

molecule  {
0 1
  O        1.4293010    -1.0173190    -0.5083850
  O        1.2616920     1.0439120     0.4876630
  N       -1.5094500     1.1665790    -0.0160500
  C       -0.7590880    -0.0423940    -0.3475120
  C       -1.3403730    -1.2419500     0.4105850
  C        0.7090910     0.0726947    -0.0727421
  H       -0.8593930    -0.2237720    -1.4273650
  H       -2.4052960    -1.3157140     0.1877600
  H       -0.8411410    -2.1737420     0.1227770
  H       -1.2225590    -1.1039570     1.4923070
  H       -1.0898030     1.9609300    -0.5079820
  H       -1.3695700     1.3697580     0.9773170
  H        2.3698340    -0.8508900    -0.2810012
units angstrom
no_reorient  #important for SAPT in psi4, default
symmetry c1  #important for SAPT in psi4, default
}

set PROPERTIES_ORIGIN ["COM"]
properties('MP2/aug-cc-pvtz', properties = ['dipole'])
--------------------------------------------------------------------------

    Molecular point group: c1
  Charge       = 0
  Multiplicity = 1
  Basis Set: AUG-CC-PVTZ
    Blend: AUG-CC-PVTZ
  Basis Set: (AUG-CC-PVTZ AUX)
    Blend: AUG-CC-PVTZ-JKFIT

    Orbital Energies [Eh]
    ---------------------

    Doubly Occupied:

       1A    -20.623090     2A    -20.558095     3A    -15.554352
       4A    -11.397403     5A    -11.286993     6A    -11.234678
       7A     -1.453191     8A     -1.348314     9A     -1.201229
      10A     -1.026432    11A     -0.912296    12A     -0.795158
      13A     -0.710259    14A     -0.700982    15A     -0.672955
      16A     -0.624418    17A     -0.607491    18A     -0.594726
      19A     -0.550249    20A     -0.530585    21A     -0.514286
      22A     -0.479750    23A     -0.459848    24A     -0.419486

  @DF-RHF Final Energy:  -321.99096477267062

   => Energetics <=

    Nuclear Repulsion Energy =            247.7780992649834388
    One-Electron Energy =                -931.0255970827071224
    Two-Electron Energy =                 361.2565330450530610
    Total Energy =                       -321.9909647726706226
  Basis Set: (AUG-CC-PVTZ AUX)
    Blend: AUG-CC-PVTZ-RI
    Molecular point group: c1

    Geometry (in Angstrom), charge = 0, multiplicity = 1:

       Center              X                  Y                   Z               Mass
    ------------   -----------------  -----------------  -----------------  -----------------
         O            1.431990573097    -1.015809427854    -0.507217080668    15.994914619570
         O            1.264381573097     1.045421572146     0.488830919332    15.994914619570
         N           -1.506760426903     1.168088572146    -0.014882080668    14.003074004430
         C           -0.756398426903    -0.040884427854    -0.346344080668    12.000000000000
         C           -1.337683426903    -1.240440427854     0.411752919332    12.000000000000
         C            0.711780573097     0.074204272146    -0.071574180668    12.000000000000
         H           -0.856703426903    -0.222262427854    -1.426197080668     1.007825032230
         H           -2.402606426903    -1.314204427854     0.188927919332     1.007825032230
         H           -0.838451426903    -2.172232427854     0.123944919332     1.007825032230
         H           -1.219869426903    -1.102447427854     1.493474919332     1.007825032230
         H           -1.087113426903     1.962439572146    -0.506814080668     1.007825032230
         H           -1.366880426903     1.371267572146     0.978484919332     1.007825032230
         H            2.372523573097    -0.849380427854    -0.279833280668     1.007825032230

  Basis Set: AUG-CC-PVTZ
    Blend: AUG-CC-PVTZ
  Basis Set: (AUG-CC-PVTZ AUX)
    Blend: AUG-CC-PVTZ-JKFIT
	 Reference Energy          =    -321.9909647726706226 [Eh]
	 Singles Energy            =      -0.0000000000000000 [Eh]
	 Same-Spin Energy          =      -0.3176569612136296 [Eh]
	 Opposite-Spin Energy      =      -1.0021022747877057 [Eh]
	 Correlation Energy        =      -1.3197592360013353 [Eh]
	 Total Energy              =    -323.3107240086719685 [Eh]

	 ================> DF-SCS-MP2 Energies <==================
	-----------------------------------------------------------
	 SCS Same-Spin Scale       =       0.3333333333333333 [-]
	 SCS Opposite-Spin Scale   =       1.2000000000000000 [-]
	 SCS Same-Spin Energy      =      -0.1058856537378765 [Eh]
	 SCS Opposite-Spin Energy  =      -1.2025227297452468 [Eh]
	 SCS Correlation Energy    =      -1.3084083834831233 [Eh]
	 SCS Total Energy          =    -323.2993731561537629 [Eh]
	-----------------------------------------------------------

  Dipole Moment: [D]
     X:     0.5088      Y:    -1.2329      Z:    -0.3622     Total:     1.3820

*** Psi4 exiting successfully. Buy a developer a beer!
