                               Psi4 1.3.2 release

  ==> Input File <==

--------------------------------------------------------------------------
#psi4
#
memory 32 gb

molecule  {
0 1
  O        1.4293010    -1.0173190    -0.5083850
  O        1.2616920     1.0439120     0.4876630
  N       -1.5094500     1.1665790    -0.0160500
  C       -0.7590880    -0.0423940    -0.3475120
  C       -1.3403730    -1.2419500     0.4105850
  C        0.7294260     0.0826320    -0.0646510
  H       -0.8593930    -0.2237720    -1.4273650
  H       -2.4052960    -1.3157140     0.1877600
  H       -0.8411410    -2.1737420     0.1227770
  H       -1.2225590    -1.1039570     1.4923070
  H       -1.0769786     1.9818678    -0.4603098
  H       -1.3451165     1.4152760     0.9631182
  H        2.3653570    -0.8358360    -0.2741470
units angstrom
no_reorient  #important for SAPT in psi4, default
symmetry c1  #important for SAPT in psi4, default
}

set PROPERTIES_ORIGIN ["COM"]
properties('MP2/aug-cc-pvtz', properties = ['dipole'])
--------------------------------------------------------------------------

    Molecular point group: c1
  Charge       = 0
  Multiplicity = 1
  Basis Set: AUG-CC-PVTZ
    Blend: AUG-CC-PVTZ
  Basis Set: (AUG-CC-PVTZ AUX)
    Blend: AUG-CC-PVTZ-JKFIT

    Orbital Energies [Eh]
    ---------------------

    Doubly Occupied:

       1A    -20.623450     2A    -20.561678     3A    -15.553520
       4A    -11.395748     5A    -11.286993     6A    -11.233078
       7A     -1.458170     8A     -1.360079     9A     -1.199819
      10A     -1.023798    11A     -0.907315    12A     -0.794262
      13A     -0.711451    14A     -0.702579    15A     -0.668537
      16A     -0.625360    17A     -0.609989    18A     -0.595073
      19A     -0.551369    20A     -0.530577    21A     -0.510983
      22A     -0.487194    23A     -0.462504    24A     -0.419104

  @DF-RHF Final Energy:  -321.99325880877831

   => Energetics <=

    Nuclear Repulsion Energy =            247.7925553759461650
    One-Electron Energy =                -931.0263672950395630
    Two-Electron Energy =                 361.2405531103150338
    Total Energy =                       -321.9932588087783074
  Basis Set: (AUG-CC-PVTZ AUX)
    Blend: AUG-CC-PVTZ-RI
    Molecular point group: c1

    Geometry (in Angstrom), charge = 0, multiplicity = 1:

       Center              X                  Y                   Z               Mass
    ------------   -----------------  -----------------  -----------------  -----------------
         O            1.428879008900    -1.018071083859    -0.508763851646    15.994914619570
         O            1.261270008900     1.043159916141     0.487284148354    15.994914619570
         N           -1.509871991100     1.165826916141    -0.016428851646    14.003074004430
         C           -0.759509991100    -0.043146083859    -0.347890851646    12.000000000000
         C           -1.340794991100    -1.242702083859     0.410206148354    12.000000000000
         C            0.729004008900     0.081879916141    -0.065029851646    12.000000000000
         H           -0.859814991100    -0.224524083859    -1.427743851646     1.007825032230
         H           -2.405717991100    -1.316466083859     0.187381148354     1.007825032230
         H           -0.841562991100    -2.174494083859     0.122398148354     1.007825032230
         H           -1.222980991100    -1.104709083859     1.491928148354     1.007825032230
         H           -1.077400591100     1.981115716141    -0.460688651646     1.007825032230
         H           -1.345538491100     1.414523916141     0.962739348354     1.007825032230
         H            2.364935008900    -0.836588083859    -0.274525851646     1.007825032230

  Basis Set: AUG-CC-PVTZ
    Blend: AUG-CC-PVTZ
  Basis Set: (AUG-CC-PVTZ AUX)
    Blend: AUG-CC-PVTZ-JKFIT
	 Reference Energy          =    -321.9932588087783074 [Eh]
	 Singles Energy            =      -0.0000000000000000 [Eh]
	 Same-Spin Energy          =      -0.3172088305004491 [Eh]
	 Opposite-Spin Energy      =      -1.0012444628158463 [Eh]
	 Correlation Energy        =      -1.3184532933162953 [Eh]
	 Total Energy              =    -323.3117121020945888 [Eh]

	 ================> DF-SCS-MP2 Energies <==================
	-----------------------------------------------------------
	 SCS Same-Spin Scale       =       0.3333333333333333 [-]
	 SCS Opposite-Spin Scale   =       1.2000000000000000 [-]
	 SCS Same-Spin Energy      =      -0.1057362768334830 [Eh]
	 SCS Opposite-Spin Energy  =      -1.2014933553790155 [Eh]
	 SCS Correlation Energy    =      -1.3072296322124985 [Eh]
	 SCS Total Energy          =    -323.3004884409908186 [Eh]
	-----------------------------------------------------------

  Dipole Moment: [D]
     X:     0.6576      Y:    -1.1250      Z:    -0.2896     Total:     1.3349

*** Psi4 exiting successfully. Buy a developer a beer!
