                               Psi4 1.3.2 release

  ==> Input File <==

--------------------------------------------------------------------------
#psi4
#
memory 32 gb

molecule  {
0 1
  O        1.4293010    -1.0173190    -0.5083850
  O        1.3183574     1.0139990     0.4813641
  N       -1.5094500     1.1665790    -0.0160500
  C       -0.7447485    -0.1134606    -0.3803613
  C       -1.3403730    -1.2419500     0.4105850
  C        0.7294260     0.0826320    -0.0646510
  H       -0.8593930    -0.2237720    -1.4273650
  H       -2.4052960    -1.3157140     0.1877600
  H       -0.8411410    -2.1737420     0.1227770
  H       -1.2225590    -1.1039570     1.4923070
  H       -1.0898030     1.9609300    -0.5079820
  H       -1.3695700     1.3697580     0.9773170
  H        2.3653570    -0.8358360    -0.2741470
units angstrom
no_reorient  #important for SAPT in psi4, default
symmetry c1  #important for SAPT in psi4, default
}

set PROPERTIES_ORIGIN ["COM"]
properties('MP2/aug-cc-pvtz', properties = ['dipole'])
--------------------------------------------------------------------------

    Molecular point group: c1
  Charge       = 0
  Multiplicity = 1
  Basis Set: AUG-CC-PVTZ
    Blend: AUG-CC-PVTZ
  Basis Set: (AUG-CC-PVTZ AUX)
    Blend: AUG-CC-PVTZ-JKFIT

    Orbital Energies [Eh]
    ---------------------

    Doubly Occupied:

       1A    -20.617410     2A    -20.563217     3A    -15.552586
       4A    -11.397559     5A    -11.289510     6A    -11.234670
       7A     -1.458766     8A     -1.355866     9A     -1.183034
      10A     -1.030641    11A     -0.912305    12A     -0.794606
      13A     -0.709906    14A     -0.702529    15A     -0.665017
      16A     -0.625862    17A     -0.606370    18A     -0.597201
      19A     -0.552758    20A     -0.533159    21A     -0.516538
      22A     -0.486689    23A     -0.462565    24A     -0.414537

  @DF-RHF Final Energy:  -321.98701943650343

   => Energetics <=

    Nuclear Repulsion Energy =            247.2627147406381312
    One-Electron Energy =                -929.9728647750262098
    Two-Electron Energy =                 360.7231305978846763
    Total Energy =                       -321.9870194365034308
  Basis Set: (AUG-CC-PVTZ AUX)
    Blend: AUG-CC-PVTZ-RI
    Molecular point group: c1

    Geometry (in Angstrom), charge = 0, multiplicity = 1:

       Center              X                  Y                   Z               Mass
    ------------   -----------------  -----------------  -----------------  -----------------
         O            1.417190184980    -1.002369036104    -0.502826837822    15.994914619570
         O            1.306246584980     1.028948963896     0.486922262178    15.994914619570
         N           -1.521560815020     1.181528963896    -0.010491837822    14.003074004430
         C           -0.756859315020    -0.098510636104    -0.374803137822    12.000000000000
         C           -1.352483815020    -1.227000036104     0.416143162178    12.000000000000
         C            0.717315184980     0.097581963896    -0.059092837822    12.000000000000
         H           -0.871503815020    -0.208822036104    -1.421806837822     1.007825032230
         H           -2.417406815020    -1.300764036104     0.193318162178     1.007825032230
         H           -0.853251815020    -2.158792036104     0.128335162178     1.007825032230
         H           -1.234669815020    -1.089007036104     1.497865162178     1.007825032230
         H           -1.101913815020     1.975879963896    -0.502423837822     1.007825032230
         H           -1.381680815020     1.384707963896     0.982875162178     1.007825032230
         H            2.353246184980    -0.820886036104    -0.268588837822     1.007825032230

  Basis Set: AUG-CC-PVTZ
    Blend: AUG-CC-PVTZ
  Basis Set: (AUG-CC-PVTZ AUX)
    Blend: AUG-CC-PVTZ-JKFIT
	 Reference Energy          =    -321.9870194365034308 [Eh]
	 Singles Energy            =      -0.0000000000000000 [Eh]
	 Same-Spin Energy          =      -0.3171612168130640 [Eh]
	 Opposite-Spin Energy      =      -1.0018620367652624 [Eh]
	 Correlation Energy        =      -1.3190232535783264 [Eh]
	 Total Energy              =    -323.3060426900817674 [Eh]

	 ================> DF-SCS-MP2 Energies <==================
	-----------------------------------------------------------
	 SCS Same-Spin Scale       =       0.3333333333333333 [-]
	 SCS Opposite-Spin Scale   =       1.2000000000000000 [-]
	 SCS Same-Spin Energy      =      -0.1057204056043547 [Eh]
	 SCS Opposite-Spin Energy  =      -1.2022344441183148 [Eh]
	 SCS Correlation Energy    =      -1.3079548497226694 [Eh]
	 SCS Total Energy          =    -323.2949742862260791 [Eh]
	-----------------------------------------------------------

  Dipole Moment: [D]
     X:     0.5209      Y:    -1.2353      Z:    -0.3235     Total:     1.3791

*** Psi4 exiting successfully. Buy a developer a beer!
