                               Psi4 1.3.2 release

  ==> Input File <==

--------------------------------------------------------------------------
#psi4
#
memory 32 gb

molecule  {
0 1
  O        1.4293010    -1.0173190    -0.5083850
  O        1.2616920     1.0439120     0.4876630
  N       -1.5094500     1.1665790    -0.0160500
  C       -0.7676278    -0.0343009    -0.3411361
  C       -1.3403730    -1.2419500     0.4105850
  C        0.7294260     0.0826320    -0.0646510
  H       -0.8593930    -0.2237720    -1.4273650
  H       -2.4052960    -1.3157140     0.1877600
  H       -0.8467445    -2.1785671     0.1288373
  H       -1.2225590    -1.1039570     1.4923070
  H       -1.0898030     1.9609300    -0.5079820
  H       -1.3695700     1.3697580     0.9773170
  H        2.3653570    -0.8358360    -0.2741470
units angstrom
no_reorient  #important for SAPT in psi4, default
symmetry c1  #important for SAPT in psi4, default
}

set PROPERTIES_ORIGIN ["COM"]
properties('MP2/aug-cc-pvtz', properties = ['dipole'])
--------------------------------------------------------------------------

    Molecular point group: c1
  Charge       = 0
  Multiplicity = 1
  Basis Set: AUG-CC-PVTZ
    Blend: AUG-CC-PVTZ
  Basis Set: (AUG-CC-PVTZ AUX)
    Blend: AUG-CC-PVTZ-JKFIT

    Orbital Energies [Eh]
    ---------------------

    Doubly Occupied:

       1A    -20.622910     2A    -20.560453     3A    -15.553743
       4A    -11.394453     5A    -11.286655     6A    -11.232748
       7A     -1.457176     8A     -1.359057     9A     -1.202891
      10A     -1.021403    11A     -0.905576    12A     -0.792289
      13A     -0.710661    14A     -0.701862    15A     -0.674480
      16A     -0.626144    17A     -0.609347    18A     -0.596235
      19A     -0.550370    20A     -0.532805    21A     -0.510238
      22A     -0.486226    23A     -0.461598    24A     -0.415669

  @DF-RHF Final Energy:  -321.99422898468578

   => Energetics <=

    Nuclear Repulsion Energy =            247.8142992028236051
    One-Electron Energy =                -931.0870776529778823
    Two-Electron Energy =                 361.2785494654685294
    Total Energy =                       -321.9942289846857761
  Basis Set: (AUG-CC-PVTZ AUX)
    Blend: AUG-CC-PVTZ-RI
    Molecular point group: c1

    Geometry (in Angstrom), charge = 0, multiplicity = 1:

       Center              X                  Y                   Z               Mass
    ------------   -----------------  -----------------  -----------------  -----------------
         O            1.430515149795    -1.018354960150    -0.509312806908    15.994914619570
         O            1.262906149795     1.042876039850     0.486735193092    15.994914619570
         N           -1.508235850205     1.165543039850    -0.016977806908    14.003074004430
         C           -0.766413650205    -0.035336860150    -0.342063906908    12.000000000000
         C           -1.339158850205    -1.242985960150     0.409657193092    12.000000000000
         C            0.730640149795     0.081596039850    -0.065578806908    12.000000000000
         H           -0.858178850205    -0.224807960150    -1.428292806908     1.007825032230
         H           -2.404081850205    -1.316749960150     0.186832193092     1.007825032230
         H           -0.845530350205    -2.179603060150     0.127909493092     1.007825032230
         H           -1.221344850205    -1.104992960150     1.491379193092     1.007825032230
         H           -1.088588850205     1.959894039850    -0.508909806908     1.007825032230
         H           -1.368355850205     1.368722039850     0.976389193092     1.007825032230
         H            2.366571149795    -0.836871960150    -0.275074806908     1.007825032230

  Basis Set: AUG-CC-PVTZ
    Blend: AUG-CC-PVTZ
  Basis Set: (AUG-CC-PVTZ AUX)
    Blend: AUG-CC-PVTZ-JKFIT
	 Reference Energy          =    -321.9942289846857761 [Eh]
	 Singles Energy            =      -0.0000000000000000 [Eh]
	 Same-Spin Energy          =      -0.3171736644422052 [Eh]
	 Opposite-Spin Energy      =      -1.0010376587057219 [Eh]
	 Correlation Energy        =      -1.3182113231479271 [Eh]
	 Total Energy              =    -323.3124403078336968 [Eh]

	 ================> DF-SCS-MP2 Energies <==================
	-----------------------------------------------------------
	 SCS Same-Spin Scale       =       0.3333333333333333 [-]
	 SCS Opposite-Spin Scale   =       1.2000000000000000 [-]
	 SCS Same-Spin Energy      =      -0.1057245548140684 [Eh]
	 SCS Opposite-Spin Energy  =      -1.2012451904468662 [Eh]
	 SCS Correlation Energy    =      -1.3069697452609346 [Eh]
	 SCS Total Energy          =    -323.3011987299466909 [Eh]
	-----------------------------------------------------------

  Dipole Moment: [D]
     X:     0.5749      Y:    -1.1241      Z:    -0.3095     Total:     1.2999

*** Psi4 exiting successfully. Buy a developer a beer!
