                               Psi4 1.3.2 release

  ==> Input File <==

--------------------------------------------------------------------------
#psi4
#
memory 32 gb

molecule  {
0 1
  O        1.4293010    -1.0173190    -0.5083850
  O        1.2616920     1.0439120     0.4876630
  N       -1.5094500     1.1665790    -0.0160500
  C       -0.7590880    -0.0423940    -0.3475120
  C       -1.3403730    -1.2419500     0.4105850
  C        0.8159871     0.2389626     0.0251705
  H       -0.8593930    -0.2237720    -1.4273650
  H       -2.4052960    -1.3157140     0.1877600
  H       -0.8411410    -2.1737420     0.1227770
  H       -1.2225590    -1.1039570     1.4923070
  H       -1.0898030     1.9609300    -0.5079820
  H       -1.3695700     1.3697580     0.9773170
  H        2.3653570    -0.8358360    -0.2741470
units angstrom
no_reorient  #important for SAPT in psi4, default
symmetry c1  #important for SAPT in psi4, default
}

set PROPERTIES_ORIGIN ["COM"]
properties('MP2/aug-cc-pvtz', properties = ['dipole'])
--------------------------------------------------------------------------

    Molecular point group: c1
  Charge       = 0
  Multiplicity = 1
  Basis Set: AUG-CC-PVTZ
    Blend: AUG-CC-PVTZ
  Basis Set: (AUG-CC-PVTZ AUX)
    Blend: AUG-CC-PVTZ-JKFIT

    Orbital Energies [Eh]
    ---------------------

    Doubly Occupied:

       1A    -20.596119     2A    -20.582129     3A    -15.550130
       4A    -11.372947     5A    -11.281096     6A    -11.224483
       7A     -1.572941     8A     -1.352146     9A     -1.193803
      10A     -1.001370    11A     -0.869933    12A     -0.775982
      13A     -0.730650    14A     -0.727211    15A     -0.691284
      16A     -0.656258    17A     -0.612759    18A     -0.589334
      19A     -0.560868    20A     -0.523943    21A     -0.512785
      22A     -0.497778    23A     -0.468928    24A     -0.385717

  @DF-RHF Final Energy:  -321.92299713414786

   => Energetics <=

    Nuclear Repulsion Energy =            248.7299954586345621
    One-Electron Energy =                -932.6447953185254391
    Two-Electron Energy =                 361.9918027257430140
    Total Energy =                       -321.9229971341478631
  Basis Set: (AUG-CC-PVTZ AUX)
    Blend: AUG-CC-PVTZ-RI
    Molecular point group: c1

    Geometry (in Angstrom), charge = 0, multiplicity = 1:

       Center              X                  Y                   Z               Mass
    ------------   -----------------  -----------------  -----------------  -----------------
         O            1.417636002722    -1.038385946777    -0.520489285566    15.994914619570
         O            1.250027002722     1.022845053223     0.475558714434    15.994914619570
         N           -1.521114997278     1.145512053223    -0.028154285566    14.003074004430
         C           -0.770752997278    -0.063460946777    -0.359616285566    12.000000000000
         C           -1.352037997278    -1.263016946777     0.398480714434    12.000000000000
         C            0.804322102722     0.217895653223     0.013066214434    12.000000000000
         H           -0.871057997278    -0.244838946777    -1.439469285566     1.007825032230
         H           -2.416960997278    -1.336780946777     0.175655714434     1.007825032230
         H           -0.852805997278    -2.194808946777     0.110672714434     1.007825032230
         H           -1.234223997278    -1.125023946777     1.480202714434     1.007825032230
         H           -1.101467997278     1.939863053223    -0.520086285566     1.007825032230
         H           -1.381234997278     1.348691053223     0.965212714434     1.007825032230
         H            2.353692002722    -0.856902946777    -0.286251285566     1.007825032230

  Basis Set: AUG-CC-PVTZ
    Blend: AUG-CC-PVTZ
  Basis Set: (AUG-CC-PVTZ AUX)
    Blend: AUG-CC-PVTZ-JKFIT
	 Reference Energy          =    -321.9229971341478631 [Eh]
	 Singles Energy            =      -0.0000000000000000 [Eh]
	 Same-Spin Energy          =      -0.3141697227625120 [Eh]
	 Opposite-Spin Energy      =      -0.9960270174522597 [Eh]
	 Correlation Energy        =      -1.3101967402147716 [Eh]
	 Total Energy              =    -323.2331938743626552 [Eh]

	 ================> DF-SCS-MP2 Energies <==================
	-----------------------------------------------------------
	 SCS Same-Spin Scale       =       0.3333333333333333 [-]
	 SCS Opposite-Spin Scale   =       1.2000000000000000 [-]
	 SCS Same-Spin Energy      =      -0.1047232409208373 [Eh]
	 SCS Opposite-Spin Energy  =      -1.1952324209427116 [Eh]
	 SCS Correlation Energy    =      -1.2999556618635491 [Eh]
	 SCS Total Energy          =    -323.2229527960113842 [Eh]
	-----------------------------------------------------------

  Dipole Moment: [D]
     X:     0.8878      Y:     0.2026      Z:     0.3571     Total:     0.9781

*** Psi4 exiting successfully. Buy a developer a beer!
