                               Psi4 1.3.2 release

  ==> Input File <==

--------------------------------------------------------------------------
#psi4
#
memory 32 gb

molecule  {
0 1
  O        1.4293010    -1.0173190    -0.5083850
  O        1.2616920     1.0439120     0.4876630
  N       -1.5094500     1.1665790    -0.0160500
  C       -0.7590880    -0.0423940    -0.3475120
  C       -1.3403730    -1.2419500     0.4105850
  C        0.7294260     0.0826320    -0.0646510
  H       -0.8593930    -0.2237720    -1.4273650
  H       -2.4052960    -1.3157140     0.1877600
  H       -0.8411410    -2.1737420     0.1227770
  H       -1.2225590    -1.1039570     1.4923070
  H       -1.0989939     1.9457581    -0.5390223
  H       -1.3860895     1.3390955     0.9852723
  H        2.3653570    -0.8358360    -0.2741470
units angstrom
no_reorient  #important for SAPT in psi4, default
symmetry c1  #important for SAPT in psi4, default
}

set PROPERTIES_ORIGIN ["COM"]
properties('MP2/aug-cc-pvtz', properties = ['dipole'])
--------------------------------------------------------------------------

    Molecular point group: c1
  Charge       = 0
  Multiplicity = 1
  Basis Set: AUG-CC-PVTZ
    Blend: AUG-CC-PVTZ
  Basis Set: (AUG-CC-PVTZ AUX)
    Blend: AUG-CC-PVTZ-JKFIT

    Orbital Energies [Eh]
    ---------------------

    Doubly Occupied:

       1A    -20.622697     2A    -20.560571     3A    -15.553101
       4A    -11.394474     5A    -11.285508     6A    -11.233021
       7A     -1.457295     8A     -1.359001     9A     -1.198964
      10A     -1.021283    11A     -0.906968    12A     -0.791264
      13A     -0.711062    14A     -0.702311    15A     -0.675212
      16A     -0.627135    17A     -0.607723    18A     -0.596676
      19A     -0.550766    20A     -0.529134    21A     -0.513418
      22A     -0.486179    23A     -0.461109    24A     -0.414321

  @DF-RHF Final Energy:  -321.99380632990506

   => Energetics <=

    Nuclear Repulsion Energy =            247.8293128772537557
    One-Electron Energy =                -931.1278552955103578
    Two-Electron Energy =                 361.3047360883515466
    Total Energy =                       -321.9938063299050555
  Basis Set: (AUG-CC-PVTZ AUX)
    Blend: AUG-CC-PVTZ-RI
    Molecular point group: c1

    Geometry (in Angstrom), charge = 0, multiplicity = 1:

       Center              X                  Y                   Z               Mass
    ------------   -----------------  -----------------  -----------------  -----------------
         O            1.429591898743    -1.016800204299    -0.508123734214    15.994914619570
         O            1.261982898743     1.044430795701     0.487924265786    15.994914619570
         N           -1.509159101257     1.167097795701    -0.015788734214    14.003074004430
         C           -0.758797101257    -0.041875204299    -0.347250734214    12.000000000000
         C           -1.340082101257    -1.241431204299     0.410846265786    12.000000000000
         C            0.729716898743     0.083150795701    -0.064389734214    12.000000000000
         H           -0.859102101257    -0.223253204299    -1.427103734214     1.007825032230
         H           -2.405005101257    -1.315195204299     0.188021265786     1.007825032230
         H           -0.840850101257    -2.173223204299     0.123038265786     1.007825032230
         H           -1.222268101257    -1.103438204299     1.492568265786     1.007825032230
         H           -1.098703001257     1.946276895701    -0.538761034214     1.007825032230
         H           -1.385798601257     1.339614295701     0.985533565786     1.007825032230
         H            2.365647898743    -0.835317204299    -0.273885734214     1.007825032230

  Basis Set: AUG-CC-PVTZ
    Blend: AUG-CC-PVTZ
  Basis Set: (AUG-CC-PVTZ AUX)
    Blend: AUG-CC-PVTZ-JKFIT
	 Reference Energy          =    -321.9938063299050555 [Eh]
	 Singles Energy            =      -0.0000000000000000 [Eh]
	 Same-Spin Energy          =      -0.3171845818922960 [Eh]
	 Opposite-Spin Energy      =      -1.0011709761179415 [Eh]
	 Correlation Energy        =      -1.3183555580102375 [Eh]
	 Total Energy              =    -323.3121618879152948 [Eh]

	 ================> DF-SCS-MP2 Energies <==================
	-----------------------------------------------------------
	 SCS Same-Spin Scale       =       0.3333333333333333 [-]
	 SCS Opposite-Spin Scale   =       1.2000000000000000 [-]
	 SCS Same-Spin Energy      =      -0.1057281939640987 [Eh]
	 SCS Opposite-Spin Energy  =      -1.2014051713415297 [Eh]
	 SCS Correlation Energy    =      -1.3071333653056283 [Eh]
	 SCS Total Energy          =    -323.3009396952106727 [Eh]
	-----------------------------------------------------------

  Dipole Moment: [D]
     X:     0.5544      Y:    -1.1598      Z:    -0.3344     Total:     1.3283

*** Psi4 exiting successfully. Buy a developer a beer!
