                               Psi4 1.3.2 release

  ==> Input File <==

--------------------------------------------------------------------------
#psi4
#
memory 32 gb

molecule  {
0 1
  O        1.4293010    -1.0173190    -0.5083850
  O        1.2616920     1.0439120     0.4876630
  N       -1.5094500     1.1665790    -0.0160500
  C       -0.7590880    -0.0423940    -0.3475120
  C       -1.3403730    -1.2419500     0.4105850
  C        0.5336077     0.0661845    -0.1018622
  H       -0.8593930    -0.2237720    -1.4273650
  H       -2.4052960    -1.3157140     0.1877600
  H       -0.8411410    -2.1737420     0.1227770
  H       -1.2225590    -1.1039570     1.4923070
  H       -1.0898030     1.9609300    -0.5079820
  H       -1.3695700     1.3697580     0.9773170
  H        2.3653570    -0.8358360    -0.2741470
units angstrom
no_reorient  #important for SAPT in psi4, default
symmetry c1  #important for SAPT in psi4, default
}

set PROPERTIES_ORIGIN ["COM"]
properties('MP2/aug-cc-pvtz', properties = ['dipole'])
--------------------------------------------------------------------------

    Molecular point group: c1
  Charge       = 0
  Multiplicity = 1
  Basis Set: AUG-CC-PVTZ
    Blend: AUG-CC-PVTZ
  Basis Set: (AUG-CC-PVTZ AUX)
    Blend: AUG-CC-PVTZ-JKFIT

    Orbital Energies [Eh]
    ---------------------

    Doubly Occupied:

       1A    -20.604603     2A    -20.552074     3A    -15.565509
       4A    -11.412715     5A    -11.289716     6A    -11.250820
       7A     -1.405717     8A     -1.293356     9A     -1.224669
      10A     -1.065734    11A     -0.948429    12A     -0.785848
      13A     -0.727462    14A     -0.683645    15A     -0.673872
      16A     -0.616444    17A     -0.606176    18A     -0.578223
      19A     -0.555135    20A     -0.531662    21A     -0.523475
      22A     -0.449974    23A     -0.448561    24A     -0.434789

  @DF-RHF Final Energy:  -321.91653875244850

   => Energetics <=

    Nuclear Repulsion Energy =            248.1609179207823672
    One-Electron Energy =                -931.6976981399465103
    Two-Electron Energy =                 361.6202414667156404
    Total Energy =                       -321.9165387524485027
  Basis Set: (AUG-CC-PVTZ AUX)
    Blend: AUG-CC-PVTZ-RI
    Molecular point group: c1

    Geometry (in Angstrom), charge = 0, multiplicity = 1:

       Center              X                  Y                   Z               Mass
    ------------   -----------------  -----------------  -----------------  -----------------
         O            1.455689244067    -1.015102496432    -0.503370451855    15.994914619570
         O            1.288080244067     1.046128503568     0.492677548145    15.994914619570
         N           -1.483061755933     1.168795503568    -0.011035451855    14.003074004430
         C           -0.732699755933    -0.040177496432    -0.342497451855    12.000000000000
         C           -1.313984755933    -1.239733496432     0.415599548145    12.000000000000
         C            0.559995944067     0.068401003568    -0.096847651855    12.000000000000
         H           -0.833004755933    -0.221555496432    -1.422350451855     1.007825032230
         H           -2.378907755933    -1.313497496432     0.192774548145     1.007825032230
         H           -0.814752755933    -2.171525496432     0.127791548145     1.007825032230
         H           -1.196170755933    -1.101740496432     1.497321548145     1.007825032230
         H           -1.063414755933     1.963146503568    -0.502967451855     1.007825032230
         H           -1.343181755933     1.371974503568     0.982331548145     1.007825032230
         H            2.391745244067    -0.833619496432    -0.269132451855     1.007825032230

  Basis Set: AUG-CC-PVTZ
    Blend: AUG-CC-PVTZ
  Basis Set: (AUG-CC-PVTZ AUX)
    Blend: AUG-CC-PVTZ-JKFIT
	 Reference Energy          =    -321.9165387524485027 [Eh]
	 Singles Energy            =      -0.0000000000000000 [Eh]
	 Same-Spin Energy          =      -0.3231156064691696 [Eh]
	 Opposite-Spin Energy      =      -1.0128905281439446 [Eh]
	 Correlation Energy        =      -1.3360061346131142 [Eh]
	 Total Energy              =    -323.2525448870616174 [Eh]

	 ================> DF-SCS-MP2 Energies <==================
	-----------------------------------------------------------
	 SCS Same-Spin Scale       =       0.3333333333333333 [-]
	 SCS Opposite-Spin Scale   =       1.2000000000000000 [-]
	 SCS Same-Spin Energy      =      -0.1077052021563899 [Eh]
	 SCS Opposite-Spin Energy  =      -1.2154686337727336 [Eh]
	 SCS Correlation Energy    =      -1.3231738359291234 [Eh]
	 SCS Total Energy          =    -323.2397125883776425 [Eh]
	-----------------------------------------------------------

  Dipole Moment: [D]
     X:    -0.5308      Y:    -1.1637      Z:    -0.3720     Total:     1.3320

*** Psi4 exiting successfully. Buy a developer a beer!
