                               Psi4 1.3.2 release

  ==> Input File <==

--------------------------------------------------------------------------
#psi4
#
memory 32 gb

molecule  {
0 1
  O        1.4293010    -1.0173190    -0.5083850
  O        1.2616920     1.0439120     0.4876630
  N       -1.5094500     1.1665790    -0.0160500
  C       -0.7590880    -0.0423940    -0.3475120
  C       -1.3403730    -1.2419500     0.4105850
  C        0.7294260     0.0826320    -0.0646510
  H       -0.8593930    -0.2237720    -1.4273650
  H       -2.4052960    -1.3157140     0.1877600
  H       -0.8411410    -2.1737420     0.1227770
  H       -1.2225590    -1.1039570     1.4923070
  H       -1.0898030     1.9609300    -0.5079820
  H       -1.3969027     1.3300566     0.7832121
  H        2.3653570    -0.8358360    -0.2741470
units angstrom
no_reorient  #important for SAPT in psi4, default
symmetry c1  #important for SAPT in psi4, default
}

set PROPERTIES_ORIGIN ["COM"]
properties('MP2/aug-cc-pvtz', properties = ['dipole'])
--------------------------------------------------------------------------

    Molecular point group: c1
  Charge       = 0
  Multiplicity = 1
  Basis Set: AUG-CC-PVTZ
    Blend: AUG-CC-PVTZ
  Basis Set: (AUG-CC-PVTZ AUX)
    Blend: AUG-CC-PVTZ-JKFIT

    Orbital Energies [Eh]
    ---------------------

    Doubly Occupied:

       1A    -20.623513     2A    -20.561712     3A    -15.530003
       4A    -11.395776     5A    -11.286195     6A    -11.233663
       7A     -1.458263     8A     -1.360217     9A     -1.232574
      10A     -1.036688    11A     -0.909938    12A     -0.804021
      13A     -0.713542    14A     -0.709488    15A     -0.681649
      16A     -0.633900    17A     -0.619905    18A     -0.603382
      19A     -0.551720    20A     -0.530789    21A     -0.516840
      22A     -0.487158    23A     -0.463203    24A     -0.419662

  @DF-RHF Final Energy:  -321.95317727334907

   => Energetics <=

    Nuclear Repulsion Energy =            248.9502131479792695
    One-Electron Energy =                -933.0791836893079108
    Two-Electron Energy =                 362.1757932679795431
    Total Energy =                       -321.9531772733490698
  Basis Set: (AUG-CC-PVTZ AUX)
    Blend: AUG-CC-PVTZ-RI
    Molecular point group: c1

    Geometry (in Angstrom), charge = 0, multiplicity = 1:

       Center              X                  Y                   Z               Mass
    ------------   -----------------  -----------------  -----------------  -----------------
         O            1.429610259632    -1.016869616451    -0.506188162853    15.994914619570
         O            1.262001259632     1.044361383549     0.489859837147    15.994914619570
         N           -1.509140740368     1.167028383549    -0.013853162853    14.003074004430
         C           -0.758778740368    -0.041944616451    -0.345315162853    12.000000000000
         C           -1.340063740368    -1.241500616451     0.412781837147    12.000000000000
         C            0.729735259632     0.083081383549    -0.062454162853    12.000000000000
         H           -0.859083740368    -0.223322616451    -1.425168162853     1.007825032230
         H           -2.404986740368    -1.315264616451     0.189956837147     1.007825032230
         H           -0.840831740368    -2.173292616451     0.124973837147     1.007825032230
         H           -1.222249740368    -1.103507616451     1.494503837147     1.007825032230
         H           -1.089493740368     1.961379383549    -0.505785162853     1.007825032230
         H           -1.396593440368     1.330505983549     0.785408937147     1.007825032230
         H            2.365666259632    -0.835386616451    -0.271950162853     1.007825032230

  Basis Set: AUG-CC-PVTZ
    Blend: AUG-CC-PVTZ
  Basis Set: (AUG-CC-PVTZ AUX)
    Blend: AUG-CC-PVTZ-JKFIT
	 Reference Energy          =    -321.9531772733490698 [Eh]
	 Singles Energy            =      -0.0000000000000000 [Eh]
	 Same-Spin Energy          =      -0.3161947280771583 [Eh]
	 Opposite-Spin Energy      =      -0.9984976578830418 [Eh]
	 Correlation Energy        =      -1.3146923859602002 [Eh]
	 Total Energy              =    -323.2678696593092695 [Eh]

	 ================> DF-SCS-MP2 Energies <==================
	-----------------------------------------------------------
	 SCS Same-Spin Scale       =       0.3333333333333333 [-]
	 SCS Opposite-Spin Scale   =       1.2000000000000000 [-]
	 SCS Same-Spin Energy      =      -0.1053982426923861 [Eh]
	 SCS Opposite-Spin Energy  =      -1.1981971894596501 [Eh]
	 SCS Correlation Energy    =      -1.3035954321520362 [Eh]
	 SCS Total Energy          =    -323.2567727055010778 [Eh]
	-----------------------------------------------------------

  Dipole Moment: [D]
     X:     0.6061      Y:    -1.1648      Z:    -0.3866     Total:     1.3688

*** Psi4 exiting successfully. Buy a developer a beer!
