                               Psi4 1.4a3.dev225

  ==> Input File <==

--------------------------------------------------------------------------
#psi4
#
memory 32 gb

molecule  {
0 1
  O       -1.6162430     0.8314800    -0.3809140
  O       -1.1510000    -1.1772170     0.5605200
  N        1.5455560    -1.0219050    -0.2870820
  C        0.6665940     0.1335400    -0.4023590
  C        1.1923300     1.2755990     0.4679010
  C       -0.7726990    -0.1733030    -0.0203720
  H        0.6629161     0.4686655    -1.4669089
  H        2.2238070     1.4912930     0.1836440
  H        0.5830780     2.1739270     0.3501650
  H        1.1794500     0.9804810     1.5223570
  H        1.2015560    -1.7655910    -0.8946420
  H        1.4549450    -1.3946670     0.6589060
  H       -2.5041220     0.5561110    -0.0708870
units angstrom
no_reorient  #important for SAPT in psi4, default
symmetry c1  #important for SAPT in psi4, default
}

set PROPERTIES_ORIGIN ["COM"]
properties('MP2/aug-cc-pvtz', properties = ['dipole'])
--------------------------------------------------------------------------

    Molecular point group: c1
  Charge       = 0
  Multiplicity = 1
  Basis Set: AUG-CC-PVTZ
    Blend: AUG-CC-PVTZ
  Basis Set: (AUG-CC-PVTZ AUX)
    Blend: AUG-CC-PVTZ-JKFIT

    Orbital Energies [Eh]
    ---------------------

    Doubly Occupied:

       1A    -20.621917     2A    -20.558383     3A    -15.552239
       4A    -11.390823     5A    -11.285968     6A    -11.231632
       7A     -1.465300     8A     -1.362721     9A     -1.201310
      10A     -1.022941    11A     -0.907213    12A     -0.793062
      13A     -0.712957    14A     -0.705963    15A     -0.671936
      16A     -0.632361    17A     -0.608934    18A     -0.595595
      19A     -0.550116    20A     -0.532439    21A     -0.509671
      22A     -0.487059    23A     -0.462069    24A     -0.415149

  @DF-RHF Final Energy:  -321.99727423818172

   => Energetics <=

    Nuclear Repulsion Energy =            248.7650223431247412
    One-Electron Energy =                -932.9690765321604431
    Two-Electron Energy =                 362.2067799508539565
    Total Energy =                       -321.9972742381817170
  Basis Set: (AUG-CC-PVTZ AUX)
    Blend: AUG-CC-PVTZ-RI
    Molecular point group: c1

    Geometry (in Angstrom), charge = 0, multiplicity = 1:

       Center              X                  Y                   Z               Mass
    ------------   -----------------  -----------------  -----------------  -----------------
         O           -1.562952700445     0.859329699515    -0.377316352754    15.994914619570
         O           -1.097709700445    -1.149367300485     0.564117647246    15.994914619570
         N            1.598846299555    -0.994055300485    -0.283484352754    14.003074004430
         C            0.719884299555     0.161389699515    -0.398761352754    12.000000000000
         C            1.245620299555     1.303448699515     0.471498647246    12.000000000000
         C           -0.719408700445    -0.145453300485    -0.016774352754    12.000000000000
         H            0.716206399555     0.496515199515    -1.463311252754     1.007825032230
         H            2.277097299555     1.519142699515     0.187241647246     1.007825032230
         H            0.636368299555     2.201776699515     0.353762647246     1.007825032230
         H            1.232740299555     1.008330699515     1.525954647246     1.007825032230
         H            1.254846299555    -1.737741300485    -0.891044352754     1.007825032230
         H            1.508235299555    -1.366817300485     0.662503647246     1.007825032230
         H           -2.450831700445     0.583960699515    -0.067289352754     1.007825032230

  Basis Set: AUG-CC-PVTZ
    Blend: AUG-CC-PVTZ
  Basis Set: (AUG-CC-PVTZ AUX)
    Blend: AUG-CC-PVTZ-JKFIT
	 Reference Energy          =    -321.9972742381817170 [Eh]
	 Singles Energy            =      -0.0000000000000000 [Eh]
	 Same-Spin Energy          =      -0.3167616512635015 [Eh]
	 Opposite-Spin Energy      =      -0.9998036847796583 [Eh]
	 Correlation Energy        =      -1.3165653360431597 [Eh]
	 Total Energy              =    -323.3138395742248576 [Eh]

	 ================> DF-SCS-MP2 Energies <==================
	-----------------------------------------------------------
	 SCS Same-Spin Scale       =       0.3333333333333333 [-]
	 SCS Opposite-Spin Scale   =       1.2000000000000000 [-]
	 SCS Same-Spin Energy      =      -0.1055872170878338 [Eh]
	 SCS Opposite-Spin Energy  =      -1.1997644217355898 [Eh]
	 SCS Correlation Energy    =      -1.3053516388234236 [Eh]
	 SCS Total Energy          =    -323.3026258770051413 [Eh]
	-----------------------------------------------------------

  Dipole Moment: [D]
     X:    -0.7832      Y:     1.0474      Z:    -0.3423     Total:     1.3519

*** Psi4 exiting successfully. Buy a developer a beer!
