                               Psi4 1.3.2 release

  ==> Input File <==

--------------------------------------------------------------------------
#psi4
#
memory 32 gb

molecule  {
0 1
  O        1.3669954    -1.0452632    -0.5315286
  O        1.2616920     1.0439120     0.4876630
  N       -1.5094500     1.1665790    -0.0160500
  C       -0.7447021    -0.1133057    -0.3806741
  C       -1.3403730    -1.2419500     0.4105850
  C        0.7294260     0.0826320    -0.0646510
  H       -0.8593930    -0.2237720    -1.4273650
  H       -2.4052960    -1.3157140     0.1877600
  H       -0.8411410    -2.1737420     0.1227770
  H       -1.2225590    -1.1039570     1.4923070
  H       -1.0898030     1.9609300    -0.5079820
  H       -1.3695700     1.3697580     0.9773170
  H        2.3653570    -0.8358360    -0.2741470
units angstrom
no_reorient  #important for SAPT in psi4, default
symmetry c1  #important for SAPT in psi4, default
}

set PROPERTIES_ORIGIN ["COM"]
properties('MP2/aug-cc-pvtz', properties = ['dipole'])
--------------------------------------------------------------------------

    Molecular point group: c1
  Charge       = 0
  Multiplicity = 1
  Basis Set: AUG-CC-PVTZ
    Blend: AUG-CC-PVTZ
  Basis Set: (AUG-CC-PVTZ AUX)
    Blend: AUG-CC-PVTZ-JKFIT

    Orbital Energies [Eh]
    ---------------------

    Doubly Occupied:

       1A    -20.631468     2A    -20.567506     3A    -15.547824
       4A    -11.398277     5A    -11.283017     6A    -11.231719
       7A     -1.453442     8A     -1.360625     9A     -1.178068
      10A     -1.026040    11A     -0.906354    12A     -0.784049
      13A     -0.710045    14A     -0.699574    15A     -0.663203
      16A     -0.626120    17A     -0.605770    18A     -0.592566
      19A     -0.552390    20A     -0.529720    21A     -0.513698
      22A     -0.491458    23A     -0.462112    24A     -0.409176

  @DF-RHF Final Energy:  -321.97558927909142

   => Energetics <=

    Nuclear Repulsion Energy =            247.5340473144586610
    One-Electron Energy =                -930.5708294573798867
    Two-Electron Energy =                 361.0611928638297741
    Total Energy =                       -321.9755892790914231
  Basis Set: (AUG-CC-PVTZ AUX)
    Blend: AUG-CC-PVTZ-RI
    Molecular point group: c1

    Geometry (in Angstrom), charge = 0, multiplicity = 1:

       Center              X                  Y                   Z               Mass
    ------------   -----------------  -----------------  -----------------  -----------------
         O            1.376248131116    -1.030687749943    -0.522902607834    15.994914619570
         O            1.270944731116     1.058487450057     0.496288992166    15.994914619570
         N           -1.500197268884     1.181154450057    -0.007424007834    14.003074004430
         C           -0.735449368884    -0.098730249943    -0.372048107834    12.000000000000
         C           -1.331120268884    -1.227374549943     0.419210992166    12.000000000000
         C            0.738678731116     0.097207450057    -0.056025007834    12.000000000000
         H           -0.850140268884    -0.209196549943    -1.418739007834     1.007825032230
         H           -2.396043268884    -1.301138549943     0.196385992166     1.007825032230
         H           -0.831888268884    -2.159166549943     0.131402992166     1.007825032230
         H           -1.213306268884    -1.089381549943     1.500932992166     1.007825032230
         H           -1.080550268884     1.975505450057    -0.499356007834     1.007825032230
         H           -1.360317268884     1.384333450057     0.985942992166     1.007825032230
         H            2.374609731116    -0.821260549943    -0.265521007834     1.007825032230

  Basis Set: AUG-CC-PVTZ
    Blend: AUG-CC-PVTZ
  Basis Set: (AUG-CC-PVTZ AUX)
    Blend: AUG-CC-PVTZ-JKFIT
	 Reference Energy          =    -321.9755892790914231 [Eh]
	 Singles Energy            =      -0.0000000000000000 [Eh]
	 Same-Spin Energy          =      -0.3188056613621952 [Eh]
	 Opposite-Spin Energy      =      -1.0053929825908463 [Eh]
	 Correlation Energy        =      -1.3241986439530415 [Eh]
	 Total Energy              =    -323.2997879230444482 [Eh]

	 ================> DF-SCS-MP2 Energies <==================
	-----------------------------------------------------------
	 SCS Same-Spin Scale       =       0.3333333333333333 [-]
	 SCS Opposite-Spin Scale   =       1.2000000000000000 [-]
	 SCS Same-Spin Energy      =      -0.1062685537873984 [Eh]
	 SCS Opposite-Spin Energy  =      -1.2064715791090155 [Eh]
	 SCS Correlation Energy    =      -1.3127401328964139 [Eh]
	 SCS Total Energy          =    -323.2883294119878315 [Eh]
	-----------------------------------------------------------

  Dipole Moment: [D]
     X:     0.8671      Y:    -1.2948      Z:    -0.3199     Total:     1.5908

*** Psi4 exiting successfully. Buy a developer a beer!
