                               Psi4 1.3.2 release

  ==> Input File <==

--------------------------------------------------------------------------
#psi4
#
memory 32 gb

molecule  {
0 1
  O        1.4293010    -1.0173190    -0.5083850
  O        1.2616920     1.0439120     0.4876630
  N       -1.5094500     1.1665790    -0.0160500
  C       -0.7590880    -0.0423940    -0.3475120
  C       -1.3403730    -1.2419500     0.4105850
  C        0.7294260     0.0826320    -0.0646510
  H       -0.8593930    -0.2237720    -1.4273650
  H       -2.4052960    -1.3157140     0.1877600
  H       -0.8411410    -2.1737420     0.1227770
  H       -1.2225590    -1.1039570     1.4923070
  H       -1.0875847     1.9645725    -0.5001268
  H       -1.3654660     1.3773864     0.9751387
  H        2.3653570    -0.8358360    -0.2741470
units angstrom
no_reorient  #important for SAPT in psi4, default
symmetry c1  #important for SAPT in psi4, default
}

set PROPERTIES_ORIGIN ["COM"]
properties('MP2/aug-cc-pvtz', properties = ['dipole'])
--------------------------------------------------------------------------

    Molecular point group: c1
  Charge       = 0
  Multiplicity = 1
  Basis Set: AUG-CC-PVTZ
    Blend: AUG-CC-PVTZ
  Basis Set: (AUG-CC-PVTZ AUX)
    Blend: AUG-CC-PVTZ-JKFIT

    Orbital Energies [Eh]
    ---------------------

    Doubly Occupied:

       1A    -20.623074     2A    -20.561123     3A    -15.553345
       4A    -11.395109     5A    -11.286246     6A    -11.233047
       7A     -1.457732     8A     -1.359539     9A     -1.199298
      10A     -1.022485    11A     -0.907128    12A     -0.792704
      13A     -0.711161    14A     -0.702287    15A     -0.671774
      16A     -0.626187    17A     -0.609011    18A     -0.596147
      19A     -0.551057    20A     -0.529925    21A     -0.512385
      22A     -0.486696    23A     -0.461814    24A     -0.416764

  @DF-RHF Final Energy:  -321.99426132134846

   => Energetics <=

    Nuclear Repulsion Energy =            247.8090489044566596
    One-Electron Energy =                -931.0745452621378035
    Two-Electron Energy =                 361.2712350363327118
    Total Energy =                       -321.9942613213484606
  Basis Set: (AUG-CC-PVTZ AUX)
    Blend: AUG-CC-PVTZ-RI
    Molecular point group: c1

    Geometry (in Angstrom), charge = 0, multiplicity = 1:

       Center              X                  Y                   Z               Mass
    ------------   -----------------  -----------------  -----------------  -----------------
         O            1.429229358613    -1.017446511444    -0.508449256039    15.994914619570
         O            1.261620358613     1.043784488556     0.487598743961    15.994914619570
         N           -1.509521641387     1.166451488556    -0.016114256039    14.003074004430
         C           -0.759159641387    -0.042521511444    -0.347576256039    12.000000000000
         C           -1.340444641387    -1.242077511444     0.410520743961    12.000000000000
         C            0.729354358613     0.082504488556    -0.064715256039    12.000000000000
         H           -0.859464641387    -0.223899511444    -1.427429256039     1.007825032230
         H           -2.405367641387    -1.315841511444     0.187695743961     1.007825032230
         H           -0.841212641387    -2.173869511444     0.122712743961     1.007825032230
         H           -1.222630641387    -1.104084511444     1.492242743961     1.007825032230
         H           -1.087656341387     1.964444988556    -0.500191056039     1.007825032230
         H           -1.365537641387     1.377258888556     0.975074443961     1.007825032230
         H            2.365285358613    -0.835963511444    -0.274211256039     1.007825032230

  Basis Set: AUG-CC-PVTZ
    Blend: AUG-CC-PVTZ
  Basis Set: (AUG-CC-PVTZ AUX)
    Blend: AUG-CC-PVTZ-JKFIT
	 Reference Energy          =    -321.9942613213484606 [Eh]
	 Singles Energy            =      -0.0000000000000000 [Eh]
	 Same-Spin Energy          =      -0.3171612458505600 [Eh]
	 Opposite-Spin Energy      =      -1.0011560110691127 [Eh]
	 Correlation Energy        =      -1.3183172569196726 [Eh]
	 Total Energy              =    -323.3125785782681305 [Eh]

	 ================> DF-SCS-MP2 Energies <==================
	-----------------------------------------------------------
	 SCS Same-Spin Scale       =       0.3333333333333333 [-]
	 SCS Opposite-Spin Scale   =       1.2000000000000000 [-]
	 SCS Same-Spin Energy      =      -0.1057204152835200 [Eh]
	 SCS Opposite-Spin Energy  =      -1.2013872132829351 [Eh]
	 SCS Correlation Energy    =      -1.3071076285664551 [Eh]
	 SCS Total Energy          =    -323.3013689499148882 [Eh]
	-----------------------------------------------------------

  Dipole Moment: [D]
     X:     0.6067      Y:    -1.1416      Z:    -0.3116     Total:     1.3298

*** Psi4 exiting successfully. Buy a developer a beer!
