                               Psi4 1.3.2 release

  ==> Input File <==

--------------------------------------------------------------------------
#psi4
#
memory 32 gb

molecule  {
0 1
  O        1.4293010    -1.0173190    -0.5083850
  O        1.2616920     1.0439120     0.4876630
  N       -1.5390311     1.1387006     0.0147452
  C       -0.7590880    -0.0423940    -0.3475120
  C       -1.3765972    -1.2092787     0.4326164
  C        0.7294260     0.0826320    -0.0646510
  H       -0.8593930    -0.2237720    -1.4273650
  H       -2.4052960    -1.3157140     0.1877600
  H       -0.8411410    -2.1737420     0.1227770
  H       -1.2225590    -1.1039570     1.4923070
  H       -1.0898030     1.9609300    -0.5079820
  H       -1.3695700     1.3697580     0.9773170
  H        2.3653570    -0.8358360    -0.2741470
units angstrom
no_reorient  #important for SAPT in psi4, default
symmetry c1  #important for SAPT in psi4, default
}

set PROPERTIES_ORIGIN ["COM"]
properties('MP2/aug-cc-pvtz', properties = ['dipole'])
--------------------------------------------------------------------------

    Molecular point group: c1
  Charge       = 0
  Multiplicity = 1
  Basis Set: AUG-CC-PVTZ
    Blend: AUG-CC-PVTZ
  Basis Set: (AUG-CC-PVTZ AUX)
    Blend: AUG-CC-PVTZ-JKFIT

    Orbital Energies [Eh]
    ---------------------

    Doubly Occupied:

       1A    -20.624031     2A    -20.562638     3A    -15.556825
       4A    -11.396995     5A    -11.286215     6A    -11.231840
       7A     -1.458722     8A     -1.360688     9A     -1.199356
      10A     -1.018547    11A     -0.909419    12A     -0.793455
      13A     -0.711559    14A     -0.704470    15A     -0.663961
      16A     -0.623896    17A     -0.611805    18A     -0.599446
      19A     -0.559261    20A     -0.518450    21A     -0.506686
      22A     -0.485981    23A     -0.464114    24A     -0.419976

  @DF-RHF Final Energy:  -321.98643860140265

   => Energetics <=

    Nuclear Repulsion Energy =            247.6532081943776689
    One-Electron Energy =                -930.7426188191919891
    Two-Electron Energy =                 361.1029720234116098
    Total Energy =                       -321.9864386014026536
  Basis Set: (AUG-CC-PVTZ AUX)
    Blend: AUG-CC-PVTZ-RI
    Molecular point group: c1

    Geometry (in Angstrom), charge = 0, multiplicity = 1:

       Center              X                  Y                   Z               Mass
    ------------   -----------------  -----------------  -----------------  -----------------
         O            1.438834196373    -1.017337729344    -0.516196599423    15.994914619570
         O            1.271225196373     1.043893270656     0.479851400577    15.994914619570
         N           -1.529497903627     1.138681870656     0.006933600577    14.003074004430
         C           -0.749554803627    -0.042412729344    -0.355323599423    12.000000000000
         C           -1.367064003627    -1.209297429344     0.424804800577    12.000000000000
         C            0.738959196373     0.082613270656    -0.072462599423    12.000000000000
         H           -0.849859803627    -0.223790729344    -1.435176599423     1.007825032230
         H           -2.395762803627    -1.315732729344     0.179948400577     1.007825032230
         H           -0.831607803627    -2.173760729344     0.114965400577     1.007825032230
         H           -1.213025803627    -1.103975729344     1.484495400577     1.007825032230
         H           -1.080269803627     1.960911270656    -0.515793599423     1.007825032230
         H           -1.360036803627     1.369739270656     0.969505400577     1.007825032230
         H            2.374890196373    -0.835854729344    -0.281958599423     1.007825032230

  Basis Set: AUG-CC-PVTZ
    Blend: AUG-CC-PVTZ
  Basis Set: (AUG-CC-PVTZ AUX)
    Blend: AUG-CC-PVTZ-JKFIT
	 Reference Energy          =    -321.9864386014026536 [Eh]
	 Singles Energy            =      -0.0000000000000000 [Eh]
	 Same-Spin Energy          =      -0.3174860513931225 [Eh]
	 Opposite-Spin Energy      =      -1.0022259702080738 [Eh]
	 Correlation Energy        =      -1.3197120216011964 [Eh]
	 Total Energy              =    -323.3061506230038731 [Eh]

	 ================> DF-SCS-MP2 Energies <==================
	-----------------------------------------------------------
	 SCS Same-Spin Scale       =       0.3333333333333333 [-]
	 SCS Opposite-Spin Scale   =       1.2000000000000000 [-]
	 SCS Same-Spin Energy      =      -0.1058286837977075 [Eh]
	 SCS Opposite-Spin Energy  =      -1.2026711642496886 [Eh]
	 SCS Correlation Energy    =      -1.3084998480473962 [Eh]
	 SCS Total Energy          =    -323.2949384494500578 [Eh]
	-----------------------------------------------------------

  Dipole Moment: [D]
     X:     0.6613      Y:    -1.0966      Z:    -0.3415     Total:     1.3253

*** Psi4 exiting successfully. Buy a developer a beer!
