                               Psi4 1.4a3.dev225

  ==> Input File <==

--------------------------------------------------------------------------
#psi4
#
memory 32 gb

molecule  {
0 1
  O       -1.6162430     0.8314800    -0.3809140
  O       -1.1510000    -1.1772170     0.5605200
  N        1.5455560    -1.0219050    -0.2870820
  C        0.6786649     0.1176722    -0.4007759
  C        1.1923300     1.2755990     0.4679010
  C       -0.7726990    -0.1733030    -0.0203720
  H        0.6629820     0.4626600    -1.4478320
  H        2.2238070     1.4912930     0.1836440
  H        0.5830780     2.1739270     0.3501650
  H        1.1794500     0.9804810     1.5223570
  H        1.2015560    -1.7655910    -0.8946420
  H        1.4549450    -1.3946670     0.6589060
  H       -2.5041220     0.5561110    -0.0708870
units angstrom
no_reorient  #important for SAPT in psi4, default
symmetry c1  #important for SAPT in psi4, default
}

set PROPERTIES_ORIGIN ["COM"]
properties('MP2/aug-cc-pvtz', properties = ['dipole'])
--------------------------------------------------------------------------

    Molecular point group: c1
  Charge       = 0
  Multiplicity = 1
  Basis Set: AUG-CC-PVTZ
    Blend: AUG-CC-PVTZ
  Basis Set: (AUG-CC-PVTZ AUX)
    Blend: AUG-CC-PVTZ-JKFIT

    Orbital Energies [Eh]
    ---------------------

    Doubly Occupied:

       1A    -20.621893     2A    -20.557411     3A    -15.552611
       4A    -11.389826     5A    -11.284016     6A    -11.231313
       7A     -1.464677     8A     -1.362143     9A     -1.207294
      10A     -1.021312    11A     -0.905298    12A     -0.794722
      13A     -0.712949    14A     -0.706552    15A     -0.674523
      16A     -0.632000    17A     -0.610039    18A     -0.596382
      19A     -0.549261    20A     -0.535873    21A     -0.508015
      22A     -0.486274    23A     -0.462265    24A     -0.414209

  @DF-RHF Final Energy:  -321.99765886237151

   => Energetics <=

    Nuclear Repulsion Energy =            248.8803308534596681
    One-Electron Energy =                -933.1942663397591105
    Two-Electron Energy =                 362.3162766239279335
    Total Energy =                       -321.9976588623715088
  Basis Set: (AUG-CC-PVTZ AUX)
    Blend: AUG-CC-PVTZ-RI
    Molecular point group: c1

    Geometry (in Angstrom), charge = 0, multiplicity = 1:

       Center              X                  Y                   Z               Mass
    ------------   -----------------  -----------------  -----------------  -----------------
         O           -1.564580111941     0.861536001763    -0.377745598951    15.994914619570
         O           -1.099337111941    -1.147160998237     0.563688401049    15.994914619570
         N            1.597218888059    -0.991848998237    -0.283913598951    14.003074004430
         C            0.730327788059     0.147728201763    -0.397607498951    12.000000000000
         C            1.243992888059     1.305655001763     0.471069401049    12.000000000000
         C           -0.721036111941    -0.143246998237    -0.017203598951    12.000000000000
         H            0.714644888059     0.492716001763    -1.444663598951     1.007825032230
         H            2.275469888059     1.521349001763     0.186812401049     1.007825032230
         H            0.634740888059     2.203983001763     0.353333401049     1.007825032230
         H            1.231112888059     1.010537001763     1.525525401049     1.007825032230
         H            1.253218888059    -1.735534998237    -0.891473598951     1.007825032230
         H            1.506607888059    -1.364610998237     0.662074401049     1.007825032230
         H           -2.452459111941     0.586167001763    -0.067718598951     1.007825032230

  Basis Set: AUG-CC-PVTZ
    Blend: AUG-CC-PVTZ
  Basis Set: (AUG-CC-PVTZ AUX)
    Blend: AUG-CC-PVTZ-JKFIT
	 Reference Energy          =    -321.9976588623715088 [Eh]
	 Singles Energy            =      -0.0000000000000000 [Eh]
	 Same-Spin Energy          =      -0.3167544962680064 [Eh]
	 Opposite-Spin Energy      =      -0.9995047434412982 [Eh]
	 Correlation Energy        =      -1.3162592397093047 [Eh]
	 Total Energy              =    -323.3139181020808337 [Eh]

	 ================> DF-SCS-MP2 Energies <==================
	-----------------------------------------------------------
	 SCS Same-Spin Scale       =       0.3333333333333333 [-]
	 SCS Opposite-Spin Scale   =       1.2000000000000000 [-]
	 SCS Same-Spin Energy      =      -0.1055848320893355 [Eh]
	 SCS Opposite-Spin Energy  =      -1.1994056921295579 [Eh]
	 SCS Correlation Energy    =      -1.3049905242188935 [Eh]
	 SCS Total Energy          =    -323.3026493865904172 [Eh]
	-----------------------------------------------------------

  Dipole Moment: [D]
     X:    -0.7504      Y:     1.0126      Z:    -0.3544     Total:     1.3092

*** Psi4 exiting successfully. Buy a developer a beer!
