                               Psi4 1.3.2 release

  ==> Input File <==

--------------------------------------------------------------------------
#psi4
#
memory 32 gb

molecule  {
0 1
  O        1.4293010    -1.0173190    -0.5083850
  O        1.2616920     1.0439120     0.4876630
  N       -1.5730579     1.1310761    -0.0393775
  C       -0.7590880    -0.0423940    -0.3475120
  C       -1.3403730    -1.2419500     0.4105850
  C        0.7385642     0.0080789    -0.0909852
  H       -0.8593930    -0.2237720    -1.4273650
  H       -2.4052960    -1.3157140     0.1877600
  H       -0.8411410    -2.1737420     0.1227770
  H       -1.2225590    -1.1039570     1.4923070
  H       -1.0898030     1.9609300    -0.5079820
  H       -1.3695700     1.3697580     0.9773170
  H        2.3653570    -0.8358360    -0.2741470
units angstrom
no_reorient  #important for SAPT in psi4, default
symmetry c1  #important for SAPT in psi4, default
}

set PROPERTIES_ORIGIN ["COM"]
properties('MP2/aug-cc-pvtz', properties = ['dipole'])
--------------------------------------------------------------------------

    Molecular point group: c1
  Charge       = 0
  Multiplicity = 1
  Basis Set: AUG-CC-PVTZ
    Blend: AUG-CC-PVTZ
  Basis Set: (AUG-CC-PVTZ AUX)
    Blend: AUG-CC-PVTZ-JKFIT

    Orbital Energies [Eh]
    ---------------------

    Doubly Occupied:

       1A    -20.645327     2A    -20.547344     3A    -15.566030
       4A    -11.401565     5A    -11.286415     6A    -11.232357
       7A     -1.488942     8A     -1.326261     9A     -1.193500
      10A     -1.021908    11A     -0.915869    12A     -0.811615
      13A     -0.719014    14A     -0.707121    15A     -0.665498
      16A     -0.637946    17A     -0.602337    18A     -0.582427
      19A     -0.545681    20A     -0.522625    21A     -0.508218
      22A     -0.465084    23A     -0.452559    24A     -0.426838

  @DF-RHF Final Energy:  -321.97365166001737

   => Energetics <=

    Nuclear Repulsion Energy =            247.1587042489321675
    One-Electron Energy =                -929.7197485402705297
    Two-Electron Energy =                 360.5873926313209950
    Total Energy =                       -321.9736516600173672
  Basis Set: (AUG-CC-PVTZ AUX)
    Blend: AUG-CC-PVTZ-RI
    Molecular point group: c1

    Geometry (in Angstrom), charge = 0, multiplicity = 1:

       Center              X                  Y                   Z               Mass
    ------------   -----------------  -----------------  -----------------  -----------------
         O            1.438072031625    -1.001689267063    -0.501167893493    15.994914619570
         O            1.270463031625     1.059541732937     0.494880106507    15.994914619570
         N           -1.564286868375     1.146705832937    -0.032160393493    14.003074004430
         C           -0.750316968375    -0.026764267063    -0.340294893493    12.000000000000
         C           -1.331601968375    -1.226320267063     0.417802106507    12.000000000000
         C            0.747335231625     0.023708632937    -0.083768093493    12.000000000000
         H           -0.850621968375    -0.208142267063    -1.420147893493     1.007825032230
         H           -2.396524968375    -1.300084267063     0.194977106507     1.007825032230
         H           -0.832369968375    -2.158112267063     0.129994106507     1.007825032230
         H           -1.213787968375    -1.088327267063     1.499524106507     1.007825032230
         H           -1.081031968375     1.976559732937    -0.500764893493     1.007825032230
         H           -1.360798968375     1.385387732937     0.984534106507     1.007825032230
         H            2.374128031625    -0.820206267063    -0.266929893493     1.007825032230

  Basis Set: AUG-CC-PVTZ
    Blend: AUG-CC-PVTZ
  Basis Set: (AUG-CC-PVTZ AUX)
    Blend: AUG-CC-PVTZ-JKFIT
	 Reference Energy          =    -321.9736516600173672 [Eh]
	 Singles Energy            =      -0.0000000000000000 [Eh]
	 Same-Spin Energy          =      -0.3189895700545756 [Eh]
	 Opposite-Spin Energy      =      -1.0049054559733732 [Eh]
	 Correlation Energy        =      -1.3238950260279490 [Eh]
	 Total Energy              =    -323.2975466860453366 [Eh]

	 ================> DF-SCS-MP2 Energies <==================
	-----------------------------------------------------------
	 SCS Same-Spin Scale       =       0.3333333333333333 [-]
	 SCS Opposite-Spin Scale   =       1.2000000000000000 [-]
	 SCS Same-Spin Energy      =      -0.1063298566848585 [Eh]
	 SCS Opposite-Spin Energy  =      -1.2058865471680478 [Eh]
	 SCS Correlation Energy    =      -1.3122164038529063 [Eh]
	 SCS Total Energy          =    -323.2858680638702822 [Eh]
	-----------------------------------------------------------

  Dipole Moment: [D]
     X:     0.8472      Y:    -1.6404      Z:    -0.5386     Total:     1.9232

*** Psi4 exiting successfully. Buy a developer a beer!
