                               Psi4 1.4a3.dev225

  ==> Input File <==

--------------------------------------------------------------------------
#psi4
#
memory 32 gb

molecule  {
0 1
  O       -1.6162430     0.8314800    -0.3809140
  O       -1.1510000    -1.1772170     0.5605200
  N        1.5455560    -1.0219050    -0.2870820
  C        0.6665940     0.1335400    -0.4023590
  C        1.1923300     1.2755990     0.4679010
  C       -0.7726990    -0.1733030    -0.0203720
  H        0.6629820     0.4626600    -1.4478320
  H        2.2238070     1.4912930     0.1836440
  H        0.5830780     2.1739270     0.3501650
  H        1.1794500     0.9804810     1.5223570
  H        1.2015560    -1.7655910    -0.8946420
  H        1.4549450    -1.3946670     0.6589060
  H       -2.4588191     0.5701614    -0.0867057
units angstrom
no_reorient  #important for SAPT in psi4, default
symmetry c1  #important for SAPT in psi4, default
}

set PROPERTIES_ORIGIN ["COM"]
properties('MP2/aug-cc-pvtz', properties = ['dipole'])
--------------------------------------------------------------------------

    Molecular point group: c1
  Charge       = 0
  Multiplicity = 1
  Basis Set: AUG-CC-PVTZ
    Blend: AUG-CC-PVTZ
  Basis Set: (AUG-CC-PVTZ AUX)
    Blend: AUG-CC-PVTZ-JKFIT

    Orbital Energies [Eh]
    ---------------------

    Doubly Occupied:

       1A    -20.618606     2A    -20.559278     3A    -15.552296
       4A    -11.391631     5A    -11.283891     6A    -11.231819
       7A     -1.473433     8A     -1.367642     9A     -1.201896
      10A     -1.024765    11A     -0.911935    12A     -0.801169
      13A     -0.718101    14A     -0.708045    15A     -0.672713
      16A     -0.634256    17A     -0.612355    18A     -0.596599
      19A     -0.550985    20A     -0.532813    21A     -0.512138
      22A     -0.488371    23A     -0.462951    24A     -0.415575

  @DF-RHF Final Energy:  -321.99861528070903

   => Energetics <=

    Nuclear Repulsion Energy =            249.1792997204201754
    One-Electron Energy =                -933.7093065491809512
    Two-Electron Energy =                 362.5313915480517153
    Total Energy =                       -321.9986152807090320
  Basis Set: (AUG-CC-PVTZ AUX)
    Blend: AUG-CC-PVTZ-RI
    Molecular point group: c1

    Geometry (in Angstrom), charge = 0, multiplicity = 1:

       Center              X                  Y                   Z               Mass
    ------------   -----------------  -----------------  -----------------  -----------------
         O           -1.563466176069     0.859238648835    -0.377353228454    15.994914619570
         O           -1.098223176069    -1.149458351165     0.564080771546    15.994914619570
         N            1.598332823931    -0.994146351165    -0.283521228454    14.003074004430
         C            0.719370823931     0.161298648835    -0.398798228454    12.000000000000
         C            1.245106823931     1.303357648835     0.471461771546    12.000000000000
         C           -0.719922176069    -0.145544351165    -0.016811228454    12.000000000000
         H            0.715758823931     0.490418648835    -1.444271228454     1.007825032230
         H            2.276583823931     1.519051648835     0.187204771546     1.007825032230
         H            0.635854823931     2.201685648835     0.353725771546     1.007825032230
         H            1.232226823931     1.008239648835     1.525917771546     1.007825032230
         H            1.254332823931    -1.737832351165    -0.891081228454     1.007825032230
         H            1.507721823931    -1.366908351165     0.662466771546     1.007825032230
         H           -2.406042276069     0.597920048835    -0.083144928454     1.007825032230

  Basis Set: AUG-CC-PVTZ
    Blend: AUG-CC-PVTZ
  Basis Set: (AUG-CC-PVTZ AUX)
    Blend: AUG-CC-PVTZ-JKFIT
	 Reference Energy          =    -321.9986152807090320 [Eh]
	 Singles Energy            =      -0.0000000000000000 [Eh]
	 Same-Spin Energy          =      -0.3160956881645546 [Eh]
	 Opposite-Spin Energy      =      -0.9982036827263636 [Eh]
	 Correlation Energy        =      -1.3142993708909183 [Eh]
	 Total Energy              =    -323.3129146515999537 [Eh]

	 ================> DF-SCS-MP2 Energies <==================
	-----------------------------------------------------------
	 SCS Same-Spin Scale       =       0.3333333333333333 [-]
	 SCS Opposite-Spin Scale   =       1.2000000000000000 [-]
	 SCS Same-Spin Energy      =      -0.1053652293881849 [Eh]
	 SCS Opposite-Spin Energy  =      -1.1978444192716362 [Eh]
	 SCS Correlation Energy    =      -1.3032096486598210 [Eh]
	 SCS Total Energy          =    -323.3018249293688768 [Eh]
	-----------------------------------------------------------

  Dipole Moment: [D]
     X:    -0.7261      Y:     1.0530      Z:    -0.3609     Total:     1.3290

*** Psi4 exiting successfully. Buy a developer a beer!
