                               Psi4 1.4a3.dev225

  ==> Input File <==

--------------------------------------------------------------------------
#psi4
#
memory 32 gb

molecule  {
0 1
  O       -1.6162430     0.8314800    -0.3809140
  O       -1.1510000    -1.1772170     0.5605200
  N        1.5455560    -1.0219050    -0.2870820
  C        0.6665940     0.1335400    -0.4023590
  C        1.1854534     1.2606610     0.4565181
  C       -0.7726990    -0.1733030    -0.0203720
  H        0.6629820     0.4626600    -1.4478320
  H        2.2238070     1.4912930     0.1836440
  H        0.5830780     2.1739270     0.3501650
  H        1.1794500     0.9804810     1.5223570
  H        1.2015560    -1.7655910    -0.8946420
  H        1.4549450    -1.3946670     0.6589060
  H       -2.5041220     0.5561110    -0.0708870
units angstrom
no_reorient  #important for SAPT in psi4, default
symmetry c1  #important for SAPT in psi4, default
}

set PROPERTIES_ORIGIN ["COM"]
properties('MP2/aug-cc-pvtz', properties = ['dipole'])
--------------------------------------------------------------------------

    Molecular point group: c1
  Charge       = 0
  Multiplicity = 1
  Basis Set: AUG-CC-PVTZ
    Blend: AUG-CC-PVTZ
  Basis Set: (AUG-CC-PVTZ AUX)
    Blend: AUG-CC-PVTZ-JKFIT

    Orbital Energies [Eh]
    ---------------------

    Doubly Occupied:

       1A    -20.622097     2A    -20.558503     3A    -15.552061
       4A    -11.390847     5A    -11.282970     6A    -11.231980
       7A     -1.465491     8A     -1.362844     9A     -1.202668
      10A     -1.025768    11A     -0.906458    12A     -0.794743
      13A     -0.713950    14A     -0.707161    15A     -0.672942
      16A     -0.632626    17A     -0.609281    18A     -0.596077
      19A     -0.547682    20A     -0.531660    21A     -0.511952
      22A     -0.487778    23A     -0.461729    24A     -0.415603

  @DF-RHF Final Energy:  -321.99723815064954

   => Energetics <=

    Nuclear Repulsion Energy =            249.1821665174219333
    One-Electron Energy =                -933.7890672363134854
    Two-Electron Energy =                 362.6096625682420154
    Total Energy =                       -321.9972381506495367
  Basis Set: (AUG-CC-PVTZ AUX)
    Blend: AUG-CC-PVTZ-RI
    Molecular point group: c1

    Geometry (in Angstrom), charge = 0, multiplicity = 1:

       Center              X                  Y                   Z               Mass
    ------------   -----------------  -----------------  -----------------  -----------------
         O           -1.562026760704     0.861410702595    -0.375998310277    15.994914619570
         O           -1.096783760704    -1.147286297405     0.565435689723    15.994914619570
         N            1.599772239296    -0.991974297405    -0.282166310277    14.003074004430
         C            0.720810239296     0.163470702595    -0.397443310277    12.000000000000
         C            1.239669639296     1.290591702595     0.461433789723    12.000000000000
         C           -0.718482760704    -0.143372297405    -0.015456310277    12.000000000000
         H            0.717198239296     0.492590702595    -1.442916310277     1.007825032230
         H            2.278023239296     1.521223702595     0.188559689723     1.007825032230
         H            0.637294239296     2.203857702595     0.355080689723     1.007825032230
         H            1.233666239296     1.010411702595     1.527272689723     1.007825032230
         H            1.255772239296    -1.735660297405    -0.889726310277     1.007825032230
         H            1.509161239296    -1.364736297405     0.663821689723     1.007825032230
         H           -2.449905760704     0.586041702595    -0.065971310277     1.007825032230

  Basis Set: AUG-CC-PVTZ
    Blend: AUG-CC-PVTZ
  Basis Set: (AUG-CC-PVTZ AUX)
    Blend: AUG-CC-PVTZ-JKFIT
	 Reference Energy          =    -321.9972381506495367 [Eh]
	 Singles Energy            =      -0.0000000000000000 [Eh]
	 Same-Spin Energy          =      -0.3168861704051560 [Eh]
	 Opposite-Spin Energy      =      -0.9998164003459326 [Eh]
	 Correlation Energy        =      -1.3167025707510884 [Eh]
	 Total Energy              =    -323.3139407214006269 [Eh]

	 ================> DF-SCS-MP2 Energies <==================
	-----------------------------------------------------------
	 SCS Same-Spin Scale       =       0.3333333333333333 [-]
	 SCS Opposite-Spin Scale   =       1.2000000000000000 [-]
	 SCS Same-Spin Energy      =      -0.1056287234683853 [Eh]
	 SCS Opposite-Spin Energy  =      -1.1997796804151191 [Eh]
	 SCS Correlation Energy    =      -1.3054084038835043 [Eh]
	 SCS Total Energy          =    -323.3026465545330552 [Eh]
	-----------------------------------------------------------

  Dipole Moment: [D]
     X:    -0.7929      Y:     1.0511      Z:    -0.3501     Total:     1.3624

*** Psi4 exiting successfully. Buy a developer a beer!
