                               Psi4 1.3.2 release

  ==> Input File <==

--------------------------------------------------------------------------
#psi4
#
memory 32 gb

molecule  {
0 1
  O        1.4293010    -1.0173190    -0.5083850
  O        1.2616920     1.0439120     0.4876630
  N       -1.5094500     1.1665790    -0.0160500
  C       -0.7590880    -0.0423940    -0.3475120
  C       -1.3403730    -1.2419500     0.4105850
  C        0.6786065     0.1625020    -0.0324305
  H       -0.8593930    -0.2237720    -1.4273650
  H       -2.4052960    -1.3157140     0.1877600
  H       -0.8411410    -2.1737420     0.1227770
  H       -1.2225590    -1.1039570     1.4923070
  H       -1.0898030     1.9609300    -0.5079820
  H       -1.3695700     1.3697580     0.9773170
  H        2.3653570    -0.8358360    -0.2741470
units angstrom
no_reorient  #important for SAPT in psi4, default
symmetry c1  #important for SAPT in psi4, default
}

set PROPERTIES_ORIGIN ["COM"]
properties('MP2/aug-cc-pvtz', properties = ['dipole'])
--------------------------------------------------------------------------

    Molecular point group: c1
  Charge       = 0
  Multiplicity = 1
  Basis Set: AUG-CC-PVTZ
    Blend: AUG-CC-PVTZ
  Basis Set: (AUG-CC-PVTZ AUX)
    Blend: AUG-CC-PVTZ-JKFIT

    Orbital Energies [Eh]
    ---------------------

    Doubly Occupied:

       1A    -20.593643     2A    -20.577422     3A    -15.556604
       4A    -11.394369     5A    -11.289016     6A    -11.235744
       7A     -1.459691     8A     -1.348638     9A     -1.208138
      10A     -1.025475    11A     -0.909557    12A     -0.775238
      13A     -0.708580    14A     -0.702885    15A     -0.675787
      16A     -0.617745    17A     -0.608209    18A     -0.600430
      19A     -0.554814    20A     -0.532184    21A     -0.512647
      22A     -0.496301    23A     -0.468595    24A     -0.418496

  @DF-RHF Final Energy:  -321.98572725149995

   => Energetics <=

    Nuclear Repulsion Energy =            248.0809756208698786
    One-Electron Energy =                -931.5929905591433453
    Two-Electron Energy =                 361.5262876867735713
    Total Energy =                       -321.9857272514999522
  Basis Set: (AUG-CC-PVTZ AUX)
    Blend: AUG-CC-PVTZ-RI
    Molecular point group: c1

    Geometry (in Angstrom), charge = 0, multiplicity = 1:

       Center              X                  Y                   Z               Mass
    ------------   -----------------  -----------------  -----------------  -----------------
         O            1.436149311865    -1.028082172262    -0.512727016949    15.994914619570
         O            1.268540311865     1.033148827738     0.483320983051    15.994914619570
         N           -1.502601688135     1.155815827738    -0.020392016949    14.003074004430
         C           -0.752239688135    -0.053157172262    -0.351854016949    12.000000000000
         C           -1.333524688135    -1.252713172262     0.406242983051    12.000000000000
         C            0.685454811865     0.151738827738    -0.036772516949    12.000000000000
         H           -0.852544688135    -0.234535172262    -1.431707016949     1.007825032230
         H           -2.398447688135    -1.326477172262     0.183417983051     1.007825032230
         H           -0.834292688135    -2.184505172262     0.118434983051     1.007825032230
         H           -1.215710688135    -1.114720172262     1.487964983051     1.007825032230
         H           -1.082954688135     1.950166827738    -0.512324016949     1.007825032230
         H           -1.362721688135     1.358994827738     0.972974983051     1.007825032230
         H            2.372205311865    -0.846599172262    -0.278489016949     1.007825032230

  Basis Set: AUG-CC-PVTZ
    Blend: AUG-CC-PVTZ
  Basis Set: (AUG-CC-PVTZ AUX)
    Blend: AUG-CC-PVTZ-JKFIT
	 Reference Energy          =    -321.9857272514999522 [Eh]
	 Singles Energy            =      -0.0000000000000000 [Eh]
	 Same-Spin Energy          =      -0.3169995458534078 [Eh]
	 Opposite-Spin Energy      =      -1.0015277779300054 [Eh]
	 Correlation Energy        =      -1.3185273237834132 [Eh]
	 Total Energy              =    -323.3042545752833803 [Eh]

	 ================> DF-SCS-MP2 Energies <==================
	-----------------------------------------------------------
	 SCS Same-Spin Scale       =       0.3333333333333333 [-]
	 SCS Opposite-Spin Scale   =       1.2000000000000000 [-]
	 SCS Same-Spin Energy      =      -0.1056665152844693 [Eh]
	 SCS Opposite-Spin Energy  =      -1.2018333335160063 [Eh]
	 SCS Correlation Energy    =      -1.3074998488004757 [Eh]
	 SCS Total Energy          =    -323.2932271003004416 [Eh]
	-----------------------------------------------------------

  Dipole Moment: [D]
     X:     0.1902      Y:    -0.5058      Z:    -0.0236     Total:     0.5409

*** Psi4 exiting successfully. Buy a developer a beer!
