                               Psi4 1.3.2 release

  ==> Input File <==

--------------------------------------------------------------------------
#psi4
#
memory 32 gb

molecule  {
0 1
  O        1.4293010    -1.0173190    -0.5083850
  O        1.2616920     1.0439120     0.4876630
  N       -1.5094500     1.1665790    -0.0160500
  C       -0.7590880    -0.0423940    -0.3475120
  C       -1.3403730    -1.2419500     0.4105850
  C        0.7267611     0.0845857    -0.0518020
  H       -0.8689314    -0.2241168    -1.4263785
  H       -2.4052960    -1.3157140     0.1877600
  H       -0.8411410    -2.1737420     0.1227770
  H       -1.2225590    -1.1039570     1.4923070
  H       -1.0898030     1.9609300    -0.5079820
  H       -1.3695700     1.3697580     0.9773170
  H        2.3653570    -0.8358360    -0.2741470
units angstrom
no_reorient  #important for SAPT in psi4, default
symmetry c1  #important for SAPT in psi4, default
}

set PROPERTIES_ORIGIN ["COM"]
properties('MP2/aug-cc-pvtz', properties = ['dipole'])
--------------------------------------------------------------------------

    Molecular point group: c1
  Charge       = 0
  Multiplicity = 1
  Basis Set: AUG-CC-PVTZ
    Blend: AUG-CC-PVTZ
  Basis Set: (AUG-CC-PVTZ AUX)
    Blend: AUG-CC-PVTZ-JKFIT

    Orbital Energies [Eh]
    ---------------------

    Doubly Occupied:

       1A    -20.620984     2A    -20.562609     3A    -15.553334
       4A    -11.394814     5A    -11.286079     6A    -11.232849
       7A     -1.456453     8A     -1.361509     9A     -1.199566
      10A     -1.022119    11A     -0.905950    12A     -0.790867
      13A     -0.711219    14A     -0.702540    15A     -0.672294
      16A     -0.625531    17A     -0.609025    18A     -0.596850
      19A     -0.551234    20A     -0.529878    21A     -0.512067
      22A     -0.488511    23A     -0.462752    24A     -0.416266

  @DF-RHF Final Energy:  -321.99446044893989

   => Energetics <=

    Nuclear Repulsion Energy =            247.8373628381933429
    One-Electron Energy =                -931.1330483267731779
    Two-Electron Energy =                 361.3012250396399168
    Total Energy =                       -321.9944604489398898
  Basis Set: (AUG-CC-PVTZ AUX)
    Blend: AUG-CC-PVTZ-RI
    Molecular point group: c1

    Geometry (in Angstrom), charge = 0, multiplicity = 1:

       Center              X                  Y                   Z               Mass
    ------------   -----------------  -----------------  -----------------  -----------------
         O            1.429767987035    -1.017578326298    -0.510127692805    15.994914619570
         O            1.262158987035     1.043652673702     0.485920307195    15.994914619570
         N           -1.508983012965     1.166319673702    -0.017792692805    14.003074004430
         C           -0.758621012965    -0.042653326298    -0.349254692805    12.000000000000
         C           -1.339906012965    -1.242209326298     0.408842307195    12.000000000000
         C            0.727228087035     0.084326373702    -0.053544692805    12.000000000000
         H           -0.868464412965    -0.224376126298    -1.428121192805     1.007825032230
         H           -2.404829012965    -1.315973326298     0.186017307195     1.007825032230
         H           -0.840674012965    -2.174001326298     0.121034307195     1.007825032230
         H           -1.222092012965    -1.104216326298     1.490564307195     1.007825032230
         H           -1.089336012965     1.960670673702    -0.509724692805     1.007825032230
         H           -1.369103012965     1.369498673702     0.975574307195     1.007825032230
         H            2.365823987035    -0.836095326298    -0.275889692805     1.007825032230

  Basis Set: AUG-CC-PVTZ
    Blend: AUG-CC-PVTZ
  Basis Set: (AUG-CC-PVTZ AUX)
    Blend: AUG-CC-PVTZ-JKFIT
	 Reference Energy          =    -321.9944604489398898 [Eh]
	 Singles Energy            =      -0.0000000000000000 [Eh]
	 Same-Spin Energy          =      -0.3170899445822948 [Eh]
	 Opposite-Spin Energy      =      -1.0010829939501842 [Eh]
	 Correlation Energy        =      -1.3181729385324790 [Eh]
	 Total Energy              =    -323.3126333874723741 [Eh]

	 ================> DF-SCS-MP2 Energies <==================
	-----------------------------------------------------------
	 SCS Same-Spin Scale       =       0.3333333333333333 [-]
	 SCS Opposite-Spin Scale   =       1.2000000000000000 [-]
	 SCS Same-Spin Energy      =      -0.1056966481940983 [Eh]
	 SCS Opposite-Spin Energy  =      -1.2012995927402210 [Eh]
	 SCS Correlation Energy    =      -1.3069962409343192 [Eh]
	 SCS Total Energy          =    -323.3014566898742146 [Eh]
	-----------------------------------------------------------

  Dipole Moment: [D]
     X:     0.5803      Y:    -1.0958      Z:    -0.2844     Total:     1.2722

*** Psi4 exiting successfully. Buy a developer a beer!
