                               Psi4 1.3.2 release

  ==> Input File <==

--------------------------------------------------------------------------
#psi4
#
memory 32 gb

molecule  {
0 1
  O        1.4496651    -1.0072842    -0.5004897
  O        1.2807640     1.0342761     0.4856370
  N       -1.5094500     1.1665790    -0.0160500
  C       -0.7590880    -0.0423940    -0.3475120
  C       -1.3403730    -1.2419500     0.4105850
  C        0.7294260     0.0826320    -0.0646510
  H       -0.8593930    -0.2237720    -1.4273650
  H       -2.4052960    -1.3157140     0.1877600
  H       -0.8411410    -2.1737420     0.1227770
  H       -1.2225590    -1.1039570     1.4923070
  H       -1.0898030     1.9609300    -0.5079820
  H       -1.3695700     1.3697580     0.9773170
  H        2.3653570    -0.8358360    -0.2741470
units angstrom
no_reorient  #important for SAPT in psi4, default
symmetry c1  #important for SAPT in psi4, default
}

set PROPERTIES_ORIGIN ["COM"]
properties('MP2/aug-cc-pvtz', properties = ['dipole'])
--------------------------------------------------------------------------

    Molecular point group: c1
  Charge       = 0
  Multiplicity = 1
  Basis Set: AUG-CC-PVTZ
    Blend: AUG-CC-PVTZ
  Basis Set: (AUG-CC-PVTZ AUX)
    Blend: AUG-CC-PVTZ-JKFIT

    Orbital Energies [Eh]
    ---------------------

    Doubly Occupied:

       1A    -20.618056     2A    -20.559611     3A    -15.554862
       4A    -11.394864     5A    -11.288321     6A    -11.234074
       7A     -1.459828     8A     -1.358064     9A     -1.200868
      10A     -1.023817    11A     -0.909325    12A     -0.796836
      13A     -0.711477    14A     -0.702441    15A     -0.673550
      16A     -0.626100    17A     -0.609550    18A     -0.596666
      19A     -0.551109    20A     -0.530635    21A     -0.513732
      22A     -0.485060    23A     -0.461790    24A     -0.418040

  @DF-RHF Final Energy:  -321.99586525434484

   => Energetics <=

    Nuclear Repulsion Energy =            247.7384573213218175
    One-Electron Energy =                -930.9112940563754819
    Two-Electron Energy =                 361.1769714807088576
    Total Energy =                       -321.9958652543448352
  Basis Set: (AUG-CC-PVTZ AUX)
    Blend: AUG-CC-PVTZ-RI
    Molecular point group: c1

    Geometry (in Angstrom), charge = 0, multiplicity = 1:

       Center              X                  Y                   Z               Mass
    ------------   -----------------  -----------------  -----------------  -----------------
         O            1.442581425386    -1.007355800680    -0.501543960854    15.994914619570
         O            1.273680325386     1.034204499320     0.484582739146    15.994914619570
         N           -1.516533674614     1.166507399320    -0.017104260854    14.003074004430
         C           -0.766171674614    -0.042465600680    -0.348566260854    12.000000000000
         C           -1.347456674614    -1.242021600680     0.409530739146    12.000000000000
         C            0.722342325386     0.082560399320    -0.065705260854    12.000000000000
         H           -0.866476674614    -0.223843600680    -1.428419260854     1.007825032230
         H           -2.412379674614    -1.315785600680     0.186705739146     1.007825032230
         H           -0.848224674614    -2.173813600680     0.121722739146     1.007825032230
         H           -1.229642674614    -1.104028600680     1.491252739146     1.007825032230
         H           -1.096886674614     1.960858399320    -0.509036260854     1.007825032230
         H           -1.376653674614     1.369686399320     0.976262739146     1.007825032230
         H            2.358273325386    -0.835907600680    -0.275201260854     1.007825032230

  Basis Set: AUG-CC-PVTZ
    Blend: AUG-CC-PVTZ
  Basis Set: (AUG-CC-PVTZ AUX)
    Blend: AUG-CC-PVTZ-JKFIT
	 Reference Energy          =    -321.9958652543448352 [Eh]
	 Singles Energy            =      -0.0000000000000000 [Eh]
	 Same-Spin Energy          =      -0.3166524537208462 [Eh]
	 Opposite-Spin Energy      =      -1.0000825272519367 [Eh]
	 Correlation Energy        =      -1.3167349809727829 [Eh]
	 Total Energy              =    -323.3126002353176318 [Eh]

	 ================> DF-SCS-MP2 Energies <==================
	-----------------------------------------------------------
	 SCS Same-Spin Scale       =       0.3333333333333333 [-]
	 SCS Opposite-Spin Scale   =       1.2000000000000000 [-]
	 SCS Same-Spin Energy      =      -0.1055508179069487 [Eh]
	 SCS Opposite-Spin Energy  =      -1.2000990327023240 [Eh]
	 SCS Correlation Energy    =      -1.3056498506092726 [Eh]
	 SCS Total Energy          =    -323.3015151049540918 [Eh]
	-----------------------------------------------------------

  Dipole Moment: [D]
     X:     0.4764      Y:    -1.1259      Z:    -0.3178     Total:     1.2632

*** Psi4 exiting successfully. Buy a developer a beer!
