                               Psi4 1.3.2 release

  ==> Input File <==

--------------------------------------------------------------------------
#psi4
#
memory 32 gb

molecule  {
0 1
  O        1.4293010    -1.0173190    -0.5083850
  O        1.2616920     1.0439120     0.4876630
  N       -1.5094500     1.1665790    -0.0160500
  C       -0.7590880    -0.0423940    -0.3475120
  C       -1.3403730    -1.2419500     0.4105850
  C        0.7294260     0.0826320    -0.0646510
  H       -0.8685152    -0.2402674    -1.5255724
  H       -2.4052960    -1.3157140     0.1877600
  H       -0.8411410    -2.1737420     0.1227770
  H       -1.2225590    -1.1039570     1.4923070
  H       -1.0898030     1.9609300    -0.5079820
  H       -1.3695700     1.3697580     0.9773170
  H        2.3653570    -0.8358360    -0.2741470
units angstrom
no_reorient  #important for SAPT in psi4, default
symmetry c1  #important for SAPT in psi4, default
}

set PROPERTIES_ORIGIN ["COM"]
properties('MP2/aug-cc-pvtz', properties = ['dipole'])
--------------------------------------------------------------------------

    Molecular point group: c1
  Charge       = 0
  Multiplicity = 1
  Basis Set: AUG-CC-PVTZ
    Blend: AUG-CC-PVTZ
  Basis Set: (AUG-CC-PVTZ AUX)
    Blend: AUG-CC-PVTZ-JKFIT

    Orbital Energies [Eh]
    ---------------------

    Doubly Occupied:

       1A    -20.622775     2A    -20.561548     3A    -15.554460
       4A    -11.395919     5A    -11.297447     6A    -11.233852
       7A     -1.457657     8A     -1.359713     9A     -1.198623
      10A     -1.020506    11A     -0.905795    12A     -0.785792
      13A     -0.710249    14A     -0.697511    15A     -0.672556
      16A     -0.626448    17A     -0.608727    18A     -0.593842
      19A     -0.551462    20A     -0.530239    21A     -0.503724
      22A     -0.485752    23A     -0.461763    24A     -0.416179

  @DF-RHF Final Energy:  -321.98736458893671

   => Energetics <=

    Nuclear Repulsion Energy =            247.3289848814345646
    One-Electron Energy =                -930.1276220086132298
    Two-Electron Energy =                 360.8112725382418944
    Total Energy =                       -321.9873645889367140
  Basis Set: (AUG-CC-PVTZ AUX)
    Blend: AUG-CC-PVTZ-RI
    Molecular point group: c1

    Geometry (in Angstrom), charge = 0, multiplicity = 1:

       Center              X                  Y                   Z               Mass
    ------------   -----------------  -----------------  -----------------  -----------------
         O            1.429404156586    -1.017132257635    -0.507273512889    15.994914619570
         O            1.261795156586     1.044098742365     0.488774487111    15.994914619570
         N           -1.509346843414     1.166765742365    -0.014938512889    14.003074004430
         C           -0.758984843414    -0.042207257635    -0.346400512889    12.000000000000
         C           -1.340269843414    -1.241763257635     0.411696487111    12.000000000000
         C            0.729529156586     0.082818742365    -0.063539512889    12.000000000000
         H           -0.868412043414    -0.240080657635    -1.524460912889     1.007825032230
         H           -2.405192843414    -1.315527257635     0.188871487111     1.007825032230
         H           -0.841037843414    -2.173555257635     0.123888487111     1.007825032230
         H           -1.222455843414    -1.103770257635     1.493418487111     1.007825032230
         H           -1.089699843414     1.961116742365    -0.506870512889     1.007825032230
         H           -1.369466843414     1.369944742365     0.978428487111     1.007825032230
         H            2.365460156586    -0.835649257635    -0.273035512889     1.007825032230

  Basis Set: AUG-CC-PVTZ
    Blend: AUG-CC-PVTZ
  Basis Set: (AUG-CC-PVTZ AUX)
    Blend: AUG-CC-PVTZ-JKFIT
	 Reference Energy          =    -321.9873645889367140 [Eh]
	 Singles Energy            =      -0.0000000000000000 [Eh]
	 Same-Spin Energy          =      -0.3172867210854496 [Eh]
	 Opposite-Spin Energy      =      -1.0019361896569312 [Eh]
	 Correlation Energy        =      -1.3192229107423810 [Eh]
	 Total Energy              =    -323.3065874996790967 [Eh]

	 ================> DF-SCS-MP2 Energies <==================
	-----------------------------------------------------------
	 SCS Same-Spin Scale       =       0.3333333333333333 [-]
	 SCS Opposite-Spin Scale   =       1.2000000000000000 [-]
	 SCS Same-Spin Energy      =      -0.1057622403618165 [Eh]
	 SCS Opposite-Spin Energy  =      -1.2023234275883175 [Eh]
	 SCS Correlation Energy    =      -1.3080856679501340 [Eh]
	 SCS Total Energy          =    -323.2954502568868520 [Eh]
	-----------------------------------------------------------

  Dipole Moment: [D]
     X:     0.5850      Y:    -1.1329      Z:    -0.2743     Total:     1.3042

*** Psi4 exiting successfully. Buy a developer a beer!
