                               Psi4 1.4a3.dev225

  ==> Input File <==

--------------------------------------------------------------------------
#psi4
#
memory 32 gb

molecule  {
0 1
  O       -1.6162430     0.8314800    -0.3809140
  O       -1.1510000    -1.1772170     0.5605200
  N        1.5455560    -1.0219050    -0.2870820
  C        0.6665940     0.1335400    -0.4023590
  C        1.1923300     1.2755990     0.4679010
  C       -0.7882032    -0.2144471     0.0034351
  H        0.6629820     0.4626600    -1.4478320
  H        2.2238070     1.4912930     0.1836440
  H        0.5830780     2.1739270     0.3501650
  H        1.1794500     0.9804810     1.5223570
  H        1.2015560    -1.7655910    -0.8946420
  H        1.4549450    -1.3946670     0.6589060
  H       -2.5041220     0.5561110    -0.0708870
units angstrom
no_reorient  #important for SAPT in psi4, default
symmetry c1  #important for SAPT in psi4, default
}

set PROPERTIES_ORIGIN ["COM"]
properties('MP2/aug-cc-pvtz', properties = ['dipole'])
--------------------------------------------------------------------------

    Molecular point group: c1
  Charge       = 0
  Multiplicity = 1
  Basis Set: AUG-CC-PVTZ
    Blend: AUG-CC-PVTZ
  Basis Set: (AUG-CC-PVTZ AUX)
    Blend: AUG-CC-PVTZ-JKFIT

    Orbital Energies [Eh]
    ---------------------

    Doubly Occupied:

       1A    -20.613093     2A    -20.567126     3A    -15.550936
       4A    -11.385673     5A    -11.282283     6A    -11.229208
       7A     -1.473098     8A     -1.378568     9A     -1.199966
      10A     -1.017398    11A     -0.897892    12A     -0.785798
      13A     -0.716097    14A     -0.707888    15A     -0.672802
      16A     -0.632401    17A     -0.612641    18A     -0.596948
      19A     -0.552515    20A     -0.530961    21A     -0.508678
      22A     -0.501460    23A     -0.466690    24A     -0.409286

  @DF-RHF Final Energy:  -321.99714941639559

   => Energetics <=

    Nuclear Repulsion Energy =            248.9817267980820930
    One-Electron Energy =                -933.3789378380243988
    Two-Electron Energy =                 362.4000616235466623
    Total Energy =                       -321.9971494163955867
  Basis Set: (AUG-CC-PVTZ AUX)
    Blend: AUG-CC-PVTZ-RI
    Molecular point group: c1

    Geometry (in Angstrom), charge = 0, multiplicity = 1:

       Center              X                  Y                   Z               Mass
    ------------   -----------------  -----------------  -----------------  -----------------
         O           -1.560864111640     0.864942217458    -0.380740488931    15.994914619570
         O           -1.095621111640    -1.143754782542     0.560693511069    15.994914619570
         N            1.600934888360    -0.988442782542    -0.286908488931    14.003074004430
         C            0.721972888360     0.167002217458    -0.402185488931    12.000000000000
         C            1.247708888360     1.309061217458     0.468074511069    12.000000000000
         C           -0.732824311640    -0.180984882542     0.003608611069    12.000000000000
         H            0.718360888360     0.496122217458    -1.447658488931     1.007825032230
         H            2.279185888360     1.524755217458     0.183817511069     1.007825032230
         H            0.638456888360     2.207389217458     0.350338511069     1.007825032230
         H            1.234828888360     1.013943217458     1.522530511069     1.007825032230
         H            1.256934888360    -1.732128782542    -0.894468488931     1.007825032230
         H            1.510323888360    -1.361204782542     0.659079511069     1.007825032230
         H           -2.448743111640     0.589573217458    -0.070713488931     1.007825032230

  Basis Set: AUG-CC-PVTZ
    Blend: AUG-CC-PVTZ
  Basis Set: (AUG-CC-PVTZ AUX)
    Blend: AUG-CC-PVTZ-JKFIT
	 Reference Energy          =    -321.9971494163955867 [Eh]
	 Singles Energy            =      -0.0000000000000000 [Eh]
	 Same-Spin Energy          =      -0.3158020759305955 [Eh]
	 Opposite-Spin Energy      =      -0.9980640078955771 [Eh]
	 Correlation Energy        =      -1.3138660838261726 [Eh]
	 Total Energy              =    -323.3110155002217425 [Eh]

	 ================> DF-SCS-MP2 Energies <==================
	-----------------------------------------------------------
	 SCS Same-Spin Scale       =       0.3333333333333333 [-]
	 SCS Opposite-Spin Scale   =       1.2000000000000000 [-]
	 SCS Same-Spin Energy      =      -0.1052673586435318 [Eh]
	 SCS Opposite-Spin Energy  =      -1.1976768094746926 [Eh]
	 SCS Correlation Energy    =      -1.3029441681182243 [Eh]
	 SCS Total Energy          =    -323.3000935845138315 [Eh]
	-----------------------------------------------------------

  Dipole Moment: [D]
     X:    -0.8198      Y:     0.7376      Z:    -0.1975     Total:     1.1204

*** Psi4 exiting successfully. Buy a developer a beer!
