                               Psi4 1.3.2 release

  ==> Input File <==

--------------------------------------------------------------------------
#psi4
#
memory 32 gb

molecule  {
0 1
  O        1.4293010    -1.0173190    -0.5083850
  O        1.2521017     1.0486435     0.4885660
  N       -1.5094500     1.1665790    -0.0160500
  C       -0.7610822    -0.0305110    -0.3419593
  C       -1.3403730    -1.2419500     0.4105850
  C        0.7294260     0.0826320    -0.0646510
  H       -0.8593930    -0.2237720    -1.4273650
  H       -2.4052960    -1.3157140     0.1877600
  H       -0.8411410    -2.1737420     0.1227770
  H       -1.2225590    -1.1039570     1.4923070
  H       -1.0898030     1.9609300    -0.5079820
  H       -1.3695700     1.3697580     0.9773170
  H        2.3653570    -0.8358360    -0.2741470
units angstrom
no_reorient  #important for SAPT in psi4, default
symmetry c1  #important for SAPT in psi4, default
}

set PROPERTIES_ORIGIN ["COM"]
properties('MP2/aug-cc-pvtz', properties = ['dipole'])
--------------------------------------------------------------------------

    Molecular point group: c1
  Charge       = 0
  Multiplicity = 1
  Basis Set: AUG-CC-PVTZ
    Blend: AUG-CC-PVTZ
  Basis Set: (AUG-CC-PVTZ AUX)
    Blend: AUG-CC-PVTZ-JKFIT

    Orbital Energies [Eh]
    ---------------------

    Doubly Occupied:

       1A    -20.623932     2A    -20.560638     3A    -15.553370
       4A    -11.394616     5A    -11.285710     6A    -11.232803
       7A     -1.457531     8A     -1.360053     9A     -1.202318
      10A     -1.020744    11A     -0.906261    12A     -0.792208
      13A     -0.711293    14A     -0.702448    15A     -0.673901
      16A     -0.626495    17A     -0.609562    18A     -0.595858
      19A     -0.550774    20A     -0.531559    21A     -0.509417
      22A     -0.486145    23A     -0.461595    24A     -0.416187

  @DF-RHF Final Energy:  -321.99398892250900

   => Energetics <=

    Nuclear Repulsion Energy =            247.9160372789480391
    One-Electron Energy =                -931.2892115374905870
    Two-Electron Energy =                 361.3791853360335722
    Total Energy =                       -321.9939889225090042
  Basis Set: (AUG-CC-PVTZ AUX)
    Blend: AUG-CC-PVTZ-RI
    Molecular point group: c1

    Geometry (in Angstrom), charge = 0, multiplicity = 1:

       Center              X                  Y                   Z               Mass
    ------------   -----------------  -----------------  -----------------  -----------------
         O            1.431292278220    -1.019770174979    -0.509295482322    15.994914619570
         O            1.254092978220     1.046192325021     0.487655517678    15.994914619570
         N           -1.507458721780     1.164127825021    -0.016960482322    14.003074004430
         C           -0.759090921780    -0.032962174979    -0.342869782322    12.000000000000
         C           -1.338381721780    -1.244401174979     0.409674517678    12.000000000000
         C            0.731417278220     0.080180825021    -0.065561482322    12.000000000000
         H           -0.857401721780    -0.226223174979    -1.428275482322     1.007825032230
         H           -2.403304721780    -1.318165174979     0.186849517678     1.007825032230
         H           -0.839149721780    -2.176193174979     0.121866517678     1.007825032230
         H           -1.220567721780    -1.106408174979     1.491396517678     1.007825032230
         H           -1.087811721780     1.958478825021    -0.508892482322     1.007825032230
         H           -1.367578721780     1.367306825021     0.976406517678     1.007825032230
         H            2.367348278220    -0.838287174979    -0.275057482322     1.007825032230

  Basis Set: AUG-CC-PVTZ
    Blend: AUG-CC-PVTZ
  Basis Set: (AUG-CC-PVTZ AUX)
    Blend: AUG-CC-PVTZ-JKFIT
	 Reference Energy          =    -321.9939889225090042 [Eh]
	 Singles Energy            =      -0.0000000000000000 [Eh]
	 Same-Spin Energy          =      -0.3172199944185249 [Eh]
	 Opposite-Spin Energy      =      -1.0011473311741459 [Eh]
	 Correlation Energy        =      -1.3183673255926709 [Eh]
	 Total Energy              =    -323.3123562481016506 [Eh]

	 ================> DF-SCS-MP2 Energies <==================
	-----------------------------------------------------------
	 SCS Same-Spin Scale       =       0.3333333333333333 [-]
	 SCS Opposite-Spin Scale   =       1.2000000000000000 [-]
	 SCS Same-Spin Energy      =      -0.1057399981395083 [Eh]
	 SCS Opposite-Spin Energy  =      -1.2013767974089751 [Eh]
	 SCS Correlation Energy    =      -1.3071167955484833 [Eh]
	 SCS Total Energy          =    -323.3011057180574994 [Eh]
	-----------------------------------------------------------

  Dipole Moment: [D]
     X:     0.6088      Y:    -1.1283      Z:    -0.3134     Total:     1.3199

*** Psi4 exiting successfully. Buy a developer a beer!
