                               Psi4 1.4a3.dev225

  ==> Input File <==

--------------------------------------------------------------------------
#psi4
#
memory 32 gb

molecule  {
0 1
  O       -1.6162430     0.8314800    -0.3809140
  O       -1.1510000    -1.1772170     0.5605200
  N        1.5455560    -1.0219050    -0.2870820
  C        0.6665940     0.1335400    -0.4023590
  C        1.1992066     1.2905370     0.4792839
  C       -0.7726990    -0.1733030    -0.0203720
  H        0.6629820     0.4626600    -1.4478320
  H        2.2238070     1.4912930     0.1836440
  H        0.5830780     2.1739270     0.3501650
  H        1.1794500     0.9804810     1.5223570
  H        1.2015560    -1.7655910    -0.8946420
  H        1.4549450    -1.3946670     0.6589060
  H       -2.5041220     0.5561110    -0.0708870
units angstrom
no_reorient  #important for SAPT in psi4, default
symmetry c1  #important for SAPT in psi4, default
}

set PROPERTIES_ORIGIN ["COM"]
properties('MP2/aug-cc-pvtz', properties = ['dipole'])
--------------------------------------------------------------------------

    Molecular point group: c1
  Charge       = 0
  Multiplicity = 1
  Basis Set: AUG-CC-PVTZ
    Blend: AUG-CC-PVTZ
  Basis Set: (AUG-CC-PVTZ AUX)
    Blend: AUG-CC-PVTZ-JKFIT

    Orbital Energies [Eh]
    ---------------------

    Doubly Occupied:

       1A    -20.621841     2A    -20.558040     3A    -15.552016
       4A    -11.390448     5A    -11.284231     6A    -11.231124
       7A     -1.465114     8A     -1.362483     9A     -1.200422
      10A     -1.021127    11A     -0.908588    12A     -0.794370
      13A     -0.713109    14A     -0.706194    15A     -0.670921
      16A     -0.632161    17A     -0.608700    18A     -0.596337
      19A     -0.552894    20A     -0.533690    21A     -0.509773
      22A     -0.486249    23A     -0.462296    24A     -0.414599

  @DF-RHF Final Energy:  -321.99769906648362

   => Energetics <=

    Nuclear Repulsion Energy =            248.5541546827539889
    One-Electron Energy =                -932.5502537726315495
    Two-Electron Energy =                 361.9984000233939696
    Total Energy =                       -321.9976990664836194
  Basis Set: (AUG-CC-PVTZ AUX)
    Blend: AUG-CC-PVTZ-RI
    Molecular point group: c1

    Geometry (in Angstrom), charge = 0, multiplicity = 1:

       Center              X                  Y                   Z               Mass
    ------------   -----------------  -----------------  -----------------  -----------------
         O           -1.563880131873     0.857384634694    -0.379066212829    15.994914619570
         O           -1.098637131873    -1.151312365306     0.562367787171    15.994914619570
         N            1.597918868127    -0.996000365306    -0.285234212829    14.003074004430
         C            0.718956868127     0.159444634694    -0.400511212829    12.000000000000
         C            1.251569468127     1.316441634694     0.481131687171    12.000000000000
         C           -0.720336131873    -0.147398365306    -0.018524212829    12.000000000000
         H            0.715344868127     0.488564634694    -1.445984212829     1.007825032230
         H            2.276169868127     1.517197634694     0.185491787171     1.007825032230
         H            0.635440868127     2.199831634694     0.352012787171     1.007825032230
         H            1.231812868127     1.006385634694     1.524204787171     1.007825032230
         H            1.253918868127    -1.739686365306    -0.892794212829     1.007825032230
         H            1.507307868127    -1.368762365306     0.660753787171     1.007825032230
         H           -2.451759131873     0.582015634694    -0.069039212829     1.007825032230

  Basis Set: AUG-CC-PVTZ
    Blend: AUG-CC-PVTZ
  Basis Set: (AUG-CC-PVTZ AUX)
    Blend: AUG-CC-PVTZ-JKFIT
	 Reference Energy          =    -321.9976990664836194 [Eh]
	 Singles Energy            =      -0.0000000000000000 [Eh]
	 Same-Spin Energy          =      -0.3166222282964511 [Eh]
	 Opposite-Spin Energy      =      -0.9995633256134435 [Eh]
	 Correlation Energy        =      -1.3161855539098946 [Eh]
	 Total Energy              =    -323.3138846203935373 [Eh]

	 ================> DF-SCS-MP2 Energies <==================
	-----------------------------------------------------------
	 SCS Same-Spin Scale       =       0.3333333333333333 [-]
	 SCS Opposite-Spin Scale   =       1.2000000000000000 [-]
	 SCS Same-Spin Energy      =      -0.1055407427654837 [Eh]
	 SCS Opposite-Spin Energy  =      -1.1994759907361321 [Eh]
	 SCS Correlation Energy    =      -1.3050167335016158 [Eh]
	 SCS Total Energy          =    -323.3027157999852079 [Eh]
	-----------------------------------------------------------

  Dipole Moment: [D]
     X:    -0.7787      Y:     1.0492      Z:    -0.3484     Total:     1.3522

*** Psi4 exiting successfully. Buy a developer a beer!
