                               Psi4 1.3.2 release

  ==> Input File <==

--------------------------------------------------------------------------
#psi4
#
memory 32 gb

molecule  {
0 1
  O        1.4293010    -1.0173190    -0.5083850
  O        1.2616920     1.0439120     0.4876630
  N       -1.5094500     1.1665790    -0.0160500
  C       -0.7590880    -0.0423940    -0.3475120
  C       -1.3403730    -1.2419500     0.4105850
  C        0.7294260     0.0826320    -0.0646510
  H       -0.8593930    -0.2237720    -1.4273650
  H       -2.4052960    -1.3157140     0.1877600
  H       -0.8411410    -2.1737420     0.1227770
  H       -1.2225590    -1.1039570     1.4923070
  H       -1.0898030     1.9609300    -0.5079820
  H       -1.3695700     1.3697580     0.9773170
  H        2.2700198    -0.8543200    -0.2980041
units angstrom
no_reorient  #important for SAPT in psi4, default
symmetry c1  #important for SAPT in psi4, default
}

set PROPERTIES_ORIGIN ["COM"]
properties('MP2/aug-cc-pvtz', properties = ['dipole'])
--------------------------------------------------------------------------

    Molecular point group: c1
  Charge       = 0
  Multiplicity = 1
  Basis Set: AUG-CC-PVTZ
    Blend: AUG-CC-PVTZ
  Basis Set: (AUG-CC-PVTZ AUX)
    Blend: AUG-CC-PVTZ-JKFIT

    Orbital Energies [Eh]
    ---------------------

    Doubly Occupied:

       1A    -20.615595     2A    -20.563029     3A    -15.553857
       4A    -11.396942     5A    -11.286688     6A    -11.233702
       7A     -1.475994     8A     -1.369431     9A     -1.200037
      10A     -1.025202    11A     -0.915556    12A     -0.806136
      13A     -0.720803    14A     -0.704576    15A     -0.673918
      16A     -0.630236    17A     -0.615215    18A     -0.597270
      19A     -0.552668    20A     -0.530640    21A     -0.514065
      22A     -0.489024    23A     -0.463437    24A     -0.417204

  @DF-RHF Final Energy:  -321.99022510178827

   => Energetics <=

    Nuclear Repulsion Energy =            248.4617363045759646
    One-Electron Energy =                -932.2014717610286425
    Two-Electron Energy =                 361.7495103546643804
    Total Energy =                       -321.9902251017882691
  Basis Set: (AUG-CC-PVTZ AUX)
    Blend: AUG-CC-PVTZ-RI
    Molecular point group: c1

    Geometry (in Angstrom), charge = 0, multiplicity = 1:

       Center              X                  Y                   Z               Mass
    ------------   -----------------  -----------------  -----------------  -----------------
         O            1.430379921891    -1.017109751030    -0.508114995730    15.994914619570
         O            1.262770921891     1.044121248970     0.487933004270    15.994914619570
         N           -1.508371078109     1.166788248970    -0.015779995730    14.003074004430
         C           -0.758009078109    -0.042184751030    -0.347241995730    12.000000000000
         C           -1.339294078109    -1.241740751030     0.410855004270    12.000000000000
         C            0.730504921891     0.082841248970    -0.064380995730    12.000000000000
         H           -0.858314078109    -0.223562751030    -1.427094995730     1.007825032230
         H           -2.404217078109    -1.315504751030     0.188030004270     1.007825032230
         H           -0.840062078109    -2.173532751030     0.123047004270     1.007825032230
         H           -1.221480078109    -1.103747751030     1.492577004270     1.007825032230
         H           -1.088724078109     1.961139248970    -0.507711995730     1.007825032230
         H           -1.368491078109     1.369967248970     0.977587004270     1.007825032230
         H            2.271098721891    -0.854110751030    -0.297734095730     1.007825032230

  Basis Set: AUG-CC-PVTZ
    Blend: AUG-CC-PVTZ
  Basis Set: (AUG-CC-PVTZ AUX)
    Blend: AUG-CC-PVTZ-JKFIT
	 Reference Energy          =    -321.9902251017882691 [Eh]
	 Singles Energy            =      -0.0000000000000000 [Eh]
	 Same-Spin Energy          =      -0.3158791119915757 [Eh]
	 Opposite-Spin Energy      =      -0.9982985910139489 [Eh]
	 Correlation Energy        =      -1.3141777030055246 [Eh]
	 Total Energy              =    -323.3044028047937672 [Eh]

	 ================> DF-SCS-MP2 Energies <==================
	-----------------------------------------------------------
	 SCS Same-Spin Scale       =       0.3333333333333333 [-]
	 SCS Opposite-Spin Scale   =       1.2000000000000000 [-]
	 SCS Same-Spin Energy      =      -0.1052930373305252 [Eh]
	 SCS Opposite-Spin Energy  =      -1.1979583092167387 [Eh]
	 SCS Correlation Energy    =      -1.3032513465472639 [Eh]
	 SCS Total Energy          =    -323.2934764483355252 [Eh]
	-----------------------------------------------------------

  Dipole Moment: [D]
     X:     0.4741      Y:    -1.1344      Z:    -0.3279     Total:     1.2724

*** Psi4 exiting successfully. Buy a developer a beer!
