                               Psi4 1.3.2 release

  ==> Input File <==

--------------------------------------------------------------------------
#psi4
#
memory 32 gb

molecule  {
0 1
  O        1.4293010    -1.0173190    -0.5083850
  O        1.2616920     1.0439120     0.4876630
  N       -1.5094500     1.1665790    -0.0160500
  C       -0.7077286    -0.1251436    -0.3701993
  C       -1.3403730    -1.2419500     0.4105850
  C        0.7294260     0.0826320    -0.0646510
  H       -0.8593930    -0.2237720    -1.4273650
  H       -2.4052960    -1.3157140     0.1877600
  H       -0.8411410    -2.1737420     0.1227770
  H       -1.2225590    -1.1039570     1.4923070
  H       -1.0898030     1.9609300    -0.5079820
  H       -1.3695700     1.3697580     0.9773170
  H        2.3653570    -0.8358360    -0.2741470
units angstrom
no_reorient  #important for SAPT in psi4, default
symmetry c1  #important for SAPT in psi4, default
}

set PROPERTIES_ORIGIN ["COM"]
properties('MP2/aug-cc-pvtz', properties = ['dipole'])
--------------------------------------------------------------------------

    Molecular point group: c1
  Charge       = 0
  Multiplicity = 1
  Basis Set: AUG-CC-PVTZ
    Blend: AUG-CC-PVTZ
  Basis Set: (AUG-CC-PVTZ AUX)
    Blend: AUG-CC-PVTZ-JKFIT

    Orbital Energies [Eh]
    ---------------------

    Doubly Occupied:

       1A    -20.623068     2A    -20.565278     3A    -15.549976
       4A    -11.398781     5A    -11.285786     6A    -11.234272
       7A     -1.460719     8A     -1.361913     9A     -1.175749
      10A     -1.031433    11A     -0.918206    12A     -0.792486
      13A     -0.713953    14A     -0.704806    15A     -0.662790
      16A     -0.627017    17A     -0.608589    18A     -0.592005
      19A     -0.556095    20A     -0.528779    21A     -0.507771
      22A     -0.489258    23A     -0.464414    24A     -0.414719

  @DF-RHF Final Energy:  -321.98368923269641

   => Energetics <=

    Nuclear Repulsion Energy =            247.7765776704436007
    One-Electron Energy =                -930.9848084072449410
    Two-Electron Energy =                 361.2245415041049910
    Total Energy =                       -321.9836892326964062
  Basis Set: (AUG-CC-PVTZ AUX)
    Blend: AUG-CC-PVTZ-RI
    Molecular point group: c1

    Geometry (in Angstrom), charge = 0, multiplicity = 1:

       Center              X                  Y                   Z               Mass
    ------------   -----------------  -----------------  -----------------  -----------------
         O            1.422379758059    -1.006167673945    -0.505327681993    15.994914619570
         O            1.254770758059     1.055063326055     0.490720318007    15.994914619570
         N           -1.516371241941     1.177730326055    -0.012992681993    14.003074004430
         C           -0.714649841941    -0.113992273945    -0.367141981993    12.000000000000
         C           -1.347294241941    -1.230798673945     0.413642318007    12.000000000000
         C            0.722504758059     0.093783326055    -0.061593681993    12.000000000000
         H           -0.866314241941    -0.212620673945    -1.424307681993     1.007825032230
         H           -2.412217241941    -1.304562673945     0.190817318007     1.007825032230
         H           -0.848062241941    -2.162590673945     0.125834318007     1.007825032230
         H           -1.229480241941    -1.092805673945     1.495364318007     1.007825032230
         H           -1.096724241941     1.972081326055    -0.504924681993     1.007825032230
         H           -1.376491241941     1.380909326055     0.980374318007     1.007825032230
         H            2.358435758059    -0.824684673945    -0.271089681993     1.007825032230

  Basis Set: AUG-CC-PVTZ
    Blend: AUG-CC-PVTZ
  Basis Set: (AUG-CC-PVTZ AUX)
    Blend: AUG-CC-PVTZ-JKFIT
	 Reference Energy          =    -321.9836892326964062 [Eh]
	 Singles Energy            =      -0.0000000000000000 [Eh]
	 Same-Spin Energy          =      -0.3176114401313779 [Eh]
	 Opposite-Spin Energy      =      -1.0029012565628066 [Eh]
	 Correlation Energy        =      -1.3205126966941845 [Eh]
	 Total Energy              =    -323.3042019293906151 [Eh]

	 ================> DF-SCS-MP2 Energies <==================
	-----------------------------------------------------------
	 SCS Same-Spin Scale       =       0.3333333333333333 [-]
	 SCS Opposite-Spin Scale   =       1.2000000000000000 [-]
	 SCS Same-Spin Energy      =      -0.1058704800437926 [Eh]
	 SCS Opposite-Spin Energy  =      -1.2034815078753678 [Eh]
	 SCS Correlation Energy    =      -1.3093519879191604 [Eh]
	 SCS Total Energy          =    -323.2930412206155779 [Eh]
	-----------------------------------------------------------

  Dipole Moment: [D]
     X:     0.7361      Y:    -1.3225      Z:    -0.3282     Total:     1.5487

*** Psi4 exiting successfully. Buy a developer a beer!
