                               Psi4 1.3.2 release

  ==> Input File <==

--------------------------------------------------------------------------
#psi4
#
memory 32 gb

molecule  {
0 1
  O        1.4293010    -1.0173190    -0.5083850
  O        1.2616920     1.0439120     0.4876630
  N       -1.5094500     1.1665790    -0.0160500
  C       -0.8104474     0.0403556    -0.3248247
  C       -1.3403730    -1.2419500     0.4105850
  C        0.7294260     0.0826320    -0.0646510
  H       -0.8593930    -0.2237720    -1.4273650
  H       -2.4052960    -1.3157140     0.1877600
  H       -0.8411410    -2.1737420     0.1227770
  H       -1.2225590    -1.1039570     1.4923070
  H       -1.0898030     1.9609300    -0.5079820
  H       -1.3695700     1.3697580     0.9773170
  H        2.3653570    -0.8358360    -0.2741470
units angstrom
no_reorient  #important for SAPT in psi4, default
symmetry c1  #important for SAPT in psi4, default
}

set PROPERTIES_ORIGIN ["COM"]
properties('MP2/aug-cc-pvtz', properties = ['dipole'])
--------------------------------------------------------------------------

    Molecular point group: c1
  Charge       = 0
  Multiplicity = 1
  Basis Set: AUG-CC-PVTZ
    Blend: AUG-CC-PVTZ
  Basis Set: (AUG-CC-PVTZ AUX)
    Blend: AUG-CC-PVTZ-JKFIT

    Orbital Energies [Eh]
    ---------------------

    Doubly Occupied:

       1A    -20.622465     2A    -20.556440     3A    -15.556324
       4A    -11.390463     5A    -11.289037     6A    -11.232291
       7A     -1.454453     8A     -1.356731     9A     -1.232019
      10A     -1.011303    11A     -0.895740    12A     -0.793887
      13A     -0.708886    14A     -0.702715    15A     -0.686877
      16A     -0.624161    17A     -0.618342    18A     -0.595873
      19A     -0.550196    20A     -0.541338    21A     -0.496192
      22A     -0.479207    23A     -0.464842    24A     -0.408212

  @DF-RHF Final Energy:  -321.98416882878041

   => Energetics <=

    Nuclear Repulsion Energy =            247.9190513219033960
    One-Electron Energy =                -931.2704538814950865
    Two-Electron Energy =                 361.3672337308112219
    Total Energy =                       -321.9841688287804118
  Basis Set: (AUG-CC-PVTZ AUX)
    Blend: AUG-CC-PVTZ-RI
    Molecular point group: c1

    Geometry (in Angstrom), charge = 0, multiplicity = 1:

       Center              X                  Y                   Z               Mass
    ------------   -----------------  -----------------  -----------------  -----------------
         O            1.436222068394    -1.028470225051    -0.511442329891    15.994914619570
         O            1.268613068394     1.032760774949     0.484605670109    15.994914619570
         N           -1.502528931606     1.155427774949    -0.019107329891    14.003074004430
         C           -0.803526331606     0.029204374949    -0.327882029891    12.000000000000
         C           -1.333451931606    -1.253101225051     0.407527670109    12.000000000000
         C            0.736347068394     0.071480774949    -0.067708329891    12.000000000000
         H           -0.852471931606    -0.234923225051    -1.430422329891     1.007825032230
         H           -2.398374931606    -1.326865225051     0.184702670109     1.007825032230
         H           -0.834219931606    -2.184893225051     0.119719670109     1.007825032230
         H           -1.215637931606    -1.115108225051     1.489249670109     1.007825032230
         H           -1.082881931606     1.949778774949    -0.511039329891     1.007825032230
         H           -1.362648931606     1.358606774949     0.974259670109     1.007825032230
         H            2.372278068394    -0.846987225051    -0.277204329891     1.007825032230

  Basis Set: AUG-CC-PVTZ
    Blend: AUG-CC-PVTZ
  Basis Set: (AUG-CC-PVTZ AUX)
    Blend: AUG-CC-PVTZ-JKFIT
	 Reference Energy          =    -321.9841688287804118 [Eh]
	 Singles Energy            =      -0.0000000000000000 [Eh]
	 Same-Spin Energy          =      -0.3175961902148650 [Eh]
	 Opposite-Spin Energy      =      -1.0009448821805775 [Eh]
	 Correlation Energy        =      -1.3185410723954425 [Eh]
	 Total Energy              =    -323.3027099011758310 [Eh]

	 ================> DF-SCS-MP2 Energies <==================
	-----------------------------------------------------------
	 SCS Same-Spin Scale       =       0.3333333333333333 [-]
	 SCS Opposite-Spin Scale   =       1.2000000000000000 [-]
	 SCS Same-Spin Energy      =      -0.1058653967382883 [Eh]
	 SCS Opposite-Spin Energy  =      -1.2011338586166931 [Eh]
	 SCS Correlation Energy    =      -1.3069992553549814 [Eh]
	 SCS Total Energy          =    -323.2911680841353927 [Eh]
	-----------------------------------------------------------

  Dipole Moment: [D]
     X:     0.4137      Y:    -0.9226      Z:    -0.2904     Total:     1.0520

*** Psi4 exiting successfully. Buy a developer a beer!
