                               Psi4 1.3.2 release

  ==> Input File <==

--------------------------------------------------------------------------
#psi4
#
memory 32 gb

molecule  {
0 1
  O        1.3669548    -1.0454013    -0.5312505
  O        1.2035266     1.0710514     0.4927294
  N       -1.5094500     1.1665790    -0.0160500
  C       -0.7590880    -0.0423940    -0.3475120
  C       -1.3403730    -1.2419500     0.4105850
  C        0.7294260     0.0826320    -0.0646510
  H       -0.8593930    -0.2237720    -1.4273650
  H       -2.4052960    -1.3157140     0.1877600
  H       -0.8411410    -2.1737420     0.1227770
  H       -1.2225590    -1.1039570     1.4923070
  H       -1.0898030     1.9609300    -0.5079820
  H       -1.3695700     1.3697580     0.9773170
  H        2.3653570    -0.8358360    -0.2741470
units angstrom
no_reorient  #important for SAPT in psi4, default
symmetry c1  #important for SAPT in psi4, default
}

set PROPERTIES_ORIGIN ["COM"]
properties('MP2/aug-cc-pvtz', properties = ['dipole'])
--------------------------------------------------------------------------

    Molecular point group: c1
  Charge       = 0
  Multiplicity = 1
  Basis Set: AUG-CC-PVTZ
    Blend: AUG-CC-PVTZ
  Basis Set: (AUG-CC-PVTZ AUX)
    Blend: AUG-CC-PVTZ-JKFIT

    Orbital Energies [Eh]
    ---------------------

    Doubly Occupied:

       1A    -20.636634     2A    -20.565028     3A    -15.548619
       4A    -11.395777     5A    -11.279397     6A    -11.229955
       7A     -1.452327     8A     -1.363723     9A     -1.194247
      10A     -1.017595    11A     -0.901016    12A     -0.781050
      13A     -0.711147    14A     -0.699971    15A     -0.669718
      16A     -0.627094    17A     -0.606227    18A     -0.593847
      19A     -0.550639    20A     -0.527179    21A     -0.509413
      22A     -0.490595    23A     -0.459938    24A     -0.410838

  @DF-RHF Final Energy:  -321.98070154676674

   => Energetics <=

    Nuclear Repulsion Energy =            248.1510580718926064
    One-Electron Energy =                -931.8195740019706363
    Two-Electron Energy =                 361.6878143833112631
    Total Energy =                       -321.9807015467667384
  Basis Set: (AUG-CC-PVTZ AUX)
    Blend: AUG-CC-PVTZ-RI
    Molecular point group: c1

    Geometry (in Angstrom), charge = 0, multiplicity = 1:

       Center              X                  Y                   Z               Mass
    ------------   -----------------  -----------------  -----------------  -----------------
         O            1.388601237715    -1.045231883993    -0.528053397498    15.994914619570
         O            1.225173037715     1.071220816007     0.495926502502    15.994914619570
         N           -1.487803562285     1.166748416007    -0.012852897498    14.003074004430
         C           -0.737441562285    -0.042224583993    -0.344314897498    12.000000000000
         C           -1.318726562285    -1.241780583993     0.413782102502    12.000000000000
         C            0.751072437715     0.082801416007    -0.061453897498    12.000000000000
         H           -0.837746562285    -0.223602583993    -1.424167897498     1.007825032230
         H           -2.383649562285    -1.315544583993     0.190957102502     1.007825032230
         H           -0.819494562285    -2.173572583993     0.125974102502     1.007825032230
         H           -1.200912562285    -1.103787583993     1.495504102502     1.007825032230
         H           -1.068156562285     1.961099416007    -0.504784897498     1.007825032230
         H           -1.347923562285     1.369927416007     0.980514102502     1.007825032230
         H            2.387003437715    -0.835666583993    -0.270949897498     1.007825032230

  Basis Set: AUG-CC-PVTZ
    Blend: AUG-CC-PVTZ
  Basis Set: (AUG-CC-PVTZ AUX)
    Blend: AUG-CC-PVTZ-JKFIT
	 Reference Energy          =    -321.9807015467667384 [Eh]
	 Singles Energy            =      -0.0000000000000000 [Eh]
	 Same-Spin Energy          =      -0.3188677443259748 [Eh]
	 Opposite-Spin Energy      =      -1.0048271633819867 [Eh]
	 Correlation Energy        =      -1.3236949077079614 [Eh]
	 Total Energy              =    -323.3043964544747269 [Eh]

	 ================> DF-SCS-MP2 Energies <==================
	-----------------------------------------------------------
	 SCS Same-Spin Scale       =       0.3333333333333333 [-]
	 SCS Opposite-Spin Scale   =       1.2000000000000000 [-]
	 SCS Same-Spin Energy      =      -0.1062892481086583 [Eh]
	 SCS Opposite-Spin Energy  =      -1.2057925960583840 [Eh]
	 SCS Correlation Energy    =      -1.3120818441670421 [Eh]
	 SCS Total Energy          =    -323.2927833909337778 [Eh]
	-----------------------------------------------------------

  Dipole Moment: [D]
     X:     0.9448      Y:    -1.1958      Z:    -0.3088     Total:     1.5549

*** Psi4 exiting successfully. Buy a developer a beer!
