                               Psi4 1.3.2 release

  ==> Input File <==

--------------------------------------------------------------------------
#psi4
#
memory 32 gb

molecule  {
0 1
  O        1.4293010    -1.0173190    -0.5083850
  O        1.2616920     1.0439120     0.4876630
  N       -1.5094500     1.1665790    -0.0160500
  C       -0.7590880    -0.0423940    -0.3475120
  C       -1.3024665    -1.1637252     0.3611484
  C        0.7294260     0.0826320    -0.0646510
  H       -0.8593930    -0.2237720    -1.4273650
  H       -2.4052960    -1.3157140     0.1877600
  H       -0.8411410    -2.1737420     0.1227770
  H       -1.2225590    -1.1039570     1.4923070
  H       -1.0898030     1.9609300    -0.5079820
  H       -1.3695700     1.3697580     0.9773170
  H        2.3653570    -0.8358360    -0.2741470
units angstrom
no_reorient  #important for SAPT in psi4, default
symmetry c1  #important for SAPT in psi4, default
}

set PROPERTIES_ORIGIN ["COM"]
properties('MP2/aug-cc-pvtz', properties = ['dipole'])
--------------------------------------------------------------------------

    Molecular point group: c1
  Charge       = 0
  Multiplicity = 1
  Basis Set: AUG-CC-PVTZ
    Blend: AUG-CC-PVTZ
  Basis Set: (AUG-CC-PVTZ AUX)
    Blend: AUG-CC-PVTZ-JKFIT

    Orbital Energies [Eh]
    ---------------------

    Doubly Occupied:

       1A    -20.623610     2A    -20.562152     3A    -15.553526
       4A    -11.396048     5A    -11.282434     6A    -11.236685
       7A     -1.458599     8A     -1.360319     9A     -1.206100
      10A     -1.035493    11A     -0.901596    12A     -0.793360
      13A     -0.712929    14A     -0.705407    15A     -0.678525
      16A     -0.627805    17A     -0.611128    18A     -0.597600
      19A     -0.549316    20A     -0.526124    21A     -0.502422
      22A     -0.488946    23A     -0.459076    24A     -0.417990

  @DF-RHF Final Energy:  -321.98295901597908

   => Energetics <=

    Nuclear Repulsion Energy =            249.4250334454073368
    One-Electron Energy =                -934.2415999866747143
    Two-Electron Energy =                 362.8336075252882438
    Total Energy =                       -321.9829590159790769
  Basis Set: (AUG-CC-PVTZ AUX)
    Blend: AUG-CC-PVTZ-RI
    Molecular point group: c1

    Geometry (in Angstrom), charge = 0, multiplicity = 1:

       Center              X                  Y                   Z               Mass
    ------------   -----------------  -----------------  -----------------  -----------------
         O            1.424192661020    -1.027860466314    -0.501722965896    15.994914619570
         O            1.256583661020     1.033370533686     0.494325034104    15.994914619570
         N           -1.514558338980     1.156037533686    -0.009387965896    14.003074004430
         C           -0.764196338980    -0.052935466314    -0.340849965896    12.000000000000
         C           -1.307574838980    -1.174266666314     0.367810434104    12.000000000000
         C            0.724317661020     0.072090533686    -0.057988965896    12.000000000000
         H           -0.864501338980    -0.234313466314    -1.420702965896     1.007825032230
         H           -2.410404338980    -1.326255466314     0.194422034104     1.007825032230
         H           -0.846249338980    -2.184283466314     0.129439034104     1.007825032230
         H           -1.227667338980    -1.114498466314     1.498969034104     1.007825032230
         H           -1.094911338980     1.950388533686    -0.501319965896     1.007825032230
         H           -1.374678338980     1.359216533686     0.983979034104     1.007825032230
         H            2.360248661020    -0.846377466314    -0.267484965896     1.007825032230

  Basis Set: AUG-CC-PVTZ
    Blend: AUG-CC-PVTZ
  Basis Set: (AUG-CC-PVTZ AUX)
    Blend: AUG-CC-PVTZ-JKFIT
	 Reference Energy          =    -321.9829590159790769 [Eh]
	 Singles Energy            =      -0.0000000000000000 [Eh]
	 Same-Spin Energy          =      -0.3182101033128504 [Eh]
	 Opposite-Spin Energy      =      -1.0024519990739245 [Eh]
	 Correlation Energy        =      -1.3206621023867748 [Eh]
	 Total Energy              =    -323.3036211183658679 [Eh]

	 ================> DF-SCS-MP2 Energies <==================
	-----------------------------------------------------------
	 SCS Same-Spin Scale       =       0.3333333333333333 [-]
	 SCS Opposite-Spin Scale   =       1.2000000000000000 [-]
	 SCS Same-Spin Energy      =      -0.1060700344376168 [Eh]
	 SCS Opposite-Spin Energy  =      -1.2029423988887094 [Eh]
	 SCS Correlation Energy    =      -1.3090124333263262 [Eh]
	 SCS Total Energy          =    -323.2919714493053789 [Eh]
	-----------------------------------------------------------

  Dipole Moment: [D]
     X:     0.6319      Y:    -1.1505      Z:    -0.3300     Total:     1.3535

*** Psi4 exiting successfully. Buy a developer a beer!
