                               Psi4 1.4a3.dev225

  ==> Input File <==

--------------------------------------------------------------------------
#psi4
#
memory 32 gb

molecule  {
0 1
  O       -1.6162430     0.8314800    -0.3809140
  O       -1.1510000    -1.1772170     0.5605200
  N        1.5455560    -1.0219050    -0.2870820
  C        0.6665940     0.1335400    -0.4023590
  C        1.1923300     1.2755990     0.4679010
  C       -0.7726990    -0.1733030    -0.0203720
  H        0.6631468     0.4476462    -1.4001397
  H        2.2238070     1.4912930     0.1836440
  H        0.5830780     2.1739270     0.3501650
  H        1.1794500     0.9804810     1.5223570
  H        1.2015560    -1.7655910    -0.8946420
  H        1.4549450    -1.3946670     0.6589060
  H       -2.5041220     0.5561110    -0.0708870
units angstrom
no_reorient  #important for SAPT in psi4, default
symmetry c1  #important for SAPT in psi4, default
}

set PROPERTIES_ORIGIN ["COM"]
properties('MP2/aug-cc-pvtz', properties = ['dipole'])
--------------------------------------------------------------------------

    Molecular point group: c1
  Charge       = 0
  Multiplicity = 1
  Basis Set: AUG-CC-PVTZ
    Blend: AUG-CC-PVTZ
  Basis Set: (AUG-CC-PVTZ AUX)
    Blend: AUG-CC-PVTZ-JKFIT

    Orbital Energies [Eh]
    ---------------------

    Doubly Occupied:

       1A    -20.622117     2A    -20.558038     3A    -15.551574
       4A    -11.390253     5A    -11.277650     6A    -11.231167
       7A     -1.465332     8A     -1.362552     9A     -1.202154
      10A     -1.024698    11A     -0.908478    12A     -0.798876
      13A     -0.715462    14A     -0.707979    15A     -0.671806
      16A     -0.632448    17A     -0.609105    18A     -0.597439
      19A     -0.549853    20A     -0.532390    21A     -0.515754
      22A     -0.487201    23A     -0.462032    24A     -0.415069

  @DF-RHF Final Energy:  -321.99701426319325

   => Energetics <=

    Nuclear Repulsion Energy =            249.1288262960999873
    One-Electron Energy =                -933.6728259635801805
    Two-Electron Energy =                 362.5469854042869429
    Total Energy =                       -321.9970142631932504
  Basis Set: (AUG-CC-PVTZ AUX)
    Blend: AUG-CC-PVTZ-RI
    Molecular point group: c1

    Geometry (in Angstrom), charge = 0, multiplicity = 1:

       Center              X                  Y                   Z               Mass
    ------------   -----------------  -----------------  -----------------  -----------------
         O           -1.562955311464     0.859567592035    -0.378072034118    15.994914619570
         O           -1.097712311464    -1.149129407965     0.563361965882    15.994914619570
         N            1.598843688536    -0.993817407965    -0.284240034118    14.003074004430
         C            0.719881688536     0.161627592035    -0.399517034118    12.000000000000
         C            1.245617688536     1.303686592035     0.470742965882    12.000000000000
         C           -0.719411311464    -0.145215407965    -0.017530034118    12.000000000000
         H            0.716434488536     0.475733792035    -1.397297734118     1.007825032230
         H            2.277094688536     1.519380592035     0.186485965882     1.007825032230
         H            0.636365688536     2.202014592035     0.353006965882     1.007825032230
         H            1.232737688536     1.008568592035     1.525198965882     1.007825032230
         H            1.254843688536    -1.737503407965    -0.891800034118     1.007825032230
         H            1.508232688536    -1.366579407965     0.661747965882     1.007825032230
         H           -2.450834311464     0.584198592035    -0.068045034118     1.007825032230

  Basis Set: AUG-CC-PVTZ
    Blend: AUG-CC-PVTZ
  Basis Set: (AUG-CC-PVTZ AUX)
    Blend: AUG-CC-PVTZ-JKFIT
	 Reference Energy          =    -321.9970142631932504 [Eh]
	 Singles Energy            =      -0.0000000000000000 [Eh]
	 Same-Spin Energy          =      -0.3166921650785574 [Eh]
	 Opposite-Spin Energy      =      -0.9993679497792951 [Eh]
	 Correlation Energy        =      -1.3160601148578523 [Eh]
	 Total Energy              =    -323.3130743780511125 [Eh]

	 ================> DF-SCS-MP2 Energies <==================
	-----------------------------------------------------------
	 SCS Same-Spin Scale       =       0.3333333333333333 [-]
	 SCS Opposite-Spin Scale   =       1.2000000000000000 [-]
	 SCS Same-Spin Energy      =      -0.1055640550261858 [Eh]
	 SCS Opposite-Spin Energy  =      -1.1992415397351541 [Eh]
	 SCS Correlation Energy    =      -1.3048055947613399 [Eh]
	 SCS Total Energy          =    -323.3018198579545697 [Eh]
	-----------------------------------------------------------

  Dipole Moment: [D]
     X:    -0.7925      Y:     1.0562      Z:    -0.3631     Total:     1.3695

*** Psi4 exiting successfully. Buy a developer a beer!
