                               Psi4 1.4a3.dev225

  ==> Input File <==

--------------------------------------------------------------------------
#psi4
#
memory 32 gb

molecule  {
0 1
  O       -1.6162430     0.8314800    -0.3809140
  O       -1.1510000    -1.1772170     0.5605200
  N        1.5455560    -1.0219050    -0.2870820
  C        0.6665940     0.1335400    -0.4023590
  C        1.1923300     1.2755990     0.4679010
  C       -0.7726990    -0.1733030    -0.0203720
  H        0.6628172     0.4776738    -1.4955243
  H        2.2238070     1.4912930     0.1836440
  H        0.5830780     2.1739270     0.3501650
  H        1.1794500     0.9804810     1.5223570
  H        1.2015560    -1.7655910    -0.8946420
  H        1.4549450    -1.3946670     0.6589060
  H       -2.5041220     0.5561110    -0.0708870
units angstrom
no_reorient  #important for SAPT in psi4, default
symmetry c1  #important for SAPT in psi4, default
}

set PROPERTIES_ORIGIN ["COM"]
properties('MP2/aug-cc-pvtz', properties = ['dipole'])
--------------------------------------------------------------------------

    Molecular point group: c1
  Charge       = 0
  Multiplicity = 1
  Basis Set: AUG-CC-PVTZ
    Blend: AUG-CC-PVTZ
  Basis Set: (AUG-CC-PVTZ AUX)
    Blend: AUG-CC-PVTZ-JKFIT

    Orbital Energies [Eh]
    ---------------------

    Doubly Occupied:

       1A    -20.621844     2A    -20.558565     3A    -15.552565
       4A    -11.391109     5A    -11.289426     6A    -11.231864
       7A     -1.465307     8A     -1.362817     9A     -1.201092
      10A     -1.022378    11A     -0.906811    12A     -0.791031
      13A     -0.712345    14A     -0.704734    15A     -0.671989
      16A     -0.632351    17A     -0.608908    18A     -0.594839
      19A     -0.550254    20A     -0.532573    21A     -0.506865
      22A     -0.486940    23A     -0.462073    24A     -0.415188

  @DF-RHF Final Energy:  -321.99563218800228

   => Energetics <=

    Nuclear Repulsion Energy =            248.6171813407625564
    One-Electron Energy =                -932.6778925760146421
    Two-Electron Energy =                 362.0650790472497533
    Total Energy =                       -321.9956321880022756
  Basis Set: (AUG-CC-PVTZ AUX)
    Blend: AUG-CC-PVTZ-RI
    Molecular point group: c1

    Geometry (in Angstrom), charge = 0, multiplicity = 1:

       Center              X                  Y                   Z               Mass
    ------------   -----------------  -----------------  -----------------  -----------------
         O           -1.562951581113     0.859227745254    -0.376992488989    15.994914619570
         O           -1.097708581113    -1.149469254746     0.564441511011    15.994914619570
         N            1.598847418887    -0.994157254746    -0.283160488989    14.003074004430
         C            0.719885418887     0.161287745254    -0.398437488989    12.000000000000
         C            1.245621418887     1.303346745254     0.471822511011    12.000000000000
         C           -0.719407581113    -0.145555254746    -0.016450488989    12.000000000000
         H            0.716108618887     0.505421545254    -1.491602788989     1.007825032230
         H            2.277098418887     1.519040745254     0.187565511011     1.007825032230
         H            0.636369418887     2.201674745254     0.354086511011     1.007825032230
         H            1.232741418887     1.008228745254     1.526278511011     1.007825032230
         H            1.254847418887    -1.737843254746    -0.890720488989     1.007825032230
         H            1.508236418887    -1.366919254746     0.662827511011     1.007825032230
         H           -2.450830581113     0.583858745254    -0.066965488989     1.007825032230

  Basis Set: AUG-CC-PVTZ
    Blend: AUG-CC-PVTZ
  Basis Set: (AUG-CC-PVTZ AUX)
    Blend: AUG-CC-PVTZ-JKFIT
	 Reference Energy          =    -321.9956321880022756 [Eh]
	 Singles Energy            =      -0.0000000000000000 [Eh]
	 Same-Spin Energy          =      -0.3167978118611028 [Eh]
	 Opposite-Spin Energy      =      -1.0000312020003392 [Eh]
	 Correlation Energy        =      -1.3168290138614420 [Eh]
	 Total Energy              =    -323.3124612018636981 [Eh]

	 ================> DF-SCS-MP2 Energies <==================
	-----------------------------------------------------------
	 SCS Same-Spin Scale       =       0.3333333333333333 [-]
	 SCS Opposite-Spin Scale   =       1.2000000000000000 [-]
	 SCS Same-Spin Energy      =      -0.1055992706203676 [Eh]
	 SCS Opposite-Spin Energy  =      -1.2000374424004070 [Eh]
	 SCS Correlation Energy    =      -1.3056367130207747 [Eh]
	 SCS Total Energy          =    -323.3012689010230361 [Eh]
	-----------------------------------------------------------

  Dipole Moment: [D]
     X:    -0.7794      Y:     1.0428      Z:    -0.3307     Total:     1.3432

*** Psi4 exiting successfully. Buy a developer a beer!
