                               Psi4 1.3.2 release

  ==> Input File <==

--------------------------------------------------------------------------
#psi4
#
memory 32 gb

molecule  {
0 1
  O        1.4293010    -1.0173190    -0.5083850
  O        1.2616920     1.0439120     0.4876630
  N       -1.5169324     1.1597462    -0.0083119
  C       -0.7590880    -0.0423940    -0.3475120
  C       -1.3494972    -1.2339177     0.4161805
  C        0.7294260     0.0826320    -0.0646510
  H       -0.8593930    -0.2237720    -1.4273650
  H       -2.4052960    -1.3157140     0.1877600
  H       -0.8411410    -2.1737420     0.1227770
  H       -1.2225590    -1.1039570     1.4923070
  H       -1.0898030     1.9609300    -0.5079820
  H       -1.3695700     1.3697580     0.9773170
  H        2.3653570    -0.8358360    -0.2741470
units angstrom
no_reorient  #important for SAPT in psi4, default
symmetry c1  #important for SAPT in psi4, default
}

set PROPERTIES_ORIGIN ["COM"]
properties('MP2/aug-cc-pvtz', properties = ['dipole'])
--------------------------------------------------------------------------

    Molecular point group: c1
  Charge       = 0
  Multiplicity = 1
  Basis Set: AUG-CC-PVTZ
    Blend: AUG-CC-PVTZ
  Basis Set: (AUG-CC-PVTZ AUX)
    Blend: AUG-CC-PVTZ-JKFIT

    Orbital Energies [Eh]
    ---------------------

    Doubly Occupied:

       1A    -20.623249     2A    -20.561406     3A    -15.554124
       4A    -11.395468     5A    -11.286050     6A    -11.232615
       7A     -1.457903     8A     -1.359734     9A     -1.199127
      10A     -1.021227    11A     -0.907601    12A     -0.792556
      13A     -0.711171    14A     -0.702775    15A     -0.670092
      16A     -0.625939    17A     -0.609516    18A     -0.596971
      19A     -0.553064    20A     -0.524650    21A     -0.513514
      22A     -0.486662    23A     -0.462295    24A     -0.417182

  @DF-RHF Final Energy:  -321.99344042587649

   => Energetics <=

    Nuclear Repulsion Energy =            247.7683363917151951
    One-Electron Energy =                -930.9937676810396852
    Two-Electron Energy =                 361.2319908634479475
    Total Energy =                       -321.9934404258764857
  Basis Set: (AUG-CC-PVTZ AUX)
    Blend: AUG-CC-PVTZ-RI
    Molecular point group: c1

    Geometry (in Angstrom), charge = 0, multiplicity = 1:

       Center              X                  Y                   Z               Mass
    ------------   -----------------  -----------------  -----------------  -----------------
         O            1.431707118583    -1.017326893511    -0.510355896031    15.994914619570
         O            1.264098118583     1.043904106489     0.485692103969    15.994914619570
         N           -1.514526281417     1.159738306489    -0.010282796031    14.003074004430
         C           -0.756681881417    -0.042401893511    -0.349482896031    12.000000000000
         C           -1.347091081417    -1.233925593511     0.414209603969    12.000000000000
         C            0.731832118583     0.082624106489    -0.066621896031    12.000000000000
         H           -0.856986881417    -0.223779893511    -1.429335896031     1.007825032230
         H           -2.402889881417    -1.315721893511     0.185789103969     1.007825032230
         H           -0.838734881417    -2.173749893511     0.120806103969     1.007825032230
         H           -1.220152881417    -1.103964893511     1.490336103969     1.007825032230
         H           -1.087396881417     1.960922106489    -0.509952896031     1.007825032230
         H           -1.367163881417     1.369750106489     0.975346103969     1.007825032230
         H            2.367763118583    -0.835843893511    -0.276117896031     1.007825032230

  Basis Set: AUG-CC-PVTZ
    Blend: AUG-CC-PVTZ
  Basis Set: (AUG-CC-PVTZ AUX)
    Blend: AUG-CC-PVTZ-JKFIT
	 Reference Energy          =    -321.9934404258764857 [Eh]
	 Singles Energy            =      -0.0000000000000000 [Eh]
	 Same-Spin Energy          =      -0.3172202612623404 [Eh]
	 Opposite-Spin Energy      =      -1.0013606928130330 [Eh]
	 Correlation Energy        =      -1.3185809540753732 [Eh]
	 Total Energy              =    -323.3120213799518865 [Eh]

	 ================> DF-SCS-MP2 Energies <==================
	-----------------------------------------------------------
	 SCS Same-Spin Scale       =       0.3333333333333333 [-]
	 SCS Opposite-Spin Scale   =       1.2000000000000000 [-]
	 SCS Same-Spin Energy      =      -0.1057400870874468 [Eh]
	 SCS Opposite-Spin Energy  =      -1.2016328313756395 [Eh]
	 SCS Correlation Energy    =      -1.3073729184630862 [Eh]
	 SCS Total Energy          =    -323.3008133443395877 [Eh]
	-----------------------------------------------------------

  Dipole Moment: [D]
     X:     0.6130      Y:    -1.1334      Z:    -0.3227     Total:     1.3283

*** Psi4 exiting successfully. Buy a developer a beer!
