                               Psi4 1.3.2 release

  ==> Input File <==

--------------------------------------------------------------------------
#psi4
#
memory 32 gb

molecule  {
0 1
  O        1.4293010    -1.0173190    -0.5083850
  O        1.2616920     1.0439120     0.4876630
  N       -1.5094500     1.1665790    -0.0160500
  C       -0.7590880    -0.0423940    -0.3475120
  C       -1.3403730    -1.2419500     0.4105850
  C        0.7192315     0.0777050    -0.0686798
  H       -0.8593930    -0.2237720    -1.4273650
  H       -2.4052960    -1.3157140     0.1877600
  H       -0.8411410    -2.1737420     0.1227770
  H       -1.2225590    -1.1039570     1.4923070
  H       -1.0898030     1.9609300    -0.5079820
  H       -1.3695700     1.3697580     0.9773170
  H        2.3676312    -0.8433564    -0.2775653
units angstrom
no_reorient  #important for SAPT in psi4, default
symmetry c1  #important for SAPT in psi4, default
}

set PROPERTIES_ORIGIN ["COM"]
properties('MP2/aug-cc-pvtz', properties = ['dipole'])
--------------------------------------------------------------------------

    Molecular point group: c1
  Charge       = 0
  Multiplicity = 1
  Basis Set: AUG-CC-PVTZ
    Blend: AUG-CC-PVTZ
  Basis Set: (AUG-CC-PVTZ AUX)
    Blend: AUG-CC-PVTZ-JKFIT

    Orbital Energies [Eh]
    ---------------------

    Doubly Occupied:

       1A    -20.623039     2A    -20.559560     3A    -15.553825
       4A    -11.396186     5A    -11.286567     6A    -11.233856
       7A     -1.455313     8A     -1.353927     9A     -1.200224
      10A     -1.024305    11A     -0.909710    12A     -0.793770
      13A     -0.710365    14A     -0.701861    15A     -0.672667
      16A     -0.625363    17A     -0.607990    18A     -0.595696
      19A     -0.550598    20A     -0.530204    21A     -0.513449
      22A     -0.483203    23A     -0.460813    24A     -0.417935

  @DF-RHF Final Energy:  -321.99287903475243

   => Energetics <=

    Nuclear Repulsion Energy =            247.7942559595298064
    One-Electron Energy =                -931.0534162547684218
    Two-Electron Energy =                 361.2662812604862097
    Total Energy =                       -321.9928790347524341
  Basis Set: (AUG-CC-PVTZ AUX)
    Blend: AUG-CC-PVTZ-RI
    Molecular point group: c1

    Geometry (in Angstrom), charge = 0, multiplicity = 1:

       Center              X                  Y                   Z               Mass
    ------------   -----------------  -----------------  -----------------  -----------------
         O            1.430648977616    -1.016569876097    -0.507803400119    15.994914619570
         O            1.263039977616     1.044661123903     0.488244599881    15.994914619570
         N           -1.508102022384     1.167328123903    -0.015468400119    14.003074004430
         C           -0.757740022384    -0.041644876097    -0.346930400119    12.000000000000
         C           -1.339025022384    -1.241200876097     0.411166599881    12.000000000000
         C            0.720579477616     0.078454123903    -0.068098200119    12.000000000000
         H           -0.858045022384    -0.223022876097    -1.426783400119     1.007825032230
         H           -2.403948022384    -1.314964876097     0.188341599881     1.007825032230
         H           -0.839793022384    -2.172992876097     0.123358599881     1.007825032230
         H           -1.221211022384    -1.103207876097     1.492888599881     1.007825032230
         H           -1.088455022384     1.961679123903    -0.507400400119     1.007825032230
         H           -1.368222022384     1.370507123903     0.977898599881     1.007825032230
         H            2.368979177616    -0.842607276097    -0.276983700119     1.007825032230

  Basis Set: AUG-CC-PVTZ
    Blend: AUG-CC-PVTZ
  Basis Set: (AUG-CC-PVTZ AUX)
    Blend: AUG-CC-PVTZ-JKFIT
	 Reference Energy          =    -321.9928790347524341 [Eh]
	 Singles Energy            =      -0.0000000000000000 [Eh]
	 Same-Spin Energy          =      -0.3173994923072126 [Eh]
	 Opposite-Spin Energy      =      -1.0016104808087873 [Eh]
	 Correlation Energy        =      -1.3190099731160001 [Eh]
	 Total Energy              =    -323.3118890078684444 [Eh]

	 ================> DF-SCS-MP2 Energies <==================
	-----------------------------------------------------------
	 SCS Same-Spin Scale       =       0.3333333333333333 [-]
	 SCS Opposite-Spin Scale   =       1.2000000000000000 [-]
	 SCS Same-Spin Energy      =      -0.1057998307690709 [Eh]
	 SCS Opposite-Spin Energy  =      -1.2019325769705447 [Eh]
	 SCS Correlation Energy    =      -1.3077324077396155 [Eh]
	 SCS Total Energy          =    -323.3006114424920270 [Eh]
	-----------------------------------------------------------

  Dipole Moment: [D]
     X:     0.5523      Y:    -1.1891      Z:    -0.3392     Total:     1.3542

*** Psi4 exiting successfully. Buy a developer a beer!
