                               Psi4 1.3.2 release

  ==> Input File <==

--------------------------------------------------------------------------
#psi4
#
memory 32 gb

molecule  {
0 1
  O        1.4293010    -1.0173190    -0.5083850
  O        1.2616920     1.0439120     0.4876630
  N       -1.4943143     1.1799679    -0.0316014
  C       -0.7590880    -0.0423940    -0.3475120
  C       -1.3219925    -1.2577400     0.3992212
  C        0.7294260     0.0826320    -0.0646510
  H       -0.8593930    -0.2237720    -1.4273650
  H       -2.4052960    -1.3157140     0.1877600
  H       -0.8411410    -2.1737420     0.1227770
  H       -1.2225590    -1.1039570     1.4923070
  H       -1.0898030     1.9609300    -0.5079820
  H       -1.3695700     1.3697580     0.9773170
  H        2.3653570    -0.8358360    -0.2741470
units angstrom
no_reorient  #important for SAPT in psi4, default
symmetry c1  #important for SAPT in psi4, default
}

set PROPERTIES_ORIGIN ["COM"]
properties('MP2/aug-cc-pvtz', properties = ['dipole'])
--------------------------------------------------------------------------

    Molecular point group: c1
  Charge       = 0
  Multiplicity = 1
  Basis Set: AUG-CC-PVTZ
    Blend: AUG-CC-PVTZ
  Basis Set: (AUG-CC-PVTZ AUX)
    Blend: AUG-CC-PVTZ-JKFIT

    Orbital Energies [Eh]
    ---------------------

    Doubly Occupied:

       1A    -20.622516     2A    -20.560253     3A    -15.551767
       4A    -11.394042     5A    -11.286351     6A    -11.234134
       7A     -1.457154     8A     -1.358853     9A     -1.199647
      10A     -1.024437    11A     -0.906251    12A     -0.792389
      13A     -0.711189    14A     -0.701321    15A     -0.677401
      16A     -0.626955    17A     -0.607316    18A     -0.595167
      19A     -0.548215    20A     -0.539113    21A     -0.509969
      22A     -0.486288    23A     -0.460414    24A     -0.414551

  @DF-RHF Final Energy:  -321.99355030989636

   => Energetics <=

    Nuclear Repulsion Energy =            247.9111995887472801
    One-Electron Energy =                -931.2781138104870706
    Two-Electron Energy =                 361.3733639118433985
    Total Energy =                       -321.9935503098963636
  Basis Set: (AUG-CC-PVTZ AUX)
    Blend: AUG-CC-PVTZ-RI
    Molecular point group: c1

    Geometry (in Angstrom), charge = 0, multiplicity = 1:

       Center              X                  Y                   Z               Mass
    ------------   -----------------  -----------------  -----------------  -----------------
         O            1.424443826162    -1.017296554277    -0.504408113887    15.994914619570
         O            1.256834826162     1.043934445723     0.491639886113    15.994914619570
         N           -1.499171473838     1.179990345723    -0.027624513887    14.003074004430
         C           -0.763945173838    -0.042371554277    -0.343535113887    12.000000000000
         C           -1.326849673838    -1.257717554277     0.403198086113    12.000000000000
         C            0.724568826162     0.082654445723    -0.060674113887    12.000000000000
         H           -0.864250173838    -0.223749554277    -1.423388113887     1.007825032230
         H           -2.410153173838    -1.315691554277     0.191736886113     1.007825032230
         H           -0.845998173838    -2.173719554277     0.126753886113     1.007825032230
         H           -1.227416173838    -1.103934554277     1.496283886113     1.007825032230
         H           -1.094660173838     1.960952445723    -0.504005113887     1.007825032230
         H           -1.374427173838     1.369780445723     0.981293886113     1.007825032230
         H            2.360499826162    -0.835813554277    -0.270170113887     1.007825032230

  Basis Set: AUG-CC-PVTZ
    Blend: AUG-CC-PVTZ
  Basis Set: (AUG-CC-PVTZ AUX)
    Blend: AUG-CC-PVTZ-JKFIT
	 Reference Energy          =    -321.9935503098963636 [Eh]
	 Singles Energy            =      -0.0000000000000000 [Eh]
	 Same-Spin Energy          =      -0.3170834377911110 [Eh]
	 Opposite-Spin Energy      =      -1.0008521466563363 [Eh]
	 Correlation Energy        =      -1.3179355844474472 [Eh]
	 Total Energy              =    -323.3114858943438321 [Eh]

	 ================> DF-SCS-MP2 Energies <==================
	-----------------------------------------------------------
	 SCS Same-Spin Scale       =       0.3333333333333333 [-]
	 SCS Opposite-Spin Scale   =       1.2000000000000000 [-]
	 SCS Same-Spin Energy      =      -0.1056944792637037 [Eh]
	 SCS Opposite-Spin Energy  =      -1.2010225759876034 [Eh]
	 SCS Correlation Energy    =      -1.3067170552513070 [Eh]
	 SCS Total Energy          =    -323.3002673651476471 [Eh]
	-----------------------------------------------------------

  Dipole Moment: [D]
     X:     0.5626      Y:    -1.1675      Z:    -0.3022     Total:     1.3307

*** Psi4 exiting successfully. Buy a developer a beer!
