                               Psi4 1.3.2 release

  ==> Input File <==

--------------------------------------------------------------------------
#psi4
#
memory 32 gb

molecule  {
0 1
  O        1.4293010    -1.0173190    -0.5083850
  O        1.2616920     1.0439120     0.4876630
  N       -1.5094500     1.1665790    -0.0160500
  C       -0.7672080    -0.0405569    -0.3716136
  C       -1.3403730    -1.2419500     0.4105850
  C        0.7294260     0.0826320    -0.0646510
  H       -0.8593930    -0.2237720    -1.4273650
  H       -2.4052960    -1.3157140     0.1877600
  H       -0.8411410    -2.1737420     0.1227770
  H       -1.2225590    -1.1039570     1.4923070
  H       -1.0898030     1.9609300    -0.5079820
  H       -1.3800635     1.3841238     0.9756957
  H        2.3653570    -0.8358360    -0.2741470
units angstrom
no_reorient  #important for SAPT in psi4, default
symmetry c1  #important for SAPT in psi4, default
}

set PROPERTIES_ORIGIN ["COM"]
properties('MP2/aug-cc-pvtz', properties = ['dipole'])
--------------------------------------------------------------------------

    Molecular point group: c1
  Charge       = 0
  Multiplicity = 1
  Basis Set: AUG-CC-PVTZ
    Blend: AUG-CC-PVTZ
  Basis Set: (AUG-CC-PVTZ AUX)
    Blend: AUG-CC-PVTZ-JKFIT

    Orbital Energies [Eh]
    ---------------------

    Doubly Occupied:

       1A    -20.622571     2A    -20.560771     3A    -15.552721
       4A    -11.394705     5A    -11.285932     6A    -11.233213
       7A     -1.456997     8A     -1.358866     9A     -1.197953
      10A     -1.020152    11A     -0.905244    12A     -0.795254
      13A     -0.710569    14A     -0.701693    15A     -0.670300
      16A     -0.625253    17A     -0.609202    18A     -0.598684
      19A     -0.549708    20A     -0.529300    21A     -0.515692
      22A     -0.486385    23A     -0.460968    24A     -0.413981

  @DF-RHF Final Energy:  -321.99381166720002

   => Energetics <=

    Nuclear Repulsion Energy =            247.5406375718053198
    One-Electron Energy =                -930.5566716274631744
    Two-Electron Energy =                 361.0222223884578625
    Total Energy =                       -321.9938116672000206
  Basis Set: (AUG-CC-PVTZ AUX)
    Blend: AUG-CC-PVTZ-RI
    Molecular point group: c1

    Geometry (in Angstrom), charge = 0, multiplicity = 1:

       Center              X                  Y                   Z               Mass
    ------------   -----------------  -----------------  -----------------  -----------------
         O            1.430513921963    -1.017729105198    -0.505118742389    15.994914619570
         O            1.262904921963     1.043501894802     0.490929257611    15.994914619570
         N           -1.508237078037     1.166168894802    -0.012783742389    14.003074004430
         C           -0.765995078037    -0.040967005198    -0.368347342389    12.000000000000
         C           -1.339160078037    -1.242360105198     0.413851257611    12.000000000000
         C            0.730638921963     0.082221894802    -0.061384742389    12.000000000000
         H           -0.858180078037    -0.224182105198    -1.424098742389     1.007825032230
         H           -2.404083078037    -1.316124105198     0.191026257611     1.007825032230
         H           -0.839928078037    -2.174152105198     0.126043257611     1.007825032230
         H           -1.221346078037    -1.104367105198     1.495573257611     1.007825032230
         H           -1.088590078037     1.960519894802    -0.504715742389     1.007825032230
         H           -1.378850578037     1.383713694802     0.978961957611     1.007825032230
         H            2.366569921963    -0.836246105198    -0.270880742389     1.007825032230

  Basis Set: AUG-CC-PVTZ
    Blend: AUG-CC-PVTZ
  Basis Set: (AUG-CC-PVTZ AUX)
    Blend: AUG-CC-PVTZ-JKFIT
	 Reference Energy          =    -321.9938116672000206 [Eh]
	 Singles Energy            =      -0.0000000000000000 [Eh]
	 Same-Spin Energy          =      -0.3170170195265000 [Eh]
	 Opposite-Spin Energy      =      -1.0009566099735565 [Eh]
	 Correlation Energy        =      -1.3179736295000566 [Eh]
	 Total Energy              =    -323.3117852967000658 [Eh]

	 ================> DF-SCS-MP2 Energies <==================
	-----------------------------------------------------------
	 SCS Same-Spin Scale       =       0.3333333333333333 [-]
	 SCS Opposite-Spin Scale   =       1.2000000000000000 [-]
	 SCS Same-Spin Energy      =      -0.1056723398421667 [Eh]
	 SCS Opposite-Spin Energy  =      -1.2011479319682679 [Eh]
	 SCS Correlation Energy    =      -1.3068202718104345 [Eh]
	 SCS Total Energy          =    -323.3006319390104295 [Eh]
	-----------------------------------------------------------

  Dipole Moment: [D]
     X:     0.5875      Y:    -1.1314      Z:    -0.3280     Total:     1.3163

*** Psi4 exiting successfully. Buy a developer a beer!
