                               Psi4 1.3.2 release

  ==> Input File <==

--------------------------------------------------------------------------
#psi4
#
memory 32 gb

molecule  {
0 1
  O        1.4293010    -1.0173190    -0.5083850
  O        1.2616920     1.0439120     0.4876630
  N       -1.5094500     1.1665790    -0.0160500
  C       -0.7590880    -0.0423940    -0.3475120
  C       -1.3403730    -1.2419500     0.4105850
  C        0.6861454     0.0044667    -0.1095617
  H       -0.8593930    -0.2237720    -1.4273650
  H       -2.4052960    -1.3157140     0.1877600
  H       -0.8411410    -2.1737420     0.1227770
  H       -1.2225590    -1.1039570     1.4923070
  H       -1.0898030     1.9609300    -0.5079820
  H       -1.3695700     1.3697580     0.9773170
  H        2.3653570    -0.8358360    -0.2741470
units angstrom
no_reorient  #important for SAPT in psi4, default
symmetry c1  #important for SAPT in psi4, default
}

set PROPERTIES_ORIGIN ["COM"]
properties('MP2/aug-cc-pvtz', properties = ['dipole'])
--------------------------------------------------------------------------

    Molecular point group: c1
  Charge       = 0
  Multiplicity = 1
  Basis Set: AUG-CC-PVTZ
    Blend: AUG-CC-PVTZ
  Basis Set: (AUG-CC-PVTZ AUX)
    Blend: AUG-CC-PVTZ-JKFIT

    Orbital Energies [Eh]
    ---------------------

    Doubly Occupied:

       1A    -20.639168     2A    -20.542433     3A    -15.555679
       4A    -11.403089     5A    -11.288406     6A    -11.237767
       7A     -1.473646     8A     -1.305726     9A     -1.201371
      10A     -1.036030    11A     -0.923848    12A     -0.813616
      13A     -0.713345    14A     -0.707065    15A     -0.674500
      16A     -0.634241    17A     -0.608864    18A     -0.582378
      19A     -0.546815    20A     -0.528820    21A     -0.517949
      22A     -0.452997    23A     -0.447377    24A     -0.423726

  @DF-RHF Final Energy:  -321.97130878308752

   => Energetics <=

    Nuclear Repulsion Energy =            247.7815028019761598
    One-Electron Energy =                -930.9879065340106763
    Two-Electron Energy =                 361.2350949489469372
    Total Energy =                       -321.9713087830875224
  Basis Set: (AUG-CC-PVTZ AUX)
    Blend: AUG-CC-PVTZ-RI
    Molecular point group: c1

    Geometry (in Angstrom), charge = 0, multiplicity = 1:

       Center              X                  Y                   Z               Mass
    ------------   -----------------  -----------------  -----------------  -----------------
         O            1.435133375217    -1.006785450859    -0.502332872869    15.994914619570
         O            1.267524375217     1.054445549141     0.493715127131    15.994914619570
         N           -1.503617624783     1.177112549141    -0.009997872869    14.003074004430
         C           -0.753255624783    -0.031860450859    -0.341459872869    12.000000000000
         C           -1.334540624783    -1.231416450859     0.416637127131    12.000000000000
         C            0.691977775217     0.015000249141    -0.103509572869    12.000000000000
         H           -0.853560624783    -0.213238450859    -1.421312872869     1.007825032230
         H           -2.399463624783    -1.305180450859     0.193812127131     1.007825032230
         H           -0.835308624783    -2.163208450859     0.128829127131     1.007825032230
         H           -1.216726624783    -1.093423450859     1.498359127131     1.007825032230
         H           -1.083970624783     1.971463549141    -0.501929872869     1.007825032230
         H           -1.363737624783     1.380291549141     0.983369127131     1.007825032230
         H            2.371189375217    -0.825302450859    -0.268094872869     1.007825032230

  Basis Set: AUG-CC-PVTZ
    Blend: AUG-CC-PVTZ
  Basis Set: (AUG-CC-PVTZ AUX)
    Blend: AUG-CC-PVTZ-JKFIT
	 Reference Energy          =    -321.9713087830875224 [Eh]
	 Singles Energy            =      -0.0000000000000000 [Eh]
	 Same-Spin Energy          =      -0.3193734674669668 [Eh]
	 Opposite-Spin Energy      =      -1.0049054575034366 [Eh]
	 Correlation Energy        =      -1.3242789249704034 [Eh]
	 Total Energy              =    -323.2955877080579512 [Eh]

	 ================> DF-SCS-MP2 Energies <==================
	-----------------------------------------------------------
	 SCS Same-Spin Scale       =       0.3333333333333333 [-]
	 SCS Opposite-Spin Scale   =       1.2000000000000000 [-]
	 SCS Same-Spin Energy      =      -0.1064578224889889 [Eh]
	 SCS Opposite-Spin Energy  =      -1.2058865490041240 [Eh]
	 SCS Correlation Energy    =      -1.3123443714931129 [Eh]
	 SCS Total Energy          =    -323.2836531545806338 [Eh]
	-----------------------------------------------------------

  Dipole Moment: [D]
     X:     0.4436      Y:    -1.6917      Z:    -0.5892     Total:     1.8455

*** Psi4 exiting successfully. Buy a developer a beer!
