                               Psi4 1.3.2 release

  ==> Input File <==

--------------------------------------------------------------------------
#psi4
#
memory 32 gb

molecule  {
0 1
  O        1.4293010    -1.0173190    -0.5083850
  O        1.2616920     1.0439120     0.4876630
  N       -1.5094500     1.1665790    -0.0160500
  C       -0.7590880    -0.0423940    -0.3475120
  C       -1.3403730    -1.2419500     0.4105850
  C        0.7294260     0.0826320    -0.0646510
  H       -0.8593930    -0.2237720    -1.4273650
  H       -2.4052960    -1.3157140     0.1877600
  H       -0.8411410    -2.1737420     0.1227770
  H       -1.2225590    -1.1039570     1.4923070
  H       -1.0898030     1.9609300    -0.5079820
  H       -1.3695700     1.3697580     0.9773170
  H        2.1746826    -0.8728040    -0.3218612
units angstrom
no_reorient  #important for SAPT in psi4, default
symmetry c1  #important for SAPT in psi4, default
}

set PROPERTIES_ORIGIN ["COM"]
properties('MP2/aug-cc-pvtz', properties = ['dipole'])
--------------------------------------------------------------------------

    Molecular point group: c1
  Charge       = 0
  Multiplicity = 1
  Basis Set: AUG-CC-PVTZ
    Blend: AUG-CC-PVTZ
  Basis Set: (AUG-CC-PVTZ AUX)
    Blend: AUG-CC-PVTZ-JKFIT

    Orbital Energies [Eh]
    ---------------------

    Doubly Occupied:

       1A    -20.605956     2A    -20.565177     3A    -15.554483
       4A    -11.398989     5A    -11.287384     6A    -11.234388
       7A     -1.503804     8A     -1.379092     9A     -1.200940
      10A     -1.029195    11A     -0.926859    12A     -0.820468
      13A     -0.728539    14A     -0.706919    15A     -0.675282
      16A     -0.634242    17A     -0.620594    18A     -0.598218
      19A     -0.554245    20A     -0.531551    21A     -0.515695
      22A     -0.491497    23A     -0.465239    24A     -0.418159

  @DF-RHF Final Energy:  -321.95188940974259

   => Energetics <=

    Nuclear Repulsion Energy =            249.2377770964461661
    One-Electron Energy =                -933.4855040273309896
    Two-Electron Energy =                 362.2958375211422322
    Total Energy =                       -321.9518894097425914
  Basis Set: (AUG-CC-PVTZ AUX)
    Blend: AUG-CC-PVTZ-RI
    Molecular point group: c1

    Geometry (in Angstrom), charge = 0, multiplicity = 1:

       Center              X                  Y                   Z               Mass
    ------------   -----------------  -----------------  -----------------  -----------------
         O            1.431458930556    -1.016900552562    -0.507844985518    15.994914619570
         O            1.263849930556     1.044330447438     0.488203014482    15.994914619570
         N           -1.507292069444     1.166997447438    -0.015509985518    14.003074004430
         C           -0.756930069444    -0.041975552562    -0.346971985518    12.000000000000
         C           -1.338215069444    -1.241531552562     0.411125014482    12.000000000000
         C            0.731583930556     0.083050447438    -0.064110985518    12.000000000000
         H           -0.857235069444    -0.223353552562    -1.426824985518     1.007825032230
         H           -2.403138069444    -1.315295552562     0.188300014482     1.007825032230
         H           -0.838983069444    -2.173323552562     0.123317014482     1.007825032230
         H           -1.220401069444    -1.103538552562     1.492847014482     1.007825032230
         H           -1.087645069444     1.961348447438    -0.507441985518     1.007825032230
         H           -1.367412069444     1.370176447438     0.977857014482     1.007825032230
         H            2.176840530556    -0.872385552562    -0.321321185518     1.007825032230

  Basis Set: AUG-CC-PVTZ
    Blend: AUG-CC-PVTZ
  Basis Set: (AUG-CC-PVTZ AUX)
    Blend: AUG-CC-PVTZ-JKFIT
	 Reference Energy          =    -321.9518894097425914 [Eh]
	 Singles Energy            =      -0.0000000000000000 [Eh]
	 Same-Spin Energy          =      -0.3146904661279957 [Eh]
	 Opposite-Spin Energy      =      -0.9958392027041367 [Eh]
	 Correlation Energy        =      -1.3105296688321324 [Eh]
	 Total Energy              =    -323.2624190785747373 [Eh]

	 ================> DF-SCS-MP2 Energies <==================
	-----------------------------------------------------------
	 SCS Same-Spin Scale       =       0.3333333333333333 [-]
	 SCS Opposite-Spin Scale   =       1.2000000000000000 [-]
	 SCS Same-Spin Energy      =      -0.1048968220426652 [Eh]
	 SCS Opposite-Spin Energy  =      -1.1950070432449640 [Eh]
	 SCS Correlation Energy    =      -1.2999038652876291 [Eh]
	 SCS Total Energy          =    -323.2517932750301952 [Eh]
	-----------------------------------------------------------

  Dipole Moment: [D]
     X:     0.3484      Y:    -1.1137      Z:    -0.3348     Total:     1.2140

*** Psi4 exiting successfully. Buy a developer a beer!
