                               Psi4 1.3.2 release

  ==> Input File <==

--------------------------------------------------------------------------
#psi4
#
memory 32 gb

molecule  {
0 1
  O        1.4293010    -1.0173190    -0.5083850
  O        1.2616920     1.0439120     0.4876630
  N       -1.5094500     1.1665790    -0.0160500
  C       -0.7590880    -0.0423940    -0.3475120
  C       -1.3403730    -1.2419500     0.4105850
  C        0.7180883     0.0903880    -0.0133940
  H       -0.8974935    -0.2250680    -1.4229262
  H       -2.4052960    -1.3157140     0.1877600
  H       -0.8411410    -2.1737420     0.1227770
  H       -1.2225590    -1.1039570     1.4923070
  H       -1.0898030     1.9609300    -0.5079820
  H       -1.3695700     1.3697580     0.9773170
  H        2.3653570    -0.8358360    -0.2741470
units angstrom
no_reorient  #important for SAPT in psi4, default
symmetry c1  #important for SAPT in psi4, default
}

set PROPERTIES_ORIGIN ["COM"]
properties('MP2/aug-cc-pvtz', properties = ['dipole'])
--------------------------------------------------------------------------

    Molecular point group: c1
  Charge       = 0
  Multiplicity = 1
  Basis Set: AUG-CC-PVTZ
    Blend: AUG-CC-PVTZ
  Basis Set: (AUG-CC-PVTZ AUX)
    Blend: AUG-CC-PVTZ-JKFIT

    Orbital Energies [Eh]
    ---------------------

    Doubly Occupied:

       1A    -20.614773     2A    -20.567473     3A    -15.553506
       4A    -11.394555     5A    -11.286228     6A    -11.232333
       7A     -1.455202     8A     -1.364889     9A     -1.200694
      10A     -1.021899    11A     -0.902713    12A     -0.786754
      13A     -0.711626    14A     -0.703466    15A     -0.671902
      16A     -0.623455    17A     -0.609855    18A     -0.597884
      19A     -0.551804    20A     -0.530178    21A     -0.510316
      22A     -0.493443    23A     -0.465561    24A     -0.416096

  @DF-RHF Final Energy:  -321.99295648771317

   => Energetics <=

    Nuclear Repulsion Energy =            247.8972597412036976
    One-Electron Energy =                -931.2472198176826623
    Two-Electron Energy =                 361.3570035887657923
    Total Energy =                       -321.9929564877131725
  Basis Set: (AUG-CC-PVTZ AUX)
    Blend: AUG-CC-PVTZ-RI
    Molecular point group: c1

    Geometry (in Angstrom), charge = 0, multiplicity = 1:

       Center              X                  Y                   Z               Mass
    ------------   -----------------  -----------------  -----------------  -----------------
         O            1.431259987743    -1.018349474497    -0.515342599272    15.994914619570
         O            1.263650987743     1.042881525503     0.480705400728    15.994914619570
         N           -1.507491012257     1.165548525503    -0.023007599272    14.003074004430
         C           -0.757129012257    -0.043424474497    -0.354469599272    12.000000000000
         C           -1.338414012257    -1.242980474497     0.403627400728    12.000000000000
         C            0.720047287743     0.089357525503    -0.020351599272    12.000000000000
         H           -0.895534512257    -0.226098474497    -1.429883799272     1.007825032230
         H           -2.403337012257    -1.316744474497     0.180802400728     1.007825032230
         H           -0.839182012257    -2.174772474497     0.115819400728     1.007825032230
         H           -1.220600012257    -1.104987474497     1.485349400728     1.007825032230
         H           -1.087844012257     1.959899525503    -0.514939599272     1.007825032230
         H           -1.367611012257     1.368727525503     0.970359400728     1.007825032230
         H            2.367315987743    -0.836866474497    -0.281104599272     1.007825032230

  Basis Set: AUG-CC-PVTZ
    Blend: AUG-CC-PVTZ
  Basis Set: (AUG-CC-PVTZ AUX)
    Blend: AUG-CC-PVTZ-JKFIT
	 Reference Energy          =    -321.9929564877131725 [Eh]
	 Singles Energy            =      -0.0000000000000000 [Eh]
	 Same-Spin Energy          =      -0.3169648008023769 [Eh]
	 Opposite-Spin Energy      =      -1.0010816938739675 [Eh]
	 Correlation Energy        =      -1.3180464946763444 [Eh]
	 Total Energy              =    -323.3110029823895388 [Eh]

	 ================> DF-SCS-MP2 Energies <==================
	-----------------------------------------------------------
	 SCS Same-Spin Scale       =       0.3333333333333333 [-]
	 SCS Opposite-Spin Scale   =       1.2000000000000000 [-]
	 SCS Same-Spin Energy      =      -0.1056549336007923 [Eh]
	 SCS Opposite-Spin Energy  =      -1.2012980326487610 [Eh]
	 SCS Correlation Energy    =      -1.3069529662495534 [Eh]
	 SCS Total Energy          =    -323.2999094539626981 [Eh]
	-----------------------------------------------------------

  Dipole Moment: [D]
     X:     0.5264      Y:    -0.9454      Z:    -0.1858     Total:     1.0979

*** Psi4 exiting successfully. Buy a developer a beer!
