                               Psi4 1.3.2 release

  ==> Input File <==

--------------------------------------------------------------------------
#psi4
#
memory 32 gb

molecule  {
0 1
  O        1.4293010    -1.0173190    -0.5083850
  O        1.2616920     1.0439120     0.4876630
  N       -1.5094500     1.1665790    -0.0160500
  C       -0.7631196    -0.0415215    -0.3595759
  C       -1.3403730    -1.2419500     0.4105850
  C        0.7294260     0.0826320    -0.0646510
  H       -0.8593930    -0.2237720    -1.4273650
  H       -2.4052960    -1.3157140     0.1877600
  H       -0.8411410    -2.1737420     0.1227770
  H       -1.2225590    -1.1039570     1.4923070
  H       -1.0898030     1.9609300    -0.5079820
  H       -1.3748116     1.3769489     0.9765441
  H        2.3653570    -0.8358360    -0.2741470
units angstrom
no_reorient  #important for SAPT in psi4, default
symmetry c1  #important for SAPT in psi4, default
}

set PROPERTIES_ORIGIN ["COM"]
properties('MP2/aug-cc-pvtz', properties = ['dipole'])
--------------------------------------------------------------------------

    Molecular point group: c1
  Charge       = 0
  Multiplicity = 1
  Basis Set: AUG-CC-PVTZ
    Blend: AUG-CC-PVTZ
  Basis Set: (AUG-CC-PVTZ AUX)
    Blend: AUG-CC-PVTZ-JKFIT

    Orbital Energies [Eh]
    ---------------------

    Doubly Occupied:

       1A    -20.622788     2A    -20.560896     3A    -15.553001
       4A    -11.394842     5A    -11.285989     6A    -11.233116
       7A     -1.457324     8A     -1.359151     9A     -1.198572
      10A     -1.021185    11A     -0.906151    12A     -0.793802
      13A     -0.710848    14A     -0.701995    15A     -0.671366
      16A     -0.625806    17A     -0.608920    18A     -0.597523
      19A     -0.550324    20A     -0.529226    21A     -0.514528
      22A     -0.486517    23A     -0.461341    24A     -0.415148

  @DF-RHF Final Energy:  -321.99425912924249

   => Energetics <=

    Nuclear Repulsion Energy =            247.6773250590014470
    One-Electron Energy =                -930.8224551264447655
    Two-Electron Energy =                 361.1508709382008533
    Total Energy =                       -321.9942591292424936
  Basis Set: (AUG-CC-PVTZ AUX)
    Blend: AUG-CC-PVTZ-RI
    Molecular point group: c1

    Geometry (in Angstrom), charge = 0, multiplicity = 1:

       Center              X                  Y                   Z               Mass
    ------------   -----------------  -----------------  -----------------  -----------------
         O            1.429903532145    -1.017517912226    -0.506750536067    15.994914619570
         O            1.262294532145     1.043713087774     0.489297463933    15.994914619570
         N           -1.508847467855     1.166380087774    -0.014415536067    14.003074004430
         C           -0.762517067855    -0.041720412226    -0.357941436067    12.000000000000
         C           -1.339770467855    -1.242148912226     0.412219463933    12.000000000000
         C            0.730028532145     0.082433087774    -0.063016536067    12.000000000000
         H           -0.858790467855    -0.223970912226    -1.425730536067     1.007825032230
         H           -2.404693467855    -1.315912912226     0.189394463933     1.007825032230
         H           -0.840538467855    -2.173940912226     0.124411463933     1.007825032230
         H           -1.221956467855    -1.104155912226     1.493941463933     1.007825032230
         H           -1.089200467855     1.960731087774    -0.506347536067     1.007825032230
         H           -1.374209067855     1.376749987774     0.978178563933     1.007825032230
         H            2.365959532145    -0.836034912226    -0.272512536067     1.007825032230

  Basis Set: AUG-CC-PVTZ
    Blend: AUG-CC-PVTZ
  Basis Set: (AUG-CC-PVTZ AUX)
    Blend: AUG-CC-PVTZ-JKFIT
	 Reference Energy          =    -321.9942591292424936 [Eh]
	 Singles Energy            =      -0.0000000000000000 [Eh]
	 Same-Spin Energy          =      -0.3170832882355986 [Eh]
	 Opposite-Spin Energy      =      -1.0010409660769302 [Eh]
	 Correlation Energy        =      -1.3181242543125289 [Eh]
	 Total Energy              =    -323.3123833835550158 [Eh]

	 ================> DF-SCS-MP2 Energies <==================
	-----------------------------------------------------------
	 SCS Same-Spin Scale       =       0.3333333333333333 [-]
	 SCS Opposite-Spin Scale   =       1.2000000000000000 [-]
	 SCS Same-Spin Energy      =      -0.1056944294118662 [Eh]
	 SCS Opposite-Spin Energy  =      -1.2012491592923162 [Eh]
	 SCS Correlation Energy    =      -1.3069435887041825 [Eh]
	 SCS Total Energy          =    -323.3012027179466941 [Eh]
	-----------------------------------------------------------

  Dipole Moment: [D]
     X:     0.5923      Y:    -1.1383      Z:    -0.3222     Total:     1.3230

*** Psi4 exiting successfully. Buy a developer a beer!
