                               Psi4 1.3.2 release

  ==> Input File <==

--------------------------------------------------------------------------
#psi4
#
memory 32 gb

molecule  {
0 1
  O        1.4293010    -1.0173190    -0.5083850
  O        1.2616920     1.0439120     0.4876630
  N       -1.5094500     1.1665790    -0.0160500
  C       -0.7590880    -0.0423940    -0.3475120
  C       -1.3403730    -1.2419500     0.4105850
  C        0.7294260     0.0826320    -0.0646510
  H       -0.8593930    -0.2237720    -1.4273650
  H       -2.4052960    -1.3157140     0.1877600
  H       -0.8411410    -2.1737420     0.1227770
  H       -1.2225590    -1.1039570     1.4923070
  H       -1.0811233     1.9751341    -0.4763424
  H       -1.3532209     1.4001730     0.9681514
  H        2.3653570    -0.8358360    -0.2741470
units angstrom
no_reorient  #important for SAPT in psi4, default
symmetry c1  #important for SAPT in psi4, default
}

set PROPERTIES_ORIGIN ["COM"]
properties('MP2/aug-cc-pvtz', properties = ['dipole'])
--------------------------------------------------------------------------

    Molecular point group: c1
  Charge       = 0
  Multiplicity = 1
  Basis Set: AUG-CC-PVTZ
    Blend: AUG-CC-PVTZ
  Basis Set: (AUG-CC-PVTZ AUX)
    Blend: AUG-CC-PVTZ-JKFIT

    Orbital Energies [Eh]
    ---------------------

    Doubly Occupied:

       1A    -20.623300     2A    -20.561455     3A    -15.553458
       4A    -11.395491     5A    -11.286693     6A    -11.233066
       7A     -1.457995     8A     -1.359863     9A     -1.199587
      10A     -1.023259    11A     -0.907237    12A     -0.793624
      13A     -0.711318    14A     -0.702429    15A     -0.669786
      16A     -0.625657    17A     -0.609648    18A     -0.595576
      19A     -0.551242    20A     -0.530334    21A     -0.511596
      22A     -0.486998    23A     -0.462229    24A     -0.418180

  @DF-RHF Final Energy:  -321.99383934522064

   => Energetics <=

    Nuclear Repulsion Energy =            247.7986945377717802
    One-Electron Energy =                -931.0450257638693756
    Two-Electron Energy =                 361.2524918808769598
    Total Energy =                       -321.9938393452206356
  Basis Set: (AUG-CC-PVTZ AUX)
    Blend: AUG-CC-PVTZ-RI
    Molecular point group: c1

    Geometry (in Angstrom), charge = 0, multiplicity = 1:

       Center              X                  Y                   Z               Mass
    ------------   -----------------  -----------------  -----------------  -----------------
         O            1.429017641932    -1.017823940158    -0.508639362487    15.994914619570
         O            1.261408641932     1.043407059842     0.487408637513    15.994914619570
         N           -1.509733358068     1.166074059842    -0.016304362487    14.003074004430
         C           -0.759371358068    -0.042898940158    -0.347766362487    12.000000000000
         C           -1.340656358068    -1.242454940158     0.410330637513    12.000000000000
         C            0.729142641932     0.082127059842    -0.064905362487    12.000000000000
         H           -0.859676358068    -0.224276940158    -1.427619362487     1.007825032230
         H           -2.405579358068    -1.316218940158     0.187505637513     1.007825032230
         H           -0.841424358068    -2.174246940158     0.122522637513     1.007825032230
         H           -1.222842358068    -1.104461940158     1.492052637513     1.007825032230
         H           -1.081406658068     1.974629159842    -0.476596762487     1.007825032230
         H           -1.353504258068     1.399668059842     0.967897037513     1.007825032230
         H            2.365073641932    -0.836340940158    -0.274401362487     1.007825032230

  Basis Set: AUG-CC-PVTZ
    Blend: AUG-CC-PVTZ
  Basis Set: (AUG-CC-PVTZ AUX)
    Blend: AUG-CC-PVTZ-JKFIT
	 Reference Energy          =    -321.9938393452206356 [Eh]
	 Singles Energy            =      -0.0000000000000000 [Eh]
	 Same-Spin Energy          =      -0.3171811496098661 [Eh]
	 Opposite-Spin Energy      =      -1.0011962685458498 [Eh]
	 Correlation Energy        =      -1.3183774181557157 [Eh]
	 Total Energy              =    -323.3122167633763411 [Eh]

	 ================> DF-SCS-MP2 Energies <==================
	-----------------------------------------------------------
	 SCS Same-Spin Scale       =       0.3333333333333333 [-]
	 SCS Opposite-Spin Scale   =       1.2000000000000000 [-]
	 SCS Same-Spin Energy      =      -0.1057270498699554 [Eh]
	 SCS Opposite-Spin Energy  =      -1.2014355222550197 [Eh]
	 SCS Correlation Energy    =      -1.3071625721249751 [Eh]
	 SCS Total Energy          =    -323.3010019173456158 [Eh]
	-----------------------------------------------------------

  Dipole Moment: [D]
     X:     0.6374      Y:    -1.1315      Z:    -0.2983     Total:     1.3325

*** Psi4 exiting successfully. Buy a developer a beer!
