                               Psi4 1.3.2 release

  ==> Input File <==

--------------------------------------------------------------------------
#psi4
#
memory 32 gb

molecule  {
0 1
  O        1.4697827    -0.9970095    -0.4922762
  O        1.2616920     1.0439120     0.4876630
  N       -1.5094500     1.1665790    -0.0160500
  C       -0.7664140     0.0050829    -0.3249675
  C       -1.3403730    -1.2419500     0.4105850
  C        0.7294260     0.0826320    -0.0646510
  H       -0.8593930    -0.2237720    -1.4273650
  H       -2.4052960    -1.3157140     0.1877600
  H       -0.8411410    -2.1737420     0.1227770
  H       -1.2225590    -1.1039570     1.4923070
  H       -1.0898030     1.9609300    -0.5079820
  H       -1.3695700     1.3697580     0.9773170
  H        2.3653570    -0.8358360    -0.2741470
units angstrom
no_reorient  #important for SAPT in psi4, default
symmetry c1  #important for SAPT in psi4, default
}

set PROPERTIES_ORIGIN ["COM"]
properties('MP2/aug-cc-pvtz', properties = ['dipole'])
--------------------------------------------------------------------------

    Molecular point group: c1
  Charge       = 0
  Multiplicity = 1
  Basis Set: AUG-CC-PVTZ
    Blend: AUG-CC-PVTZ
  Basis Set: (AUG-CC-PVTZ AUX)
    Blend: AUG-CC-PVTZ-JKFIT

    Orbital Energies [Eh]
    ---------------------

    Doubly Occupied:

       1A    -20.616820     2A    -20.556792     3A    -15.556632
       4A    -11.393442     5A    -11.289370     6A    -11.234228
       7A     -1.461890     8A     -1.359435     9A     -1.215651
      10A     -1.019391    11A     -0.908491    12A     -0.801196
      13A     -0.712748    14A     -0.703389    15A     -0.681103
      16A     -0.626148    17A     -0.613939    18A     -0.594499
      19A     -0.550670    20A     -0.537716    21A     -0.502491
      22A     -0.481044    23A     -0.462154    24A     -0.418676

  @DF-RHF Final Energy:  -321.99279506192624

   => Energetics <=

    Nuclear Repulsion Energy =            248.0891658020252351
    One-Electron Energy =                -931.5680950203789052
    Two-Electron Energy =                 361.4861341564273971
    Total Energy =                       -321.9927950619262447
  Basis Set: (AUG-CC-PVTZ AUX)
    Blend: AUG-CC-PVTZ-RI
    Molecular point group: c1

    Geometry (in Angstrom), charge = 0, multiplicity = 1:

       Center              X                  Y                   Z               Mass
    ------------   -----------------  -----------------  -----------------  -----------------
         O            1.463498459111    -1.007055433109    -0.498207779788    15.994914619570
         O            1.255407759111     1.033866066891     0.481731420212    15.994914619570
         N           -1.515734240889     1.156533066891    -0.021981579788    14.003074004430
         C           -0.772698240889    -0.004963033109    -0.330899079788    12.000000000000
         C           -1.346657240889    -1.251995933109     0.404653420212    12.000000000000
         C            0.723141759111     0.072586066891    -0.070582579788    12.000000000000
         H           -0.865677240889    -0.233817933109    -1.433296579788     1.007825032230
         H           -2.411580240889    -1.325759933109     0.181828420212     1.007825032230
         H           -0.847425240889    -2.183787933109     0.116845420212     1.007825032230
         H           -1.228843240889    -1.114002933109     1.486375420212     1.007825032230
         H           -1.096087240889     1.950884066891    -0.513913579788     1.007825032230
         H           -1.375854240889     1.359712066891     0.971385420212     1.007825032230
         H            2.359072759111    -0.845881933109    -0.280078579788     1.007825032230

  Basis Set: AUG-CC-PVTZ
    Blend: AUG-CC-PVTZ
  Basis Set: (AUG-CC-PVTZ AUX)
    Blend: AUG-CC-PVTZ-JKFIT
	 Reference Energy          =    -321.9927950619262447 [Eh]
	 Singles Energy            =      -0.0000000000000000 [Eh]
	 Same-Spin Energy          =      -0.3164898570085755 [Eh]
	 Opposite-Spin Energy      =      -0.9992137151088829 [Eh]
	 Correlation Energy        =      -1.3157035721174584 [Eh]
	 Total Energy              =    -323.3084986340437013 [Eh]

	 ================> DF-SCS-MP2 Energies <==================
	-----------------------------------------------------------
	 SCS Same-Spin Scale       =       0.3333333333333333 [-]
	 SCS Opposite-Spin Scale   =       1.2000000000000000 [-]
	 SCS Same-Spin Energy      =      -0.1054966190028585 [Eh]
	 SCS Opposite-Spin Energy  =      -1.1990564581306595 [Eh]
	 SCS Correlation Energy    =      -1.3045530771335181 [Eh]
	 SCS Total Energy          =    -323.2973481390597499 [Eh]
	-----------------------------------------------------------

  Dipole Moment: [D]
     X:     0.4032      Y:    -1.0387      Z:    -0.3082     Total:     1.1561

*** Psi4 exiting successfully. Buy a developer a beer!
