                               Psi4 1.4a3.dev225

  ==> Input File <==

--------------------------------------------------------------------------
#psi4
#
memory 32 gb

molecule  {
0 1
  O       -1.6162430     0.8314800    -0.3809140
  O       -1.1510000    -1.1772170     0.5605200
  N        1.5455560    -1.0219050    -0.2870820
  C        0.6665940     0.1335400    -0.4023590
  C        1.1923300     1.2755990     0.4679010
  C       -0.7726990    -0.1733030    -0.0203720
  H        0.6629820     0.4626600    -1.4478320
  H        2.2238070     1.4912930     0.1836440
  H        0.5830780     2.1739270     0.3501650
  H        1.1794500     0.9804810     1.5223570
  H        1.2015560    -1.7655910    -0.8946420
  H        1.4593832    -1.3764089     0.6125709
  H       -2.5041220     0.5561110    -0.0708870
units angstrom
no_reorient  #important for SAPT in psi4, default
symmetry c1  #important for SAPT in psi4, default
}

set PROPERTIES_ORIGIN ["COM"]
properties('MP2/aug-cc-pvtz', properties = ['dipole'])
--------------------------------------------------------------------------

    Molecular point group: c1
  Charge       = 0
  Multiplicity = 1
  Basis Set: AUG-CC-PVTZ
    Blend: AUG-CC-PVTZ
  Basis Set: (AUG-CC-PVTZ AUX)
    Blend: AUG-CC-PVTZ-JKFIT

    Orbital Energies [Eh]
    ---------------------

    Doubly Occupied:

       1A    -20.622064     2A    -20.558426     3A    -15.546654
       4A    -11.390801     5A    -11.283583     6A    -11.231642
       7A     -1.465424     8A     -1.362823     9A     -1.207761
      10A     -1.026485    11A     -0.908098    12A     -0.796869
      13A     -0.714177    14A     -0.708144    15A     -0.673940
      16A     -0.633055    17A     -0.611735    18A     -0.599972
      19A     -0.550210    20A     -0.532578    21A     -0.512874
      22A     -0.487229    23A     -0.462437    24A     -0.415862

  @DF-RHF Final Energy:  -321.99733742975997

   => Energetics <=

    Nuclear Repulsion Energy =            249.1159774540069236
    One-Electron Energy =                -933.6209419217609593
    Two-Electron Energy =                 362.5076270379940411
    Total Energy =                       -321.9973374297599662
  Basis Set: (AUG-CC-PVTZ AUX)
    Blend: AUG-CC-PVTZ-RI
    Molecular point group: c1

    Geometry (in Angstrom), charge = 0, multiplicity = 1:

       Center              X                  Y                   Z               Mass
    ------------   -----------------  -----------------  -----------------  -----------------
         O           -1.563003677009     0.859191026871    -0.377007849525    15.994914619570
         O           -1.097760677009    -1.149505973129     0.564426150475    15.994914619570
         N            1.598795322991    -0.994193973129    -0.283175849525    14.003074004430
         C            0.719833322991     0.161251026871    -0.398452849525    12.000000000000
         C            1.245569322991     1.303310026871     0.471807150475    12.000000000000
         C           -0.719459677009    -0.145591973129    -0.016465849525    12.000000000000
         H            0.716221322991     0.490371026871    -1.443925849525     1.007825032230
         H            2.277046322991     1.519004026871     0.187550150475     1.007825032230
         H            0.636317322991     2.201638026871     0.354071150475     1.007825032230
         H            1.232689322991     1.008192026871     1.526263150475     1.007825032230
         H            1.254795322991    -1.737879973129    -0.890735849525     1.007825032230
         H            1.512622522991    -1.348697873129     0.616477050475     1.007825032230
         H           -2.450882677009     0.583822026871    -0.066980849525     1.007825032230

  Basis Set: AUG-CC-PVTZ
    Blend: AUG-CC-PVTZ
  Basis Set: (AUG-CC-PVTZ AUX)
    Blend: AUG-CC-PVTZ-JKFIT
	 Reference Energy          =    -321.9973374297599662 [Eh]
	 Singles Energy            =      -0.0000000000000000 [Eh]
	 Same-Spin Energy          =      -0.3164663676594897 [Eh]
	 Opposite-Spin Energy      =      -0.9988578040951328 [Eh]
	 Correlation Energy        =      -1.3153241717546225 [Eh]
	 Total Energy              =    -323.3126616015146055 [Eh]

	 ================> DF-SCS-MP2 Energies <==================
	-----------------------------------------------------------
	 SCS Same-Spin Scale       =       0.3333333333333333 [-]
	 SCS Opposite-Spin Scale   =       1.2000000000000000 [-]
	 SCS Same-Spin Energy      =      -0.1054887892198299 [Eh]
	 SCS Opposite-Spin Energy  =      -1.1986293649141593 [Eh]
	 SCS Correlation Energy    =      -1.3041181541339892 [Eh]
	 SCS Total Energy          =    -323.3014555838939827 [Eh]
	-----------------------------------------------------------

  Dipole Moment: [D]
     X:    -0.7854      Y:     1.0559      Z:    -0.3647     Total:     1.3656

*** Psi4 exiting successfully. Buy a developer a beer!
