                               Psi4 1.3.2 release

  ==> Input File <==

--------------------------------------------------------------------------
#psi4
#
memory 32 gb

molecule  {
0 1
  O        1.4293010    -1.0173190    -0.5083850
  O        1.2616920     1.0439120     0.4876630
  N       -1.5094500     1.1665790    -0.0160500
  C       -0.7590880    -0.0423940    -0.3475120
  C       -1.3883923    -1.2305941     0.3898444
  C        0.7309348     0.1251532    -0.0963631
  H       -0.8593930    -0.2237720    -1.4273650
  H       -2.4052960    -1.3157140     0.1877600
  H       -0.8411410    -2.1737420     0.1227770
  H       -1.2225590    -1.1039570     1.4923070
  H       -1.0898030     1.9609300    -0.5079820
  H       -1.3695700     1.3697580     0.9773170
  H        2.3653570    -0.8358360    -0.2741470
units angstrom
no_reorient  #important for SAPT in psi4, default
symmetry c1  #important for SAPT in psi4, default
}

set PROPERTIES_ORIGIN ["COM"]
properties('MP2/aug-cc-pvtz', properties = ['dipole'])
--------------------------------------------------------------------------

    Molecular point group: c1
  Charge       = 0
  Multiplicity = 1
  Basis Set: AUG-CC-PVTZ
    Blend: AUG-CC-PVTZ
  Basis Set: (AUG-CC-PVTZ AUX)
    Blend: AUG-CC-PVTZ-JKFIT

    Orbital Energies [Eh]
    ---------------------

    Doubly Occupied:

       1A    -20.616730     2A    -20.566938     3A    -15.552699
       4A    -11.395546     5A    -11.286180     6A    -11.234008
       7A     -1.455405     8A     -1.364685     9A     -1.200240
      10A     -1.019465    11A     -0.908797    12A     -0.786042
      13A     -0.710760    14A     -0.701066    15A     -0.673395
      16A     -0.624850    17A     -0.610512    18A     -0.592866
      19A     -0.567875    20A     -0.520460    21A     -0.506390
      22A     -0.492006    23A     -0.466535    24A     -0.415874

  @DF-RHF Final Energy:  -321.98968329705650

   => Energetics <=

    Nuclear Repulsion Energy =            247.5774040972158048
    One-Electron Energy =                -930.5955295908227072
    Two-Electron Energy =                 361.0284421965504293
    Total Energy =                       -321.9896832970565015
  Basis Set: (AUG-CC-PVTZ AUX)
    Blend: AUG-CC-PVTZ-RI
    Molecular point group: c1

    Geometry (in Angstrom), charge = 0, multiplicity = 1:

       Center              X                  Y                   Z               Mass
    ------------   -----------------  -----------------  -----------------  -----------------
         O            1.435568634178    -1.024579388076    -0.501316518467    15.994914619570
         O            1.267959634178     1.036651611924     0.494731481533    15.994914619570
         N           -1.503182365822     1.159318611924    -0.008981518467    14.003074004430
         C           -0.752820365822    -0.049654388076    -0.340443518467    12.000000000000
         C           -1.382124665822    -1.237854488076     0.396912881533    12.000000000000
         C            0.737202434178     0.117892811924    -0.089294618467    12.000000000000
         H           -0.853125365822    -0.231032388076    -1.420296518467     1.007825032230
         H           -2.399028365822    -1.322974388076     0.194828481533     1.007825032230
         H           -0.834873365822    -2.181002388076     0.129845481533     1.007825032230
         H           -1.216291365822    -1.111217388076     1.499375481533     1.007825032230
         H           -1.083535365822     1.953669611924    -0.500913518467     1.007825032230
         H           -1.363302365822     1.362497611924     0.984385481533     1.007825032230
         H            2.371624634178    -0.843096388076    -0.267078518467     1.007825032230

  Basis Set: AUG-CC-PVTZ
    Blend: AUG-CC-PVTZ
  Basis Set: (AUG-CC-PVTZ AUX)
    Blend: AUG-CC-PVTZ-JKFIT
	 Reference Energy          =    -321.9896832970565015 [Eh]
	 Singles Energy            =      -0.0000000000000000 [Eh]
	 Same-Spin Energy          =      -0.3169593806424658 [Eh]
	 Opposite-Spin Energy      =      -1.0011580853238917 [Eh]
	 Correlation Energy        =      -1.3181174659663575 [Eh]
	 Total Energy              =    -323.3078007630228399 [Eh]

	 ================> DF-SCS-MP2 Energies <==================
	-----------------------------------------------------------
	 SCS Same-Spin Scale       =       0.3333333333333333 [-]
	 SCS Opposite-Spin Scale   =       1.2000000000000000 [-]
	 SCS Same-Spin Energy      =      -0.1056531268808219 [Eh]
	 SCS Opposite-Spin Energy  =      -1.2013897023886699 [Eh]
	 SCS Correlation Energy    =      -1.3070428292694918 [Eh]
	 SCS Total Energy          =    -323.2967261263260070 [Eh]
	-----------------------------------------------------------

  Dipole Moment: [D]
     X:     0.5606      Y:    -0.9583      Z:    -0.2780     Total:     1.1445

*** Psi4 exiting successfully. Buy a developer a beer!
