                               Psi4 1.3.2 release

  ==> Input File <==

--------------------------------------------------------------------------
#psi4
#
memory 32 gb

molecule  {
0 1
  O        1.4293010    -1.0173190    -0.5083850
  O        1.2616920     1.0439120     0.4876630
  N       -1.5094500     1.1665790    -0.0160500
  C       -0.7590880    -0.0423940    -0.3475120
  C       -1.3782795    -1.3201748     0.4600216
  C        0.7294260     0.0826320    -0.0646510
  H       -0.8593930    -0.2237720    -1.4273650
  H       -2.4052960    -1.3157140     0.1877600
  H       -0.8411410    -2.1737420     0.1227770
  H       -1.2225590    -1.1039570     1.4923070
  H       -1.0898030     1.9609300    -0.5079820
  H       -1.3695700     1.3697580     0.9773170
  H        2.3653570    -0.8358360    -0.2741470
units angstrom
no_reorient  #important for SAPT in psi4, default
symmetry c1  #important for SAPT in psi4, default
}

set PROPERTIES_ORIGIN ["COM"]
properties('MP2/aug-cc-pvtz', properties = ['dipole'])
--------------------------------------------------------------------------

    Molecular point group: c1
  Charge       = 0
  Multiplicity = 1
  Basis Set: AUG-CC-PVTZ
    Blend: AUG-CC-PVTZ
  Basis Set: (AUG-CC-PVTZ AUX)
    Blend: AUG-CC-PVTZ-JKFIT

    Orbital Energies [Eh]
    ---------------------

    Doubly Occupied:

       1A    -20.622317     2A    -20.559789     3A    -15.553207
       4A    -11.394017     5A    -11.288528     6A    -11.232550
       7A     -1.456677     8A     -1.358487     9A     -1.194504
      10A     -1.012453    11A     -0.912456    12A     -0.791096
      13A     -0.709737    14A     -0.699642    15A     -0.667984
      16A     -0.625775    17A     -0.607700    18A     -0.599407
      19A     -0.566481    20A     -0.539986    21A     -0.499365
      22A     -0.478932    23A     -0.461296    24A     -0.413588

  @DF-RHF Final Energy:  -321.98714758951803

   => Energetics <=

    Nuclear Repulsion Energy =            246.2992918061673038
    One-Electron Energy =                -928.0809316289584103
    Two-Electron Energy =                 359.7944922332731039
    Total Energy =                       -321.9871475895180311
  Basis Set: (AUG-CC-PVTZ AUX)
    Blend: AUG-CC-PVTZ-RI
    Molecular point group: c1

    Geometry (in Angstrom), charge = 0, multiplicity = 1:

       Center              X                  Y                   Z               Mass
    ------------   -----------------  -----------------  -----------------  -----------------
         O            1.434409165433    -1.006777432682    -0.515047045989    15.994914619570
         O            1.266800165433     1.054453567318     0.481000954011    15.994914619570
         N           -1.504341834567     1.177120567318    -0.022712045989    14.003074004430
         C           -0.753979834567    -0.031852432682    -0.354174045989    12.000000000000
         C           -1.373171334567    -1.309633232682     0.453359554011    12.000000000000
         C            0.734534165433     0.093173567318    -0.071313045989    12.000000000000
         H           -0.854284834567    -0.213230432682    -1.434027045989     1.007825032230
         H           -2.400187834567    -1.305172432682     0.181097954011     1.007825032230
         H           -0.836032834567    -2.163200432682     0.116114954011     1.007825032230
         H           -1.217450834567    -1.093415432682     1.485644954011     1.007825032230
         H           -1.084694834567     1.971471567318    -0.514644045989     1.007825032230
         H           -1.364461834567     1.380299567318     0.970654954011     1.007825032230
         H            2.370465165433    -0.825294432682    -0.280809045989     1.007825032230

  Basis Set: AUG-CC-PVTZ
    Blend: AUG-CC-PVTZ
  Basis Set: (AUG-CC-PVTZ AUX)
    Blend: AUG-CC-PVTZ-JKFIT
	 Reference Energy          =    -321.9871475895180311 [Eh]
	 Singles Energy            =      -0.0000000000000000 [Eh]
	 Same-Spin Energy          =      -0.3168463284222506 [Eh]
	 Opposite-Spin Energy      =      -1.0011210507836450 [Eh]
	 Correlation Energy        =      -1.3179673792058955 [Eh]
	 Total Energy              =    -323.3051149687238990 [Eh]

	 ================> DF-SCS-MP2 Energies <==================
	-----------------------------------------------------------
	 SCS Same-Spin Scale       =       0.3333333333333333 [-]
	 SCS Opposite-Spin Scale   =       1.2000000000000000 [-]
	 SCS Same-Spin Energy      =      -0.1056154428074169 [Eh]
	 SCS Opposite-Spin Energy  =      -1.2013452609403739 [Eh]
	 SCS Correlation Energy    =      -1.3069607037477908 [Eh]
	 SCS Total Energy          =    -323.2941082932658219 [Eh]
	-----------------------------------------------------------

  Dipole Moment: [D]
     X:     0.5625      Y:    -1.1364      Z:    -0.3083     Total:     1.3049

*** Psi4 exiting successfully. Buy a developer a beer!
