                               Psi4 1.4a3.dev225

  ==> Input File <==

--------------------------------------------------------------------------
#psi4
#
memory 32 gb

molecule  {
0 1
  O       -1.6162430     0.8314800    -0.3809140
  O       -1.1510000    -1.1772170     0.5605200
  N        1.5455560    -1.0219050    -0.2870820
  C        0.6364168     0.1732096    -0.4063168
  C        1.1923300     1.2755990     0.4679010
  C       -0.7726990    -0.1733030    -0.0203720
  H        0.6629820     0.4626600    -1.4478320
  H        2.2238070     1.4912930     0.1836440
  H        0.5830780     2.1739270     0.3501650
  H        1.1794500     0.9804810     1.5223570
  H        1.2015560    -1.7655910    -0.8946420
  H        1.4549450    -1.3946670     0.6589060
  H       -2.5041220     0.5561110    -0.0708870
units angstrom
no_reorient  #important for SAPT in psi4, default
symmetry c1  #important for SAPT in psi4, default
}

set PROPERTIES_ORIGIN ["COM"]
properties('MP2/aug-cc-pvtz', properties = ['dipole'])
--------------------------------------------------------------------------

    Molecular point group: c1
  Charge       = 0
  Multiplicity = 1
  Basis Set: AUG-CC-PVTZ
    Blend: AUG-CC-PVTZ
  Basis Set: (AUG-CC-PVTZ AUX)
    Blend: AUG-CC-PVTZ-JKFIT

    Orbital Energies [Eh]
    ---------------------

    Doubly Occupied:

       1A    -20.622096     2A    -20.560378     3A    -15.550522
       4A    -11.392586     5A    -11.283122     6A    -11.232010
       7A     -1.466856     8A     -1.363934     9A     -1.188626
      10A     -1.028229    11A     -0.913057    12A     -0.794404
      13A     -0.715058    14A     -0.707428    15A     -0.666298
      16A     -0.632976    17A     -0.608009    18A     -0.594557
      19A     -0.552574    20A     -0.523460    21A     -0.518388
      22A     -0.488630    23A     -0.462591    24A     -0.415716

  @DF-RHF Final Energy:  -321.99474347272343

   => Energetics <=

    Nuclear Repulsion Energy =            248.8420278185883490
    One-Electron Energy =                -933.1105336519382263
    Two-Electron Energy =                 362.2737623606264492
    Total Energy =                       -321.9947434727234281
  Basis Set: (AUG-CC-PVTZ AUX)
    Blend: AUG-CC-PVTZ-RI
    Molecular point group: c1

    Geometry (in Angstrom), charge = 0, multiplicity = 1:

       Center              X                  Y                   Z               Mass
    ------------   -----------------  -----------------  -----------------  -----------------
         O           -1.558886788895     0.854051822372    -0.376998911321    15.994914619570
         O           -1.093643788895    -1.154645177628     0.564435088679    15.994914619570
         N            1.602912211105    -0.999333177628    -0.283166911321    14.003074004430
         C            0.693773011105     0.195781422372    -0.402401711321    12.000000000000
         C            1.249686211105     1.298170822372     0.471816088679    12.000000000000
         C           -0.715342788895    -0.150731177628    -0.016456911321    12.000000000000
         H            0.720338211105     0.485231822372    -1.443916911321     1.007825032230
         H            2.281163211105     1.513864822372     0.187559088679     1.007825032230
         H            0.640434211105     2.196498822372     0.354080088679     1.007825032230
         H            1.236806211105     1.003052822372     1.526272088679     1.007825032230
         H            1.258912211105    -1.743019177628    -0.890726911321     1.007825032230
         H            1.512301211105    -1.372095177628     0.662821088679     1.007825032230
         H           -2.446765788895     0.578682822372    -0.066971911321     1.007825032230

  Basis Set: AUG-CC-PVTZ
    Blend: AUG-CC-PVTZ
  Basis Set: (AUG-CC-PVTZ AUX)
    Blend: AUG-CC-PVTZ-JKFIT
	 Reference Energy          =    -321.9947434727234281 [Eh]
	 Singles Energy            =      -0.0000000000000000 [Eh]
	 Same-Spin Energy          =      -0.3168563442360027 [Eh]
	 Opposite-Spin Energy      =      -1.0003340833138057 [Eh]
	 Correlation Energy        =      -1.3171904275498083 [Eh]
	 Total Energy              =    -323.3119339002732318 [Eh]

	 ================> DF-SCS-MP2 Energies <==================
	-----------------------------------------------------------
	 SCS Same-Spin Scale       =       0.3333333333333333 [-]
	 SCS Opposite-Spin Scale   =       1.2000000000000000 [-]
	 SCS Same-Spin Energy      =      -0.1056187814120009 [Eh]
	 SCS Opposite-Spin Energy  =      -1.2004008999765667 [Eh]
	 SCS Correlation Energy    =      -1.3060196813885676 [Eh]
	 SCS Total Energy          =    -323.3007631541120190 [Eh]
	-----------------------------------------------------------

  Dipole Moment: [D]
     X:    -0.8665      Y:     1.1372      Z:    -0.3352     Total:     1.4685

*** Psi4 exiting successfully. Buy a developer a beer!
