                               Psi4 1.4a3.dev225

  ==> Input File <==

--------------------------------------------------------------------------
#psi4
#
memory 32 gb

molecule  {
0 1
  O       -1.6162430     0.8314800    -0.3809140
  O       -1.1510000    -1.1772170     0.5605200
  N        1.5455560    -1.0219050    -0.2870820
  C        0.6665940     0.1335400    -0.4023590
  C        1.1923300     1.2755990     0.4679010
  C       -0.7726990    -0.1733030    -0.0203720
  H        0.6629820     0.4626600    -1.4478320
  H        2.2238070     1.4912930     0.1836440
  H        0.5830780     2.1739270     0.3501650
  H        1.1794500     0.9804810     1.5223570
  H        1.2015560    -1.7655910    -0.8946420
  H        1.4505068    -1.4129251     0.7052411
  H       -2.5041220     0.5561110    -0.0708870
units angstrom
no_reorient  #important for SAPT in psi4, default
symmetry c1  #important for SAPT in psi4, default
}

set PROPERTIES_ORIGIN ["COM"]
properties('MP2/aug-cc-pvtz', properties = ['dipole'])
--------------------------------------------------------------------------

    Molecular point group: c1
  Charge       = 0
  Multiplicity = 1
  Basis Set: AUG-CC-PVTZ
    Blend: AUG-CC-PVTZ
  Basis Set: (AUG-CC-PVTZ AUX)
    Blend: AUG-CC-PVTZ-JKFIT

    Orbital Energies [Eh]
    ---------------------

    Doubly Occupied:

       1A    -20.621893     2A    -20.558127     3A    -15.557106
       4A    -11.390515     5A    -11.283722     6A    -11.231342
       7A     -1.465195     8A     -1.362517     9A     -1.196362
      10A     -1.020641    11A     -0.907020    12A     -0.792629
      13A     -0.713088    14A     -0.705317    15A     -0.670093
      16A     -0.631855    17A     -0.607400    18A     -0.590594
      19A     -0.549845    20A     -0.532241    21A     -0.509847
      22A     -0.487003    23A     -0.461686    24A     -0.414441

  @DF-RHF Final Energy:  -321.99438898918936

   => Energetics <=

    Nuclear Repulsion Energy =            248.6334479363254104
    One-Electron Energy =                -932.7347172378136975
    Two-Electron Energy =                 362.1068803122989266
    Total Energy =                       -321.9943889891893605
  Basis Set: (AUG-CC-PVTZ AUX)
    Blend: AUG-CC-PVTZ-RI
    Molecular point group: c1

    Geometry (in Angstrom), charge = 0, multiplicity = 1:

       Center              X                  Y                   Z               Mass
    ------------   -----------------  -----------------  -----------------  -----------------
         O           -1.562903215568     0.859604310418    -0.378056673581    15.994914619570
         O           -1.097660215568    -1.149092689582     0.563377326419    15.994914619570
         N            1.598895784432    -0.993780689582    -0.284224673581    14.003074004430
         C            0.719933784432     0.161664310418    -0.399501673581    12.000000000000
         C            1.245669784432     1.303723310418     0.470758326419    12.000000000000
         C           -0.719359215568    -0.145178689582    -0.017514673581    12.000000000000
         H            0.716321784432     0.490784310418    -1.444974673581     1.007825032230
         H            2.277146784432     1.519417310418     0.186501326419     1.007825032230
         H            0.636417784432     2.202051310418     0.353022326419     1.007825032230
         H            1.232789784432     1.008605310418     1.525214326419     1.007825032230
         H            1.254895784432    -1.737466689582    -0.891784673581     1.007825032230
         H            1.503846584432    -1.384800789582     0.708098426419     1.007825032230
         H           -2.450782215568     0.584235310418    -0.068029673581     1.007825032230

  Basis Set: AUG-CC-PVTZ
    Blend: AUG-CC-PVTZ
  Basis Set: (AUG-CC-PVTZ AUX)
    Blend: AUG-CC-PVTZ-JKFIT
	 Reference Energy          =    -321.9943889891893605 [Eh]
	 Singles Energy            =      -0.0000000000000000 [Eh]
	 Same-Spin Energy          =      -0.3170153782946520 [Eh]
	 Opposite-Spin Energy      =      -1.0005454028410230 [Eh]
	 Correlation Energy        =      -1.3175607811356751 [Eh]
	 Total Energy              =    -323.3119497703250431 [Eh]

	 ================> DF-SCS-MP2 Energies <==================
	-----------------------------------------------------------
	 SCS Same-Spin Scale       =       0.3333333333333333 [-]
	 SCS Opposite-Spin Scale   =       1.2000000000000000 [-]
	 SCS Same-Spin Energy      =      -0.1056717927648840 [Eh]
	 SCS Opposite-Spin Energy  =      -1.2006544834092276 [Eh]
	 SCS Correlation Energy    =      -1.3063262761741117 [Eh]
	 SCS Total Energy          =    -323.3007152653634648 [Eh]
	-----------------------------------------------------------

  Dipole Moment: [D]
     X:    -0.7877      Y:     1.0458      Z:    -0.3354     Total:     1.3516

*** Psi4 exiting successfully. Buy a developer a beer!
