                               Psi4 1.4a3.dev225

  ==> Input File <==

--------------------------------------------------------------------------
#psi4
#
memory 32 gb

molecule  {
0 1
  O       -1.6162430     0.8314800    -0.3809140
  O       -1.1510000    -1.1772170     0.5605200
  N        1.5455560    -1.0219050    -0.2870820
  C        0.6665940     0.1335400    -0.4023590
  C        1.1923300     1.2755990     0.4679010
  C       -0.7726990    -0.1733030    -0.0203720
  H        0.6630479     0.4566545    -1.4287551
  H        2.2238070     1.4912930     0.1836440
  H        0.5830780     2.1739270     0.3501650
  H        1.1794500     0.9804810     1.5223570
  H        1.2015560    -1.7655910    -0.8946420
  H        1.4549450    -1.3946670     0.6589060
  H       -2.5041220     0.5561110    -0.0708870
units angstrom
no_reorient  #important for SAPT in psi4, default
symmetry c1  #important for SAPT in psi4, default
}

set PROPERTIES_ORIGIN ["COM"]
properties('MP2/aug-cc-pvtz', properties = ['dipole'])
--------------------------------------------------------------------------

    Molecular point group: c1
  Charge       = 0
  Multiplicity = 1
  Basis Set: AUG-CC-PVTZ
    Blend: AUG-CC-PVTZ
  Basis Set: (AUG-CC-PVTZ AUX)
    Blend: AUG-CC-PVTZ-JKFIT

    Orbital Energies [Eh]
    ---------------------

    Doubly Occupied:

       1A    -20.622027     2A    -20.558172     3A    -15.551843
       4A    -11.390480     5A    -11.281253     6A    -11.231353
       7A     -1.465310     8A     -1.362615     9A     -1.201732
      10A     -1.023864    11A     -0.907876    12A     -0.796193
      13A     -0.714202    14A     -0.707277    15A     -0.671862
      16A     -0.632400    17A     -0.609011    18A     -0.596640
      19A     -0.549956    20A     -0.532358    21A     -0.513249
      22A     -0.487155    23A     -0.462050    24A     -0.415101

  @DF-RHF Final Energy:  -321.99792332951631

   => Energetics <=

    Nuclear Repulsion Energy =            248.9695041345260904
    One-Electron Energy =                -933.3668966285019906
    Two-Electron Energy =                 362.3994691644595605
    Total Energy =                       -321.9979233295163112
  Basis Set: (AUG-CC-PVTZ AUX)
    Blend: AUG-CC-PVTZ-RI
    Molecular point group: c1

    Geometry (in Angstrom), charge = 0, multiplicity = 1:

       Center              X                  Y                   Z               Mass
    ------------   -----------------  -----------------  -----------------  -----------------
         O           -1.562954192133     0.859465637774    -0.377748170353    15.994914619570
         O           -1.097711192133    -1.149231362226     0.563685829647    15.994914619570
         N            1.598844807867    -0.993919362226    -0.283916170353    14.003074004430
         C            0.719882807867     0.161525637774    -0.399193170353    12.000000000000
         C            1.245618807867     1.303584637774     0.471066829647    12.000000000000
         C           -0.719410192133    -0.145317362226    -0.017206170353    12.000000000000
         H            0.716336707867     0.484640137774    -1.425589270353     1.007825032230
         H            2.277095807867     1.519278637774     0.186809829647     1.007825032230
         H            0.636366807867     2.201912637774     0.353330829647     1.007825032230
         H            1.232738807867     1.008466637774     1.525522829647     1.007825032230
         H            1.254844807867    -1.737605362226    -0.891476170353     1.007825032230
         H            1.508233807867    -1.366681362226     0.662071829647     1.007825032230
         H           -2.450833192133     0.584096637774    -0.067721170353     1.007825032230

  Basis Set: AUG-CC-PVTZ
    Blend: AUG-CC-PVTZ
  Basis Set: (AUG-CC-PVTZ AUX)
    Blend: AUG-CC-PVTZ-JKFIT
	 Reference Energy          =    -321.9979233295163112 [Eh]
	 Singles Energy            =      -0.0000000000000000 [Eh]
	 Same-Spin Energy          =      -0.3167189473355151 [Eh]
	 Opposite-Spin Energy      =      -0.9995366371868265 [Eh]
	 Correlation Energy        =      -1.3162555845223416 [Eh]
	 Total Energy              =    -323.3141789140386777 [Eh]

	 ================> DF-SCS-MP2 Energies <==================
	-----------------------------------------------------------
	 SCS Same-Spin Scale       =       0.3333333333333333 [-]
	 SCS Opposite-Spin Scale   =       1.2000000000000000 [-]
	 SCS Same-Spin Energy      =      -0.1055729824451717 [Eh]
	 SCS Opposite-Spin Energy  =      -1.1994439646241917 [Eh]
	 SCS Correlation Energy    =      -1.3050169470693633 [Eh]
	 SCS Total Energy          =    -323.3029402765856730 [Eh]
	-----------------------------------------------------------

  Dipole Moment: [D]
     X:    -0.7885      Y:     1.0528      Z:    -0.3552     Total:     1.3624

*** Psi4 exiting successfully. Buy a developer a beer!
