                               Psi4 1.3.2 release

  ==> Input File <==

--------------------------------------------------------------------------
#psi4
#
memory 32 gb

molecule  {
0 1
  O        1.4293010    -1.0173190    -0.5083850
  O        1.2616920     1.0439120     0.4876630
  N       -1.5094500     1.1665790    -0.0160500
  C       -0.7590880    -0.0423940    -0.3475120
  C       -1.2645601    -1.0855004     0.3117118
  C        0.7294260     0.0826320    -0.0646510
  H       -0.8593930    -0.2237720    -1.4273650
  H       -2.4052960    -1.3157140     0.1877600
  H       -0.8411410    -2.1737420     0.1227770
  H       -1.2225590    -1.1039570     1.4923070
  H       -1.0898030     1.9609300    -0.5079820
  H       -1.3695700     1.3697580     0.9773170
  H        2.3653570    -0.8358360    -0.2741470
units angstrom
no_reorient  #important for SAPT in psi4, default
symmetry c1  #important for SAPT in psi4, default
}

set PROPERTIES_ORIGIN ["COM"]
properties('MP2/aug-cc-pvtz', properties = ['dipole'])
--------------------------------------------------------------------------

    Molecular point group: c1
  Charge       = 0
  Multiplicity = 1
  Basis Set: AUG-CC-PVTZ
    Blend: AUG-CC-PVTZ
  Basis Set: (AUG-CC-PVTZ AUX)
    Blend: AUG-CC-PVTZ-JKFIT

    Orbital Energies [Eh]
    ---------------------

    Doubly Occupied:

       1A    -20.624255     2A    -20.563332     3A    -15.554010
       4A    -11.397437     5A    -11.277581     6A    -11.242781
       7A     -1.459662     8A     -1.361258     9A     -1.216440
      10A     -1.052361    11A     -0.896833    12A     -0.793336
      13A     -0.715935    14A     -0.708968    15A     -0.685841
      16A     -0.630865    17A     -0.615130    18A     -0.601801
      19A     -0.563958    20A     -0.512345    21A     -0.491040
      22A     -0.479502    23A     -0.452407    24A     -0.418890

  @DF-RHF Final Energy:  -321.94539451040851

   => Energetics <=

    Nuclear Repulsion Energy =            251.1762376794768272
    One-Electron Energy =                -937.6113277511847173
    Two-Electron Energy =                 364.4896955612994134
    Total Energy =                       -321.9453945104085051
  Basis Set: (AUG-CC-PVTZ AUX)
    Blend: AUG-CC-PVTZ-RI
    Molecular point group: c1

    Geometry (in Angstrom), charge = 0, multiplicity = 1:

       Center              X                  Y                   Z               Mass
    ------------   -----------------  -----------------  -----------------  -----------------
         O            1.419084422290    -1.038401983130    -0.495060925850    15.994914619570
         O            1.251475422290     1.022829016870     0.500987074150    15.994914619570
         N           -1.519666577710     1.145496016870    -0.002725925850    14.003074004430
         C           -0.769304577710    -0.063476983130    -0.334187925850    12.000000000000
         C           -1.274776677710    -1.106583383130     0.325035874150    12.000000000000
         C            0.719209422290     0.061549016870    -0.051326925850    12.000000000000
         H           -0.869609577710    -0.244854983130    -1.414040925850     1.007825032230
         H           -2.415512577710    -1.336796983130     0.201084074150     1.007825032230
         H           -0.851357577710    -2.194824983130     0.136101074150     1.007825032230
         H           -1.232775577710    -1.125039983130     1.505631074150     1.007825032230
         H           -1.100019577710     1.939847016870    -0.494657925850     1.007825032230
         H           -1.379786577710     1.348675016870     0.990641074150     1.007825032230
         H            2.355140422290    -0.856918983130    -0.260822925850     1.007825032230

  Basis Set: AUG-CC-PVTZ
    Blend: AUG-CC-PVTZ
  Basis Set: (AUG-CC-PVTZ AUX)
    Blend: AUG-CC-PVTZ-JKFIT
	 Reference Energy          =    -321.9453945104085051 [Eh]
	 Singles Energy            =      -0.0000000000000000 [Eh]
	 Same-Spin Energy          =      -0.3201513927460455 [Eh]
	 Opposite-Spin Energy      =      -1.0052706006376586 [Eh]
	 Correlation Energy        =      -1.3254219933837041 [Eh]
	 Total Energy              =    -323.2708165037922186 [Eh]

	 ================> DF-SCS-MP2 Energies <==================
	-----------------------------------------------------------
	 SCS Same-Spin Scale       =       0.3333333333333333 [-]
	 SCS Opposite-Spin Scale   =       1.2000000000000000 [-]
	 SCS Same-Spin Energy      =      -0.1067171309153485 [Eh]
	 SCS Opposite-Spin Energy  =      -1.2063247207651904 [Eh]
	 SCS Correlation Energy    =      -1.3130418516805389 [Eh]
	 SCS Total Energy          =    -323.2584363620890713 [Eh]
	-----------------------------------------------------------

  Dipole Moment: [D]
     X:     0.6742      Y:    -1.1513      Z:    -0.3530     Total:     1.3801

*** Psi4 exiting successfully. Buy a developer a beer!
