                               Psi4 1.3.2 release

  ==> Input File <==

--------------------------------------------------------------------------
#psi4
#
memory 32 gb

molecule  {
0 1
  O        1.4293010    -1.0173190    -0.5083850
  O        1.2616920     1.0439120     0.4876630
  N       -1.5094500     1.1665790    -0.0160500
  C       -0.8109679     0.0047729    -0.3084075
  C       -1.3403730    -1.2419500     0.4105850
  C        0.7294260     0.0826320    -0.0646510
  H       -0.8593930    -0.2237720    -1.4273650
  H       -2.4052960    -1.3157140     0.1877600
  H       -0.8753173    -2.2016153     0.1594513
  H       -1.2225590    -1.1039570     1.4923070
  H       -1.0898030     1.9609300    -0.5079820
  H       -1.3695700     1.3697580     0.9773170
  H        2.3653570    -0.8358360    -0.2741470
units angstrom
no_reorient  #important for SAPT in psi4, default
symmetry c1  #important for SAPT in psi4, default
}

set PROPERTIES_ORIGIN ["COM"]
properties('MP2/aug-cc-pvtz', properties = ['dipole'])
--------------------------------------------------------------------------

    Molecular point group: c1
  Charge       = 0
  Multiplicity = 1
  Basis Set: AUG-CC-PVTZ
    Blend: AUG-CC-PVTZ
  Basis Set: (AUG-CC-PVTZ AUX)
    Blend: AUG-CC-PVTZ-JKFIT

    Orbital Energies [Eh]
    ---------------------

    Doubly Occupied:

       1A    -20.622246     2A    -20.557562     3A    -15.556015
       4A    -11.391474     5A    -11.290237     6A    -11.231627
       7A     -1.454736     8A     -1.357053     9A     -1.223315
      10A     -1.017563    11A     -0.897695    12A     -0.792386
      13A     -0.708716    14A     -0.700812    15A     -0.685209
      16A     -0.624744    17A     -0.614007    18A     -0.595532
      19A     -0.548400    20A     -0.544966    21A     -0.498201
      22A     -0.483092    23A     -0.462951    24A     -0.409780

  @DF-RHF Final Energy:  -321.98721133640117

   => Energetics <=

    Nuclear Repulsion Energy =            247.8401720321575112
    One-Electron Energy =                -931.1181256932361521
    Two-Electron Energy =                 361.2907423246774670
    Total Energy =                       -321.9872113364011739
  Basis Set: (AUG-CC-PVTZ AUX)
    Blend: AUG-CC-PVTZ-RI
    Molecular point group: c1

    Geometry (in Angstrom), charge = 0, multiplicity = 1:

       Center              X                  Y                   Z               Mass
    ------------   -----------------  -----------------  -----------------  -----------------
         O            1.436679011588    -1.023359661617    -0.514069772646    15.994914619570
         O            1.269070011588     1.037871338383     0.481978227354    15.994914619570
         N           -1.502071988412     1.160538338383    -0.021734772646    14.003074004430
         C           -0.803589888412    -0.001267761617    -0.314092272646    12.000000000000
         C           -1.332994988412    -1.247990661617     0.404900227354    12.000000000000
         C            0.736804011588     0.076591338383    -0.070335772646    12.000000000000
         H           -0.852014988412    -0.229812661617    -1.433049772646     1.007825032230
         H           -2.397917988412    -1.321754661617     0.182075227354     1.007825032230
         H           -0.867939288412    -2.207655961617     0.153766527354     1.007825032230
         H           -1.215180988412    -1.109997661617     1.486622227354     1.007825032230
         H           -1.082424988412     1.954889338383    -0.513666772646     1.007825032230
         H           -1.362191988412     1.363717338383     0.971632227354     1.007825032230
         H            2.372735011588    -0.841876661617    -0.279831772646     1.007825032230

  Basis Set: AUG-CC-PVTZ
    Blend: AUG-CC-PVTZ
  Basis Set: (AUG-CC-PVTZ AUX)
    Blend: AUG-CC-PVTZ-JKFIT
	 Reference Energy          =    -321.9872113364011739 [Eh]
	 Singles Energy            =      -0.0000000000000000 [Eh]
	 Same-Spin Energy          =      -0.3174999890363436 [Eh]
	 Opposite-Spin Energy      =      -1.0009443258487392 [Eh]
	 Correlation Energy        =      -1.3184443148850828 [Eh]
	 Total Energy              =    -323.3056556512862585 [Eh]

	 ================> DF-SCS-MP2 Energies <==================
	-----------------------------------------------------------
	 SCS Same-Spin Scale       =       0.3333333333333333 [-]
	 SCS Opposite-Spin Scale   =       1.2000000000000000 [-]
	 SCS Same-Spin Energy      =      -0.1058333296787812 [Eh]
	 SCS Opposite-Spin Energy  =      -1.2011331910184870 [Eh]
	 SCS Correlation Energy    =      -1.3069665206972683 [Eh]
	 SCS Total Energy          =    -323.2941778570984184 [Eh]
	-----------------------------------------------------------

  Dipole Moment: [D]
     X:     0.4532      Y:    -1.0086      Z:    -0.2699     Total:     1.1382

*** Psi4 exiting successfully. Buy a developer a beer!
