                               Psi4 1.3.2 release

  ==> Input File <==

--------------------------------------------------------------------------
#psi4
#
memory 32 gb

molecule  {
0 1
  O        1.4293010    -1.0173190    -0.5083850
  O        1.2616920     1.0439120     0.4876630
  N       -1.4986439     1.1721765    -0.0122487
  C       -0.7590880    -0.0423940    -0.3475120
  C       -1.3403730    -1.2419500     0.4105850
  C        0.7275055     0.0950297    -0.0603354
  H       -0.8593930    -0.2237720    -1.4273650
  H       -2.4052960    -1.3157140     0.1877600
  H       -0.8411410    -2.1737420     0.1227770
  H       -1.2225590    -1.1039570     1.4923070
  H       -1.0898030     1.9609300    -0.5079820
  H       -1.3695700     1.3697580     0.9773170
  H        2.3653570    -0.8358360    -0.2741470
units angstrom
no_reorient  #important for SAPT in psi4, default
symmetry c1  #important for SAPT in psi4, default
}

set PROPERTIES_ORIGIN ["COM"]
properties('MP2/aug-cc-pvtz', properties = ['dipole'])
--------------------------------------------------------------------------

    Molecular point group: c1
  Charge       = 0
  Multiplicity = 1
  Basis Set: AUG-CC-PVTZ
    Blend: AUG-CC-PVTZ
  Basis Set: (AUG-CC-PVTZ AUX)
    Blend: AUG-CC-PVTZ-JKFIT

    Orbital Energies [Eh]
    ---------------------

    Doubly Occupied:

       1A    -20.619073     2A    -20.563149     3A    -15.551326
       4A    -11.393801     5A    -11.286202     6A    -11.233201
       7A     -1.455481     8A     -1.362423     9A     -1.200267
      10A     -1.022369    11A     -0.906042    12A     -0.789471
      13A     -0.710911    14A     -0.701633    15A     -0.674302
      16A     -0.625076    17A     -0.609047    18A     -0.598351
      19A     -0.551724    20A     -0.530806    21A     -0.512897
      22A     -0.489659    23A     -0.462704    24A     -0.414337

  @DF-RHF Final Energy:  -321.99526416988238

   => Energetics <=

    Nuclear Repulsion Energy =            247.9410226930426120
    One-Electron Energy =                -931.3440675318148578
    Two-Electron Energy =                 361.4077806688899273
    Total Energy =                       -321.9952641698823754
  Basis Set: (AUG-CC-PVTZ AUX)
    Blend: AUG-CC-PVTZ-RI
    Molecular point group: c1

    Geometry (in Angstrom), charge = 0, multiplicity = 1:

       Center              X                  Y                   Z               Mass
    ------------   -----------------  -----------------  -----------------  -----------------
         O            1.427860419547    -1.019869881882    -0.509564341406    15.994914619570
         O            1.260251419547     1.041361118118     0.486483658594    15.994914619570
         N           -1.500084480453     1.169625618118    -0.013428041406    14.003074004430
         C           -0.760528580453    -0.044944881882    -0.348691341406    12.000000000000
         C           -1.341813580453    -1.244500881882     0.409405658594    12.000000000000
         C            0.726064919547     0.092478818118    -0.061514741406    12.000000000000
         H           -0.860833580453    -0.226322881882    -1.428544341406     1.007825032230
         H           -2.406736580453    -1.318264881882     0.186580658594     1.007825032230
         H           -0.842581580453    -2.176292881882     0.121597658594     1.007825032230
         H           -1.223999580453    -1.106507881882     1.491127658594     1.007825032230
         H           -1.091243580453     1.958379118118    -0.509161341406     1.007825032230
         H           -1.371010580453     1.367207118118     0.976137658594     1.007825032230
         H            2.363916419547    -0.838386881882    -0.275326341406     1.007825032230

  Basis Set: AUG-CC-PVTZ
    Blend: AUG-CC-PVTZ
  Basis Set: (AUG-CC-PVTZ AUX)
    Blend: AUG-CC-PVTZ-JKFIT
	 Reference Energy          =    -321.9952641698823754 [Eh]
	 Singles Energy            =      -0.0000000000000000 [Eh]
	 Same-Spin Energy          =      -0.3169162732922144 [Eh]
	 Opposite-Spin Energy      =      -1.0006429291530634 [Eh]
	 Correlation Energy        =      -1.3175592024452778 [Eh]
	 Total Energy              =    -323.3128233723276708 [Eh]

	 ================> DF-SCS-MP2 Energies <==================
	-----------------------------------------------------------
	 SCS Same-Spin Scale       =       0.3333333333333333 [-]
	 SCS Opposite-Spin Scale   =       1.2000000000000000 [-]
	 SCS Same-Spin Energy      =      -0.1056387577640715 [Eh]
	 SCS Opposite-Spin Energy  =      -1.2007715149836760 [Eh]
	 SCS Correlation Energy    =      -1.3064102727477473 [Eh]
	 SCS Total Energy          =    -323.3016744426301443 [Eh]
	-----------------------------------------------------------

  Dipole Moment: [D]
     X:     0.5462      Y:    -1.0597      Z:    -0.2786     Total:     1.2243

*** Psi4 exiting successfully. Buy a developer a beer!
