                               Psi4 1.3.2 release

  ==> Input File <==

--------------------------------------------------------------------------
#psi4
#
memory 32 gb

molecule  {
0 1
  O        1.4293010    -1.0173190    -0.5083850
  O        1.2616920     1.0439120     0.4876630
  N       -1.5094500     1.1665790    -0.0160500
  C       -0.7590880    -0.0423940    -0.3475120
  C       -1.3403730    -1.2419500     0.4105850
  C        0.7294260     0.0826320    -0.0646510
  H       -0.8593930    -0.2237720    -1.4273650
  H       -2.4052960    -1.3157140     0.1877600
  H       -0.8411410    -2.1737420     0.1227770
  H       -1.2225590    -1.1039570     1.4923070
  H       -1.0898030     1.9609300    -0.5079820
  H       -1.3695700     1.3697580     0.9773170
  H        2.5560314    -0.7988680    -0.2264328
units angstrom
no_reorient  #important for SAPT in psi4, default
symmetry c1  #important for SAPT in psi4, default
}

set PROPERTIES_ORIGIN ["COM"]
properties('MP2/aug-cc-pvtz', properties = ['dipole'])
--------------------------------------------------------------------------

    Molecular point group: c1
  Charge       = 0
  Multiplicity = 1
  Basis Set: AUG-CC-PVTZ
    Blend: AUG-CC-PVTZ
  Basis Set: (AUG-CC-PVTZ AUX)
    Blend: AUG-CC-PVTZ-JKFIT

    Orbital Energies [Eh]
    ---------------------

    Doubly Occupied:

       1A    -20.631541     2A    -20.557438     3A    -15.552418
       4A    -11.391367     5A    -11.285237     6A    -11.231826
       7A     -1.437299     8A     -1.342072     9A     -1.197855
      10A     -1.018286    11A     -0.896668    12A     -0.772811
      13A     -0.697981    14A     -0.690241    15A     -0.668512
      16A     -0.619527    17A     -0.595922    18A     -0.589217
      19A     -0.546819    20A     -0.528177    21A     -0.510231
      22A     -0.482043    23A     -0.458245    24A     -0.414496

  @DF-RHF Final Energy:  -321.95899408802200

   => Energetics <=

    Nuclear Repulsion Energy =            246.7709664106432683
    One-Electron Energy =                -929.2274611118882603
    Two-Electron Energy =                 360.4975006132229964
    Total Energy =                       -321.9589940880219956
  Basis Set: (AUG-CC-PVTZ AUX)
    Blend: AUG-CC-PVTZ-RI
    Molecular point group: c1

    Geometry (in Angstrom), charge = 0, multiplicity = 1:

       Center              X                  Y                   Z               Mass
    ------------   -----------------  -----------------  -----------------  -----------------
         O            1.427142895897    -1.017737346434    -0.508925026367    15.994914619570
         O            1.259533895897     1.043493653566     0.487122973633    15.994914619570
         N           -1.511608104103     1.166160653566    -0.016590026367    14.003074004430
         C           -0.761246104103    -0.042812346434    -0.348052026367    12.000000000000
         C           -1.342531104103    -1.242368346434     0.410044973633    12.000000000000
         C            0.727267895897     0.082213653566    -0.065191026367    12.000000000000
         H           -0.861551104103    -0.224190346434    -1.427905026367     1.007825032230
         H           -2.407454104103    -1.316132346434     0.187219973633     1.007825032230
         H           -0.843299104103    -2.174160346434     0.122236973633     1.007825032230
         H           -1.224717104103    -1.104375346434     1.491766973633     1.007825032230
         H           -1.091961104103     1.960511653566    -0.508522026367     1.007825032230
         H           -1.371728104103     1.369339653566     0.976776973633     1.007825032230
         H            2.553873295897    -0.799286346434    -0.226972826367     1.007825032230

  Basis Set: AUG-CC-PVTZ
    Blend: AUG-CC-PVTZ
  Basis Set: (AUG-CC-PVTZ AUX)
    Blend: AUG-CC-PVTZ-JKFIT
	 Reference Energy          =    -321.9589940880219956 [Eh]
	 Singles Energy            =      -0.0000000000000000 [Eh]
	 Same-Spin Energy          =      -0.3197192962201158 [Eh]
	 Opposite-Spin Energy      =      -1.0077359328314188 [Eh]
	 Correlation Energy        =      -1.3274552290515347 [Eh]
	 Total Energy              =    -323.2864493170735045 [Eh]

	 ================> DF-SCS-MP2 Energies <==================
	-----------------------------------------------------------
	 SCS Same-Spin Scale       =       0.3333333333333333 [-]
	 SCS Opposite-Spin Scale   =       1.2000000000000000 [-]
	 SCS Same-Spin Energy      =      -0.1065730987400386 [Eh]
	 SCS Opposite-Spin Energy  =      -1.2092831193977025 [Eh]
	 SCS Correlation Energy    =      -1.3158562181377411 [Eh]
	 SCS Total Energy          =    -323.2748503061597489 [Eh]
	-----------------------------------------------------------

  Dipole Moment: [D]
     X:     0.8133      Y:    -1.1377      Z:    -0.2804     Total:     1.4264

*** Psi4 exiting successfully. Buy a developer a beer!
