                               Psi4 1.3.2 release

  ==> Input File <==

--------------------------------------------------------------------------
#psi4
#
memory 32 gb

molecule  {
0 1
  O        1.4293010    -1.0173190    -0.5083850
  O        1.2616920     1.0439120     0.4876630
  N       -1.5094500     1.1665790    -0.0160500
  C       -0.7590880    -0.0423940    -0.3475120
  C       -1.3403730    -1.2419500     0.4105850
  C        0.7294260     0.0826320    -0.0646510
  H       -0.8593930    -0.2237720    -1.4273650
  H       -2.4052960    -1.3157140     0.1877600
  H       -0.8411410    -2.1737420     0.1227770
  H       -1.2225590    -1.1039570     1.4923070
  H       -1.0943352     1.9534639    -0.5235794
  H       -1.3778097     1.3544554     0.9814466
  H        2.3653570    -0.8358360    -0.2741470
units angstrom
no_reorient  #important for SAPT in psi4, default
symmetry c1  #important for SAPT in psi4, default
}

set PROPERTIES_ORIGIN ["COM"]
properties('MP2/aug-cc-pvtz', properties = ['dipole'])
--------------------------------------------------------------------------

    Molecular point group: c1
  Charge       = 0
  Multiplicity = 1
  Basis Set: AUG-CC-PVTZ
    Blend: AUG-CC-PVTZ
  Basis Set: (AUG-CC-PVTZ AUX)
    Blend: AUG-CC-PVTZ-JKFIT

    Orbital Energies [Eh]
    ---------------------

    Doubly Occupied:

       1A    -20.622848     2A    -20.560791     3A    -15.553207
       4A    -11.394727     5A    -11.285802     6A    -11.233030
       7A     -1.457470     8A     -1.359216     9A     -1.199077
      10A     -1.021752    11A     -0.907028    12A     -0.791826
      13A     -0.711072    14A     -0.702259    15A     -0.673836
      16A     -0.626758    17A     -0.608262    18A     -0.596522
      19A     -0.550879    20A     -0.529466    21A     -0.513042
      22A     -0.486388    23A     -0.461392    24A     -0.415310

  @DF-RHF Final Energy:  -321.99415845968429

   => Energetics <=

    Nuclear Repulsion Energy =            247.8207604298006856
    One-Electron Energy =                -931.1059124111499159
    Two-Electron Energy =                 361.2909935216649728
    Total Energy =                       -321.9941584596842858
  Basis Set: (AUG-CC-PVTZ AUX)
    Blend: AUG-CC-PVTZ-RI
    Molecular point group: c1

    Geometry (in Angstrom), charge = 0, multiplicity = 1:

       Center              X                  Y                   Z               Mass
    ------------   -----------------  -----------------  -----------------  -----------------
         O            1.429445463211    -1.017061257594    -0.508255215519    15.994914619570
         O            1.261836463211     1.044169742406     0.487792784481    15.994914619570
         N           -1.509305536789     1.166836742406    -0.015920215519    14.003074004430
         C           -0.758943536789    -0.042136257594    -0.347382215519    12.000000000000
         C           -1.340228536789    -1.241692257594     0.410714784481    12.000000000000
         C            0.729570463211     0.082889742406    -0.064521215519    12.000000000000
         H           -0.859248536789    -0.223514257594    -1.427235215519     1.007825032230
         H           -2.405151536789    -1.315456257594     0.187889784481     1.007825032230
         H           -0.840996536789    -2.173484257594     0.122906784481     1.007825032230
         H           -1.222414536789    -1.103699257594     1.492436784481     1.007825032230
         H           -1.094190736789     1.953721642406    -0.523449615519     1.007825032230
         H           -1.377665236789     1.354713142406     0.981576384481     1.007825032230
         H            2.365501463211    -0.835578257594    -0.274017215519     1.007825032230

  Basis Set: AUG-CC-PVTZ
    Blend: AUG-CC-PVTZ
  Basis Set: (AUG-CC-PVTZ AUX)
    Blend: AUG-CC-PVTZ-JKFIT
	 Reference Energy          =    -321.9941584596842858 [Eh]
	 Singles Energy            =      -0.0000000000000000 [Eh]
	 Same-Spin Energy          =      -0.3171668845729380 [Eh]
	 Opposite-Spin Energy      =      -1.0011530744647339 [Eh]
	 Correlation Energy        =      -1.3183199590376717 [Eh]
	 Total Energy              =    -323.3124784187219802 [Eh]

	 ================> DF-SCS-MP2 Energies <==================
	-----------------------------------------------------------
	 SCS Same-Spin Scale       =       0.3333333333333333 [-]
	 SCS Opposite-Spin Scale   =       1.2000000000000000 [-]
	 SCS Same-Spin Energy      =      -0.1057222948576460 [Eh]
	 SCS Opposite-Spin Energy  =      -1.2013836893576806 [Eh]
	 SCS Correlation Energy    =      -1.3071059842153265 [Eh]
	 SCS Total Energy          =    -323.3012644438996404 [Eh]
	-----------------------------------------------------------

  Dipole Moment: [D]
     X:     0.5755      Y:    -1.1523      Z:    -0.3252     Total:     1.3284

*** Psi4 exiting successfully. Buy a developer a beer!
