                               Psi4 1.3.2 release

  ==> Input File <==

--------------------------------------------------------------------------
#psi4
#
memory 32 gb

molecule  {
0 1
  O        1.4293010    -1.0173190    -0.5083850
  O        1.2616920     1.0439120     0.4876630
  N       -1.5094500     1.1665790    -0.0160500
  C       -0.7590880    -0.0423940    -0.3475120
  C       -1.3403730    -1.2419500     0.4105850
  C        0.7294260     0.0826320    -0.0646510
  H       -0.8593930    -0.2237720    -1.4273650
  H       -2.4052960    -1.3157140     0.1877600
  H       -0.8411410    -2.1737420     0.1227770
  H       -1.2225590    -1.1039570     1.4923070
  H       -1.0898030     1.9609300    -0.5079820
  H       -1.3832363     1.3499073     0.8802645
  H        2.3653570    -0.8358360    -0.2741470
units angstrom
no_reorient  #important for SAPT in psi4, default
symmetry c1  #important for SAPT in psi4, default
}

set PROPERTIES_ORIGIN ["COM"]
properties('MP2/aug-cc-pvtz', properties = ['dipole'])
--------------------------------------------------------------------------

    Molecular point group: c1
  Charge       = 0
  Multiplicity = 1
  Basis Set: AUG-CC-PVTZ
    Blend: AUG-CC-PVTZ
  Basis Set: (AUG-CC-PVTZ AUX)
    Blend: AUG-CC-PVTZ-JKFIT

    Orbital Energies [Eh]
    ---------------------

    Doubly Occupied:

       1A    -20.623224     2A    -20.561349     3A    -15.542095
       4A    -11.395333     5A    -11.286035     6A    -11.233346
       7A     -1.457925     8A     -1.359794     9A     -1.212874
      10A     -1.028814    11A     -0.908388    12A     -0.797436
      13A     -0.711729    14A     -0.705650    15A     -0.676933
      16A     -0.629070    17A     -0.614908    18A     -0.601674
      19A     -0.551375    20A     -0.530179    21A     -0.515028
      22A     -0.486864    23A     -0.462393    24A     -0.417831

  @DF-RHF Final Energy:  -321.98850025463730

   => Energetics <=

    Nuclear Repulsion Energy =            248.3348282114455969
    One-Electron Energy =                -932.0261585183640136
    Two-Electron Energy =                 361.7028300522811151
    Total Energy =                       -321.9885002546373016
  Basis Set: (AUG-CC-PVTZ AUX)
    Blend: AUG-CC-PVTZ-RI
    Molecular point group: c1

    Geometry (in Angstrom), charge = 0, multiplicity = 1:

       Center              X                  Y                   Z               Mass
    ------------   -----------------  -----------------  -----------------  -----------------
         O            1.429455585863    -1.017094282974    -0.507286583832    15.994914619570
         O            1.261846585863     1.044136717026     0.488761416168    15.994914619570
         N           -1.509295414137     1.166803717026    -0.014951583832    14.003074004430
         C           -0.758933414137    -0.042169282974    -0.346413583832    12.000000000000
         C           -1.340218414137    -1.241725282974     0.411683416168    12.000000000000
         C            0.729580585863     0.082856717026    -0.063552583832    12.000000000000
         H           -0.859238414137    -0.223547282974    -1.426266583832     1.007825032230
         H           -2.405141414137    -1.315489282974     0.188858416168     1.007825032230
         H           -0.840986414137    -2.173517282974     0.123875416168     1.007825032230
         H           -1.222404414137    -1.103732282974     1.493405416168     1.007825032230
         H           -1.089648414137     1.961154717026    -0.506883583832     1.007825032230
         H           -1.383081714137     1.350132017026     0.881362916168     1.007825032230
         H            2.365511585863    -0.835611282974    -0.273048583832     1.007825032230

  Basis Set: AUG-CC-PVTZ
    Blend: AUG-CC-PVTZ
  Basis Set: (AUG-CC-PVTZ AUX)
    Blend: AUG-CC-PVTZ-JKFIT
	 Reference Energy          =    -321.9885002546373016 [Eh]
	 Singles Energy            =      -0.0000000000000000 [Eh]
	 Same-Spin Energy          =      -0.3166392809660831 [Eh]
	 Opposite-Spin Energy      =      -0.9996220276883421 [Eh]
	 Correlation Energy        =      -1.3162613086544253 [Eh]
	 Total Energy              =    -323.3047615632917200 [Eh]

	 ================> DF-SCS-MP2 Energies <==================
	-----------------------------------------------------------
	 SCS Same-Spin Scale       =       0.3333333333333333 [-]
	 SCS Opposite-Spin Scale   =       1.2000000000000000 [-]
	 SCS Same-Spin Energy      =      -0.1055464269886944 [Eh]
	 SCS Opposite-Spin Energy  =      -1.1995464332260104 [Eh]
	 SCS Correlation Energy    =      -1.3050928602147047 [Eh]
	 SCS Total Energy          =    -323.2935931148520012 [Eh]
	-----------------------------------------------------------

  Dipole Moment: [D]
     X:     0.5984      Y:    -1.1529      Z:    -0.3474     Total:     1.3446

*** Psi4 exiting successfully. Buy a developer a beer!
