                               Psi4 1.3.2 release

  ==> Input File <==

--------------------------------------------------------------------------
#psi4
#
memory 32 gb

molecule  {
0 1
  O        1.4293010    -1.0173190    -0.5083850
  O        1.2616920     1.0439120     0.4876630
  N       -1.5094500     1.1665790    -0.0160500
  C       -0.7361091    -0.0456940    -0.2746308
  C       -1.3403730    -1.2419500     0.4105850
  C        0.7294260     0.0826320    -0.0646510
  H       -0.8593930    -0.2237720    -1.4273650
  H       -2.4052960    -1.3157140     0.1877600
  H       -0.8411410    -2.1737420     0.1227770
  H       -1.2225590    -1.1039570     1.4923070
  H       -1.0898030     1.9609300    -0.5079820
  H       -1.3383580     1.3263069     0.9803639
  H        2.3653570    -0.8358360    -0.2741470
units angstrom
no_reorient  #important for SAPT in psi4, default
symmetry c1  #important for SAPT in psi4, default
}

set PROPERTIES_ORIGIN ["COM"]
properties('MP2/aug-cc-pvtz', properties = ['dipole'])
--------------------------------------------------------------------------

    Molecular point group: c1
  Charge       = 0
  Multiplicity = 1
  Basis Set: AUG-CC-PVTZ
    Blend: AUG-CC-PVTZ
  Basis Set: (AUG-CC-PVTZ AUX)
    Blend: AUG-CC-PVTZ-JKFIT

    Orbital Energies [Eh]
    ---------------------

    Doubly Occupied:

       1A    -20.624106     2A    -20.561491     3A    -15.555529
       4A    -11.395897     5A    -11.287885     6A    -11.233071
       7A     -1.459415     8A     -1.361011     9A     -1.203675
      10A     -1.028799    11A     -0.913294    12A     -0.785431
      13A     -0.712625    14A     -0.703162    15A     -0.679483
      16A     -0.630123    17A     -0.608755    18A     -0.589203
      19A     -0.556642    20A     -0.536401    21A     -0.497877
      22A     -0.484193    23A     -0.462338    24A     -0.422174

  @DF-RHF Final Energy:  -321.98620738886456

   => Energetics <=

    Nuclear Repulsion Energy =            248.5953361348782096
    One-Electron Energy =                -932.5779267892689859
    Two-Electron Energy =                 361.9963832655262763
    Total Energy =                       -321.9862073888645568
  Basis Set: (AUG-CC-PVTZ AUX)
    Blend: AUG-CC-PVTZ-RI
    Molecular point group: c1

    Geometry (in Angstrom), charge = 0, multiplicity = 1:

       Center              X                  Y                   Z               Mass
    ------------   -----------------  -----------------  -----------------  -----------------
         O            1.425851041875    -1.016382472459    -0.518240907378    15.994914619570
         O            1.258242041875     1.044848527541     0.477807092622    15.994914619570
         N           -1.512899958125     1.167515527541    -0.025905907378    14.003074004430
         C           -0.739559058125    -0.044757472459    -0.284486707378    12.000000000000
         C           -1.343822958125    -1.241013472459     0.400729092622    12.000000000000
         C            0.725976041875     0.083568527541    -0.074506907378    12.000000000000
         H           -0.862842958125    -0.222835472459    -1.437220907378     1.007825032230
         H           -2.408745958125    -1.314777472459     0.177904092622     1.007825032230
         H           -0.844590958125    -2.172805472459     0.112921092622     1.007825032230
         H           -1.226008958125    -1.103020472459     1.482451092622     1.007825032230
         H           -1.093252958125     1.961866527541    -0.517837907378     1.007825032230
         H           -1.341807958125     1.327243427541     0.970507992622     1.007825032230
         H            2.361907041875    -0.834899472459    -0.284002907378     1.007825032230

  Basis Set: AUG-CC-PVTZ
    Blend: AUG-CC-PVTZ
  Basis Set: (AUG-CC-PVTZ AUX)
    Blend: AUG-CC-PVTZ-JKFIT
	 Reference Energy          =    -321.9862073888645568 [Eh]
	 Singles Energy            =      -0.0000000000000000 [Eh]
	 Same-Spin Energy          =      -0.3178418039058344 [Eh]
	 Opposite-Spin Energy      =      -1.0023217442781853 [Eh]
	 Correlation Energy        =      -1.3201635481840197 [Eh]
	 Total Energy              =    -323.3063709370485981 [Eh]

	 ================> DF-SCS-MP2 Energies <==================
	-----------------------------------------------------------
	 SCS Same-Spin Scale       =       0.3333333333333333 [-]
	 SCS Opposite-Spin Scale   =       1.2000000000000000 [-]
	 SCS Same-Spin Energy      =      -0.1059472679686115 [Eh]
	 SCS Opposite-Spin Energy  =      -1.2027860931338223 [Eh]
	 SCS Correlation Energy    =      -1.3087333611024339 [Eh]
	 SCS Total Energy          =    -323.2949407499669974 [Eh]
	-----------------------------------------------------------

  Dipole Moment: [D]
     X:     0.6068      Y:    -1.1810      Z:    -0.2737     Total:     1.3557

*** Psi4 exiting successfully. Buy a developer a beer!
