                               Psi4 1.4a3.dev225

  ==> Input File <==

--------------------------------------------------------------------------
#psi4
#
memory 32 gb

molecule  {
0 1
  O       -1.6162430     0.8314800    -0.3809140
  O       -1.1510000    -1.1772170     0.5605200
  N        1.5455560    -1.0219050    -0.2870820
  C        0.6665940     0.1335400    -0.4023590
  C        1.2095214     1.3129439     0.4963582
  C       -0.7726990    -0.1733030    -0.0203720
  H        0.6629820     0.4626600    -1.4478320
  H        2.2238070     1.4912930     0.1836440
  H        0.5830780     2.1739270     0.3501650
  H        1.1794500     0.9804810     1.5223570
  H        1.2015560    -1.7655910    -0.8946420
  H        1.4549450    -1.3946670     0.6589060
  H       -2.5041220     0.5561110    -0.0708870
units angstrom
no_reorient  #important for SAPT in psi4, default
symmetry c1  #important for SAPT in psi4, default
}

set PROPERTIES_ORIGIN ["COM"]
properties('MP2/aug-cc-pvtz', properties = ['dipole'])
--------------------------------------------------------------------------

    Molecular point group: c1
  Charge       = 0
  Multiplicity = 1
  Basis Set: AUG-CC-PVTZ
    Blend: AUG-CC-PVTZ
  Basis Set: (AUG-CC-PVTZ AUX)
    Blend: AUG-CC-PVTZ-JKFIT

    Orbital Energies [Eh]
    ---------------------

    Doubly Occupied:

       1A    -20.621640     2A    -20.557681     3A    -15.551998
       4A    -11.390159     5A    -11.285053     6A    -11.230826
       7A     -1.464828     8A     -1.362204     9A     -1.198948
      10A     -1.018008    11A     -0.910164    12A     -0.794053
      13A     -0.712550    14A     -0.705492    15A     -0.669572
      16A     -0.631893    17A     -0.608392    18A     -0.597026
      19A     -0.557552    20A     -0.536420    21A     -0.505938
      22A     -0.484419    23A     -0.462476    24A     -0.413708

  @DF-RHF Final Energy:  -321.99621659186170

   => Energetics <=

    Nuclear Repulsion Energy =            248.0929348409778754
    One-Electron Energy =                -931.6363002719332371
    Two-Electron Energy =                 361.5471488390937225
    Total Energy =                       -321.9962165918616961
  Basis Set: (AUG-CC-PVTZ AUX)
    Blend: AUG-CC-PVTZ-RI
    Molecular point group: c1

    Geometry (in Angstrom), charge = 0, multiplicity = 1:

       Center              X                  Y                   Z               Mass
    ------------   -----------------  -----------------  -----------------  -----------------
         O           -1.565270146775     0.854365097243    -0.381367133005    15.994914619570
         O           -1.100027146775    -1.154331902757     0.560066866995    15.994914619570
         N            1.596528853225    -0.999019902757    -0.287535133005    14.003074004430
         C            0.717566853225     0.156425097243    -0.402812133005    12.000000000000
         C            1.260494253225     1.335828997243     0.495905066995    12.000000000000
         C           -0.721726146775    -0.150417902757    -0.020825133005    12.000000000000
         H            0.713954853225     0.485545097243    -1.448285133005     1.007825032230
         H            2.274779853225     1.514178097243     0.183190866995     1.007825032230
         H            0.634050853225     2.196812097243     0.349711866995     1.007825032230
         H            1.230422853225     1.003366097243     1.521903866995     1.007825032230
         H            1.252528853225    -1.742705902757    -0.895095133005     1.007825032230
         H            1.505917853225    -1.371781902757     0.658452866995     1.007825032230
         H           -2.453149146775     0.578996097243    -0.071340133005     1.007825032230

  Basis Set: AUG-CC-PVTZ
    Blend: AUG-CC-PVTZ
  Basis Set: (AUG-CC-PVTZ AUX)
    Blend: AUG-CC-PVTZ-JKFIT
	 Reference Energy          =    -321.9962165918616961 [Eh]
	 Singles Energy            =      -0.0000000000000000 [Eh]
	 Same-Spin Energy          =      -0.3164994795312679 [Eh]
	 Opposite-Spin Energy      =      -0.9995030165864310 [Eh]
	 Correlation Energy        =      -1.3160024961176990 [Eh]
	 Total Energy              =    -323.3122190879793720 [Eh]

	 ================> DF-SCS-MP2 Energies <==================
	-----------------------------------------------------------
	 SCS Same-Spin Scale       =       0.3333333333333333 [-]
	 SCS Opposite-Spin Scale   =       1.2000000000000000 [-]
	 SCS Same-Spin Energy      =      -0.1054998265104226 [Eh]
	 SCS Opposite-Spin Energy  =      -1.1994036199037172 [Eh]
	 SCS Correlation Energy    =      -1.3049034464141398 [Eh]
	 SCS Total Energy          =    -323.3011200382758261 [Eh]
	-----------------------------------------------------------

  Dipole Moment: [D]
     X:    -0.7681      Y:     1.0473      Z:    -0.3478     Total:     1.3446

*** Psi4 exiting successfully. Buy a developer a beer!
