                               Psi4 1.4a3.dev225

  ==> Input File <==

--------------------------------------------------------------------------
#psi4
#
memory 32 gb

molecule  {
0 1
  O       -1.6162430     0.8314800    -0.3809140
  O       -1.1510000    -1.1772170     0.5605200
  N        1.5455560    -1.0219050    -0.2870820
  C        0.6665940     0.1335400    -0.4023590
  C        1.1923300     1.2755990     0.4679010
  C       -0.8036987    -0.1363779    -0.0336217
  H        0.6629820     0.4626600    -1.4478320
  H        2.2238070     1.4912930     0.1836440
  H        0.5830780     2.1739270     0.3501650
  H        1.1794500     0.9804810     1.5223570
  H        1.2015560    -1.7655910    -0.8946420
  H        1.4549450    -1.3946670     0.6589060
  H       -2.5041220     0.5561110    -0.0708870
units angstrom
no_reorient  #important for SAPT in psi4, default
symmetry c1  #important for SAPT in psi4, default
}

set PROPERTIES_ORIGIN ["COM"]
properties('MP2/aug-cc-pvtz', properties = ['dipole'])
--------------------------------------------------------------------------

    Molecular point group: c1
  Charge       = 0
  Multiplicity = 1
  Basis Set: AUG-CC-PVTZ
    Blend: AUG-CC-PVTZ
  Basis Set: (AUG-CC-PVTZ AUX)
    Blend: AUG-CC-PVTZ-JKFIT

    Orbital Energies [Eh]
    ---------------------

    Doubly Occupied:

       1A    -20.635978     2A    -20.549810     3A    -15.550712
       4A    -11.391143     5A    -11.282835     6A    -11.230236
       7A     -1.485242     8A     -1.351058     9A     -1.197619
      10A     -1.021843    11A     -0.909822    12A     -0.806408
      13A     -0.717563    14A     -0.707952    15A     -0.671287
      16A     -0.642884    17A     -0.607110    18A     -0.591846
      19A     -0.547208    20A     -0.531069    21A     -0.510694
      22A     -0.477585    23A     -0.455335    24A     -0.413012

  @DF-RHF Final Energy:  -321.99402419588165

   => Energetics <=

    Nuclear Repulsion Energy =            248.7932757194911062
    One-Electron Energy =                -933.0021002791226010
    Two-Electron Energy =                 362.2148003637498164
    Total Energy =                       -321.9940241958816500
  Basis Set: (AUG-CC-PVTZ AUX)
    Blend: AUG-CC-PVTZ-RI
    Molecular point group: c1

    Geometry (in Angstrom), charge = 0, multiplicity = 1:

       Center              X                  Y                   Z               Mass
    ------------   -----------------  -----------------  -----------------  -----------------
         O           -1.558775949397     0.854421669184    -0.375746741675    15.994914619570
         O           -1.093532949397    -1.154275330816     0.565687258325    15.994914619570
         N            1.603023050603    -0.998963330816    -0.281914741675    14.003074004430
         C            0.724061050603     0.156481669184    -0.397191741675    12.000000000000
         C            1.249797050603     1.298540669184     0.473068258325    12.000000000000
         C           -0.746231649397    -0.113436230816    -0.028454441675    12.000000000000
         H            0.720449050603     0.485601669184    -1.442664741675     1.007825032230
         H            2.281274050603     1.514234669184     0.188811258325     1.007825032230
         H            0.640545050603     2.196868669184     0.355332258325     1.007825032230
         H            1.236917050603     1.003422669184     1.527524258325     1.007825032230
         H            1.259023050603    -1.742649330816    -0.889474741675     1.007825032230
         H            1.512412050603    -1.371725330816     0.664073258325     1.007825032230
         H           -2.446654949397     0.579052669184    -0.065719741675     1.007825032230

  Basis Set: AUG-CC-PVTZ
    Blend: AUG-CC-PVTZ
  Basis Set: (AUG-CC-PVTZ AUX)
    Blend: AUG-CC-PVTZ-JKFIT
	 Reference Energy          =    -321.9940241958816500 [Eh]
	 Singles Energy            =      -0.0000000000000000 [Eh]
	 Same-Spin Energy          =      -0.3170124781789851 [Eh]
	 Opposite-Spin Energy      =      -0.9998192627743010 [Eh]
	 Correlation Energy        =      -1.3168317409532861 [Eh]
	 Total Energy              =    -323.3108559368349120 [Eh]

	 ================> DF-SCS-MP2 Energies <==================
	-----------------------------------------------------------
	 SCS Same-Spin Scale       =       0.3333333333333333 [-]
	 SCS Opposite-Spin Scale   =       1.2000000000000000 [-]
	 SCS Same-Spin Energy      =      -0.1056708260596617 [Eh]
	 SCS Opposite-Spin Energy  =      -1.1997831153291612 [Eh]
	 SCS Correlation Energy    =      -1.3054539413888229 [Eh]
	 SCS Total Energy          =    -323.2994781372704551 [Eh]
	-----------------------------------------------------------

  Dipole Moment: [D]
     X:    -1.0062      Y:     1.3385      Z:    -0.4767     Total:     1.7410

*** Psi4 exiting successfully. Buy a developer a beer!
