                               Psi4 1.3.2 release

  ==> Input File <==

--------------------------------------------------------------------------
#psi4
#
memory 32 gb

molecule  {
0 1
  O        1.4293010    -1.0173190    -0.5083850
  O        1.2616920     1.0439120     0.4876630
  N       -1.5094500     1.1665790    -0.0160500
  C       -0.7590880    -0.0423940    -0.3475120
  C       -1.3403730    -1.2419500     0.4105850
  C        0.7294260     0.0826320    -0.0646510
  H       -0.8593930    -0.2237720    -1.4273650
  H       -2.4052960    -1.3157140     0.1877600
  H       -0.8411410    -2.1737420     0.1227770
  H       -1.2225590    -1.1039570     1.4923070
  H       -1.0898030     1.9609300    -0.5079820
  H       -1.3695700     1.3697580     0.9773170
  H        2.3653570    -0.8358360    -0.2741470
units angstrom
no_reorient  #important for SAPT in psi4, default
symmetry c1  #important for SAPT in psi4, default
}

set PROPERTIES_ORIGIN ["COM"]
properties('MP2/aug-cc-pvtz', properties = ['dipole'])
--------------------------------------------------------------------------

    Molecular point group: c1
  Charge       = 0
  Multiplicity = 1
  Basis Set: AUG-CC-PVTZ
    Blend: AUG-CC-PVTZ
  Basis Set: (AUG-CC-PVTZ AUX)
    Blend: AUG-CC-PVTZ-JKFIT

    Orbital Energies [Eh]
    ---------------------

    Doubly Occupied:

       1A    -20.622999     2A    -20.561012     3A    -15.553302
       4A    -11.394981     5A    -11.286097     6A    -11.233041
       7A     -1.457645     8A     -1.359432     9A     -1.199217
      10A     -1.022236    11A     -0.907093    12A     -0.792407
      13A     -0.711123    14A     -0.702264    15A     -0.672457
      16A     -0.626376    17A     -0.608772    18A     -0.596292
      19A     -0.550997    20A     -0.529777    21A     -0.512618
      22A     -0.486594    23A     -0.461674    24A     -0.416283

  @DF-RHF Final Energy:  -321.99428456358379

   => Energetics <=

    Nuclear Repulsion Energy =            247.8128033338120133
    One-Electron Energy =                -931.0847959920064341
    Two-Electron Energy =                 361.2777080946106594
    Total Energy =                       -321.9942845635837898
  Basis Set: (AUG-CC-PVTZ AUX)
    Blend: AUG-CC-PVTZ-RI
    Molecular point group: c1

    Geometry (in Angstrom), charge = 0, multiplicity = 1:

       Center              X                  Y                   Z               Mass
    ------------   -----------------  -----------------  -----------------  -----------------
         O            1.429300913226    -1.017318949498    -0.508385005942    15.994914619570
         O            1.261691913226     1.043912050502     0.487662994058    15.994914619570
         N           -1.509450086774     1.166579050502    -0.016050005942    14.003074004430
         C           -0.759088086774    -0.042393949498    -0.347512005942    12.000000000000
         C           -1.340373086774    -1.241949949498     0.410584994058    12.000000000000
         C            0.729425913226     0.082632050502    -0.064651005942    12.000000000000
         H           -0.859393086774    -0.223771949498    -1.427365005942     1.007825032230
         H           -2.405296086774    -1.315713949498     0.187759994058     1.007825032230
         H           -0.841141086774    -2.173741949498     0.122776994058     1.007825032230
         H           -1.222559086774    -1.103956949498     1.492306994058     1.007825032230
         H           -1.089803086774     1.960930050502    -0.507982005942     1.007825032230
         H           -1.369570086774     1.369758050502     0.977316994058     1.007825032230
         H            2.365356913226    -0.835835949498    -0.274147005942     1.007825032230

  Basis Set: AUG-CC-PVTZ
    Blend: AUG-CC-PVTZ
  Basis Set: (AUG-CC-PVTZ AUX)
    Blend: AUG-CC-PVTZ-JKFIT
	 Reference Energy          =    -321.9942845635837898 [Eh]
	 Singles Energy            =      -0.0000000000000000 [Eh]
	 Same-Spin Energy          =      -0.3171603112408315 [Eh]
	 Opposite-Spin Energy      =      -1.0011509644451468 [Eh]
	 Correlation Energy        =      -1.3183112756859785 [Eh]
	 Total Energy              =    -323.3125958392697612 [Eh]

	 ================> DF-SCS-MP2 Energies <==================
	-----------------------------------------------------------
	 SCS Same-Spin Scale       =       0.3333333333333333 [-]
	 SCS Opposite-Spin Scale   =       1.2000000000000000 [-]
	 SCS Same-Spin Energy      =      -0.1057201037469438 [Eh]
	 SCS Opposite-Spin Energy  =      -1.2013811573341762 [Eh]
	 SCS Correlation Energy    =      -1.3071012610811201 [Eh]
	 SCS Total Energy          =    -323.3013858246649193 [Eh]
	-----------------------------------------------------------

  Dipole Moment: [D]
     X:     0.5964      Y:    -1.1451      Z:    -0.3161     Total:     1.3292

*** Psi4 exiting successfully. Buy a developer a beer!
