                               Psi4 1.3.2 release

  ==> Input File <==

--------------------------------------------------------------------------
#psi4
#
memory 32 gb

molecule  {
0 1
  O        1.4293010    -1.0173190    -0.5083850
  O        1.2616920     1.0439120     0.4876630
  N       -1.5094500     1.1665790    -0.0160500
  C       -0.7435362    -0.0449629    -0.2990132
  C       -1.3403730    -1.2419500     0.4105850
  C        0.7294260     0.0826320    -0.0646510
  H       -0.8593930    -0.2237720    -1.4273650
  H       -2.4052960    -1.3157140     0.1877600
  H       -0.8411410    -2.1737420     0.1227770
  H       -1.2225590    -1.1039570     1.4923070
  H       -1.0898030     1.9609300    -0.5079820
  H       -1.3487141     1.3408452     0.9796515
  H        2.3653570    -0.8358360    -0.2741470
units angstrom
no_reorient  #important for SAPT in psi4, default
symmetry c1  #important for SAPT in psi4, default
}

set PROPERTIES_ORIGIN ["COM"]
properties('MP2/aug-cc-pvtz', properties = ['dipole'])
--------------------------------------------------------------------------

    Molecular point group: c1
  Charge       = 0
  Multiplicity = 1
  Basis Set: AUG-CC-PVTZ
    Blend: AUG-CC-PVTZ
  Basis Set: (AUG-CC-PVTZ AUX)
    Blend: AUG-CC-PVTZ-JKFIT

    Orbital Energies [Eh]
    ---------------------

    Doubly Occupied:

       1A    -20.623768     2A    -20.561376     3A    -15.554708
       4A    -11.395576     5A    -11.287067     6A    -11.232966
       7A     -1.458856     8A     -1.360506     9A     -1.202075
      10A     -1.026575    11A     -0.911146    12A     -0.787473
      13A     -0.712163    14A     -0.702997    15A     -0.677058
      16A     -0.628818    17A     -0.608719    18A     -0.591412
      19A     -0.554409    20A     -0.534196    21A     -0.502294
      22A     -0.485875    23A     -0.462464    24A     -0.420427

  @DF-RHF Final Energy:  -321.99039301649418

   => Energetics <=

    Nuclear Repulsion Energy =            248.3408591607988853
    One-Electron Energy =                -932.0966523034154534
    Two-Electron Energy =                 361.7654001261223584
    Total Energy =                       -321.9903930164941812
  Basis Set: (AUG-CC-PVTZ AUX)
    Blend: AUG-CC-PVTZ-RI
    Molecular point group: c1

    Geometry (in Angstrom), charge = 0, multiplicity = 1:

       Center              X                  Y                   Z               Mass
    ------------   -----------------  -----------------  -----------------  -----------------
         O            1.426969120847    -1.016645536731    -0.514947090183    15.994914619570
         O            1.259360120847     1.044585463269     0.481100909817    15.994914619570
         N           -1.511781879153     1.167252463269    -0.022612090183    14.003074004430
         C           -0.745868079153    -0.044289436731    -0.305575290183    12.000000000000
         C           -1.342704879153    -1.241276536731     0.404022909817    12.000000000000
         C            0.727094120847     0.083305463269    -0.071213090183    12.000000000000
         H           -0.861724879153    -0.223098536731    -1.433927090183     1.007825032230
         H           -2.407627879153    -1.315040536731     0.181197909817     1.007825032230
         H           -0.843472879153    -2.173068536731     0.116214909817     1.007825032230
         H           -1.224890879153    -1.103283536731     1.485744909817     1.007825032230
         H           -1.092134879153     1.961603463269    -0.514544090183     1.007825032230
         H           -1.351045979153     1.341518663269     0.973089409817     1.007825032230
         H            2.363025120847    -0.835162536731    -0.280709090183     1.007825032230

  Basis Set: AUG-CC-PVTZ
    Blend: AUG-CC-PVTZ
  Basis Set: (AUG-CC-PVTZ AUX)
    Blend: AUG-CC-PVTZ-JKFIT
	 Reference Energy          =    -321.9903930164941812 [Eh]
	 Singles Energy            =      -0.0000000000000000 [Eh]
	 Same-Spin Energy          =      -0.3175735905585666 [Eh]
	 Opposite-Spin Energy      =      -1.0018374625142012 [Eh]
	 Correlation Energy        =      -1.3194110530727678 [Eh]
	 Total Energy              =    -323.3098040695669511 [Eh]

	 ================> DF-SCS-MP2 Energies <==================
	-----------------------------------------------------------
	 SCS Same-Spin Scale       =       0.3333333333333333 [-]
	 SCS Opposite-Spin Scale   =       1.2000000000000000 [-]
	 SCS Same-Spin Energy      =      -0.1058578635195222 [Eh]
	 SCS Opposite-Spin Energy  =      -1.2022049550170415 [Eh]
	 SCS Correlation Energy    =      -1.3080628185365637 [Eh]
	 SCS Total Energy          =    -323.2984558350307225 [Eh]
	-----------------------------------------------------------

  Dipole Moment: [D]
     X:     0.6061      Y:    -1.1698      Z:    -0.2889     Total:     1.3488

*** Psi4 exiting successfully. Buy a developer a beer!
