                               Psi4 1.3.2 release

  ==> Input File <==

--------------------------------------------------------------------------
#psi4
#
memory 32 gb

molecule  {
0 1
  O        1.4293010    -1.0173190    -0.5083850
  O        1.2616920     1.0439120     0.4876630
  N       -1.5094500     1.1665790    -0.0160500
  C       -0.8618068     0.1231052    -0.3021374
  C       -1.3403730    -1.2419500     0.4105850
  C        0.7294260     0.0826320    -0.0646510
  H       -0.8593930    -0.2237720    -1.4273650
  H       -2.4052960    -1.3157140     0.1877600
  H       -0.8411410    -2.1737420     0.1227770
  H       -1.2225590    -1.1039570     1.4923070
  H       -1.0898030     1.9609300    -0.5079820
  H       -1.3695700     1.3697580     0.9773170
  H        2.3653570    -0.8358360    -0.2741470
units angstrom
no_reorient  #important for SAPT in psi4, default
symmetry c1  #important for SAPT in psi4, default
}

set PROPERTIES_ORIGIN ["COM"]
properties('MP2/aug-cc-pvtz', properties = ['dipole'])
--------------------------------------------------------------------------

    Molecular point group: c1
  Charge       = 0
  Multiplicity = 1
  Basis Set: AUG-CC-PVTZ
    Blend: AUG-CC-PVTZ
  Basis Set: (AUG-CC-PVTZ AUX)
    Blend: AUG-CC-PVTZ-JKFIT

    Orbital Energies [Eh]
    ---------------------

    Doubly Occupied:

       1A    -20.620901     2A    -20.551369     3A    -15.560326
       4A    -11.384292     5A    -11.294053     6A    -11.231577
       7A     -1.450666     8A     -1.353694     9A     -1.275785
      10A     -0.999142    11A     -0.884029    12A     -0.798385
      13A     -0.714545    14A     -0.708312    15A     -0.698391
      16A     -0.629694    17A     -0.620560    18A     -0.594882
      19A     -0.554898    20A     -0.541745    21A     -0.487329
      22A     -0.472554    23A     -0.459947    24A     -0.391728

  @DF-RHF Final Energy:  -321.94577957583289

   => Energetics <=

    Nuclear Repulsion Energy =            248.1522745229145812
    One-Electron Energy =                -931.6384961857800135
    Two-Electron Energy =                 361.5404420870325453
    Total Energy =                       -321.9457795758328871
  Basis Set: (AUG-CC-PVTZ AUX)
    Blend: AUG-CC-PVTZ-RI
    Molecular point group: c1

    Geometry (in Angstrom), charge = 0, multiplicity = 1:

       Center              X                  Y                   Z               Mass
    ------------   -----------------  -----------------  -----------------  -----------------
         O            1.443143223562    -1.039621500605    -0.514499653841    15.994914619570
         O            1.275534223562     1.021609499395     0.481548346159    15.994914619570
         N           -1.495607776438     1.144276499395    -0.022164653841    14.003074004430
         C           -0.847964576438     0.100802699395    -0.308252053841    12.000000000000
         C           -1.326530776438    -1.264252500605     0.404470346159    12.000000000000
         C            0.743268223562     0.060329499395    -0.070765653841    12.000000000000
         H           -0.845550776438    -0.246074500605    -1.433479653841     1.007825032230
         H           -2.391453776438    -1.338016500605     0.181645346159     1.007825032230
         H           -0.827298776438    -2.196044500605     0.116662346159     1.007825032230
         H           -1.208716776438    -1.126259500605     1.486192346159     1.007825032230
         H           -1.075960776438     1.938627499395    -0.514096653841     1.007825032230
         H           -1.355727776438     1.347455499395     0.971202346159     1.007825032230
         H            2.379199223562    -0.858138500605    -0.280261653841     1.007825032230

  Basis Set: AUG-CC-PVTZ
    Blend: AUG-CC-PVTZ
  Basis Set: (AUG-CC-PVTZ AUX)
    Blend: AUG-CC-PVTZ-JKFIT
	 Reference Energy          =    -321.9457795758328871 [Eh]
	 Singles Energy            =      -0.0000000000000000 [Eh]
	 Same-Spin Energy          =      -0.3189780226918340 [Eh]
	 Opposite-Spin Energy      =      -1.0022952177935662 [Eh]
	 Correlation Energy        =      -1.3212732404854002 [Eh]
	 Total Energy              =    -323.2670528163183121 [Eh]

	 ================> DF-SCS-MP2 Energies <==================
	-----------------------------------------------------------
	 SCS Same-Spin Scale       =       0.3333333333333333 [-]
	 SCS Opposite-Spin Scale   =       1.2000000000000000 [-]
	 SCS Same-Spin Energy      =      -0.1063260075639446 [Eh]
	 SCS Opposite-Spin Energy  =      -1.2027542613522795 [Eh]
	 SCS Correlation Energy    =      -1.3090802689162242 [Eh]
	 SCS Total Energy          =    -323.2548598447490917 [Eh]
	-----------------------------------------------------------

  Dipole Moment: [D]
     X:     0.1649      Y:    -0.6280      Z:    -0.2444     Total:     0.6938

*** Psi4 exiting successfully. Buy a developer a beer!
