                               Psi4 1.3.2 release

  ==> Input File <==

--------------------------------------------------------------------------
#psi4
#
memory 32 gb

molecule  {
0 1
  O        1.4293010    -1.0173190    -0.5083850
  O        1.2616920     1.0439120     0.4876630
  N       -1.5094500     1.1665790    -0.0160500
  C       -0.7590880    -0.0423940    -0.3475120
  C       -1.3403730    -1.2419500     0.4105850
  C        0.7239830     0.0865296    -0.0389755
  H       -0.8784614    -0.2244478    -1.4253097
  H       -2.4052960    -1.3157140     0.1877600
  H       -0.8411410    -2.1737420     0.1227770
  H       -1.2225590    -1.1039570     1.4923070
  H       -1.0898030     1.9609300    -0.5079820
  H       -1.3695700     1.3697580     0.9773170
  H        2.3653570    -0.8358360    -0.2741470
units angstrom
no_reorient  #important for SAPT in psi4, default
symmetry c1  #important for SAPT in psi4, default
}

set PROPERTIES_ORIGIN ["COM"]
properties('MP2/aug-cc-pvtz', properties = ['dipole'])
--------------------------------------------------------------------------

    Molecular point group: c1
  Charge       = 0
  Multiplicity = 1
  Basis Set: AUG-CC-PVTZ
    Blend: AUG-CC-PVTZ
  Basis Set: (AUG-CC-PVTZ AUX)
    Blend: AUG-CC-PVTZ-JKFIT

    Orbital Energies [Eh]
    ---------------------

    Doubly Occupied:

       1A    -20.618941     2A    -20.564218     3A    -15.553379
       4A    -11.394687     5A    -11.286094     6A    -11.232667
       7A     -1.455633     8A     -1.363128     9A     -1.199927
      10A     -1.022023    11A     -0.904839    12A     -0.789406
      13A     -0.711352    14A     -0.702818    15A     -0.672147
      16A     -0.624763    17A     -0.609293    18A     -0.597296
      19A     -0.551448    20A     -0.529979    21A     -0.511497
      22A     -0.490297    23A     -0.463762    24A     -0.416228

  @DF-RHF Final Energy:  -321.99429443846651

   => Energetics <=

    Nuclear Repulsion Energy =            247.8596639198322009
    One-Electron Energy =                -931.1762740989150871
    Two-Electron Energy =                 361.3223157406163750
    Total Energy =                       -321.9942944384665111
  Basis Set: (AUG-CC-PVTZ AUX)
    Blend: AUG-CC-PVTZ-RI
    Molecular point group: c1

    Geometry (in Angstrom), charge = 0, multiplicity = 1:

       Center              X                  Y                   Z               Mass
    ------------   -----------------  -----------------  -----------------  -----------------
         O            1.430250220522    -1.017836538644    -0.511868279040    15.994914619570
         O            1.262641220522     1.043394461356     0.484179720960    15.994914619570
         N           -1.508500779478     1.166061461356    -0.019533279040    14.003074004430
         C           -0.758138779478    -0.042911538644    -0.350995279040    12.000000000000
         C           -1.339423779478    -1.242467538644     0.407101720960    12.000000000000
         C            0.724932220522     0.086012061356    -0.042458779040    12.000000000000
         H           -0.877512179478    -0.224965338644    -1.428792979040     1.007825032230
         H           -2.404346779478    -1.316231538644     0.184276720960     1.007825032230
         H           -0.840191779478    -2.174259538644     0.119293720960     1.007825032230
         H           -1.221609779478    -1.104474538644     1.488823720960     1.007825032230
         H           -1.088853779478     1.960412461356    -0.511465279040     1.007825032230
         H           -1.368620779478     1.369240461356     0.973833720960     1.007825032230
         H            2.366306220522    -0.836353538644    -0.277630279040     1.007825032230

  Basis Set: AUG-CC-PVTZ
    Blend: AUG-CC-PVTZ
  Basis Set: (AUG-CC-PVTZ AUX)
    Blend: AUG-CC-PVTZ-JKFIT
	 Reference Energy          =    -321.9942944384665111 [Eh]
	 Singles Energy            =      -0.0000000000000000 [Eh]
	 Same-Spin Energy          =      -0.3170338600584170 [Eh]
	 Opposite-Spin Energy      =      -1.0010487095162048 [Eh]
	 Correlation Energy        =      -1.3180825695746219 [Eh]
	 Total Energy              =    -323.3123770080411532 [Eh]

	 ================> DF-SCS-MP2 Energies <==================
	-----------------------------------------------------------
	 SCS Same-Spin Scale       =       0.3333333333333333 [-]
	 SCS Opposite-Spin Scale   =       1.2000000000000000 [-]
	 SCS Same-Spin Energy      =      -0.1056779533528057 [Eh]
	 SCS Opposite-Spin Energy  =      -1.2012584514194458 [Eh]
	 SCS Correlation Energy    =      -1.3069364047722514 [Eh]
	 SCS Total Energy          =    -323.3012308432387840 [Eh]
	-----------------------------------------------------------

  Dipole Moment: [D]
     X:     0.5633      Y:    -1.0461      Z:    -0.2521     Total:     1.2146

*** Psi4 exiting successfully. Buy a developer a beer!
