                               Psi4 1.3.2 release

  ==> Input File <==

--------------------------------------------------------------------------
#psi4
#
memory 32 gb

molecule  {
0 1
  O        1.4293010    -1.0173190    -0.5083850
  O        1.2616920     1.0439120     0.4876630
  N       -1.5094500     1.1665790    -0.0160500
  C       -0.7590880    -0.0423940    -0.3475120
  C       -1.3403730    -1.2419500     0.4105850
  C        0.7319775     0.0806688    -0.0775216
  H       -0.8498470    -0.2234134    -1.4282693
  H       -2.4052960    -1.3157140     0.1877600
  H       -0.8411410    -2.1737420     0.1227770
  H       -1.2225590    -1.1039570     1.4923070
  H       -1.0898030     1.9609300    -0.5079820
  H       -1.3695700     1.3697580     0.9773170
  H        2.3653570    -0.8358360    -0.2741470
units angstrom
no_reorient  #important for SAPT in psi4, default
symmetry c1  #important for SAPT in psi4, default
}

set PROPERTIES_ORIGIN ["COM"]
properties('MP2/aug-cc-pvtz', properties = ['dipole'])
--------------------------------------------------------------------------

    Molecular point group: c1
  Charge       = 0
  Multiplicity = 1
  Basis Set: AUG-CC-PVTZ
    Blend: AUG-CC-PVTZ
  Basis Set: (AUG-CC-PVTZ AUX)
    Blend: AUG-CC-PVTZ-JKFIT

    Orbital Energies [Eh]
    ---------------------

    Doubly Occupied:

       1A    -20.624985     2A    -20.559429     3A    -15.553281
       4A    -11.395187     5A    -11.286148     6A    -11.233243
       7A     -1.459174     8A     -1.356934     9A     -1.198882
      10A     -1.022376    11A     -0.908267    12A     -0.794017
      13A     -0.711090    14A     -0.701966    15A     -0.672640
      16A     -0.627294    17A     -0.608538    18A     -0.595617
      19A     -0.550737    20A     -0.529674    21A     -0.513148
      22A     -0.484555    23A     -0.460530    24A     -0.416281

  @DF-RHF Final Energy:  -321.99376277285216

   => Energetics <=

    Nuclear Repulsion Energy =            247.7860383226079648
    One-Electron Energy =                -931.0316160480573444
    Two-Electron Energy =                 361.2518149525972149
    Total Energy =                       -321.9937627728521647
  Basis Set: (AUG-CC-PVTZ AUX)
    Blend: AUG-CC-PVTZ-RI
    Molecular point group: c1

    Geometry (in Angstrom), charge = 0, multiplicity = 1:

       Center              X                  Y                   Z               Mass
    ------------   -----------------  -----------------  -----------------  -----------------
         O            1.428849035104    -1.017058448670    -0.506640338604    15.994914619570
         O            1.261240035104     1.044172551330     0.489407661396    15.994914619570
         N           -1.509901964896     1.166839551330    -0.014305338604    14.003074004430
         C           -0.759539964896    -0.042133448670    -0.345767338604    12.000000000000
         C           -1.340824964896    -1.241689448670     0.412329661396    12.000000000000
         C            0.731525535104     0.080929351330    -0.075776938604    12.000000000000
         H           -0.850298964896    -0.223152848670    -1.426524638604     1.007825032230
         H           -2.405747964896    -1.315453448670     0.189504661396     1.007825032230
         H           -0.841592964896    -2.173481448670     0.124521661396     1.007825032230
         H           -1.223010964896    -1.103696448670     1.494051661396     1.007825032230
         H           -1.090254964896     1.961190551330    -0.506237338604     1.007825032230
         H           -1.370021964896     1.370018551330     0.979061661396     1.007825032230
         H            2.364905035104    -0.835575448670    -0.272402338604     1.007825032230

  Basis Set: AUG-CC-PVTZ
    Blend: AUG-CC-PVTZ
  Basis Set: (AUG-CC-PVTZ AUX)
    Blend: AUG-CC-PVTZ-JKFIT
	 Reference Energy          =    -321.9937627728521647 [Eh]
	 Singles Energy            =      -0.0000000000000000 [Eh]
	 Same-Spin Energy          =      -0.3172448733217825 [Eh]
	 Opposite-Spin Energy      =      -1.0012524483876750 [Eh]
	 Correlation Energy        =      -1.3184973217094575 [Eh]
	 Total Energy              =    -323.3122600945616227 [Eh]

	 ================> DF-SCS-MP2 Energies <==================
	-----------------------------------------------------------
	 SCS Same-Spin Scale       =       0.3333333333333333 [-]
	 SCS Opposite-Spin Scale   =       1.2000000000000000 [-]
	 SCS Same-Spin Energy      =      -0.1057482911072608 [Eh]
	 SCS Opposite-Spin Energy  =      -1.2015029380652100 [Eh]
	 SCS Correlation Energy    =      -1.3072512291724709 [Eh]
	 SCS Total Energy          =    -323.3010140020246581 [Eh]
	-----------------------------------------------------------

  Dipole Moment: [D]
     X:     0.6115      Y:    -1.1938      Z:    -0.3471     Total:     1.3855

*** Psi4 exiting successfully. Buy a developer a beer!
