                               Psi4 1.3.2 release

  ==> Input File <==

--------------------------------------------------------------------------
#psi4
#
memory 32 gb

molecule  {
0 1
  O        1.4293010    -1.0173190    -0.5083850
  O        1.2616920     1.0439120     0.4876630
  N       -1.5094500     1.1665790    -0.0160500
  C       -0.7590880    -0.0423940    -0.3475120
  C       -1.3403730    -1.2419500     0.4105850
  C        0.8310651    -0.0771079    -0.1290921
  H       -0.8593930    -0.2237720    -1.4273650
  H       -2.4052960    -1.3157140     0.1877600
  H       -0.8411410    -2.1737420     0.1227770
  H       -1.2225590    -1.1039570     1.4923070
  H       -1.0898030     1.9609300    -0.5079820
  H       -1.3695700     1.3697580     0.9773170
  H        2.3653570    -0.8358360    -0.2741470
units angstrom
no_reorient  #important for SAPT in psi4, default
symmetry c1  #important for SAPT in psi4, default
}

set PROPERTIES_ORIGIN ["COM"]
properties('MP2/aug-cc-pvtz', properties = ['dipole'])
--------------------------------------------------------------------------

    Molecular point group: c1
  Charge       = 0
  Multiplicity = 1
  Basis Set: AUG-CC-PVTZ
    Blend: AUG-CC-PVTZ
  Basis Set: (AUG-CC-PVTZ AUX)
    Blend: AUG-CC-PVTZ-JKFIT

    Orbital Energies [Eh]
    ---------------------

    Doubly Occupied:

       1A    -20.677865     2A    -20.525102     3A    -15.548742
       4A    -11.395376     5A    -11.284594     6A    -11.228806
       7A     -1.576418     8A     -1.288472     9A     -1.185106
      10A     -1.018316    11A     -0.932983    12A     -0.832709
      13A     -0.760598    14A     -0.708311    15A     -0.682821
      16A     -0.661355    17A     -0.598579    18A     -0.574954
      19A     -0.534475    20A     -0.519115    21A     -0.507435
      22A     -0.442159    23A     -0.428954    24A     -0.401411

  @DF-RHF Final Energy:  -321.93574564486374

   => Energetics <=

    Nuclear Repulsion Energy =            247.8275410283433757
    One-Electron Energy =                -930.8972575538241472
    Two-Electron Energy =                 361.1339708806170279
    Total Energy =                       -321.9357456448637436
  Basis Set: (AUG-CC-PVTZ AUX)
    Blend: AUG-CC-PVTZ-RI
    Molecular point group: c1

    Geometry (in Angstrom), charge = 0, multiplicity = 1:

       Center              X                  Y                   Z               Mass
    ------------   -----------------  -----------------  -----------------  -----------------
         O            1.415604102473    -0.995792517446    -0.499700970454    15.994914619570
         O            1.247995102473     1.065438482554     0.496347029546    15.994914619570
         N           -1.523146897527     1.188105482554    -0.007365970454    14.003074004430
         C           -0.772784897527    -0.020867517446    -0.338827970454    12.000000000000
         C           -1.354069897527    -1.220423517446     0.419269029546    12.000000000000
         C            0.817368202473    -0.055581417446    -0.120408070454    12.000000000000
         H           -0.873089897527    -0.202245517446    -1.418680970454     1.007825032230
         H           -2.418992897527    -1.294187517446     0.196444029546     1.007825032230
         H           -0.854837897527    -2.152215517446     0.131461029546     1.007825032230
         H           -1.236255897527    -1.082430517446     1.500991029546     1.007825032230
         H           -1.103499897527     1.982456482554    -0.499297970454     1.007825032230
         H           -1.383266897527     1.391284482554     0.986001029546     1.007825032230
         H            2.351660102473    -0.814309517446    -0.265462970454     1.007825032230

  Basis Set: AUG-CC-PVTZ
    Blend: AUG-CC-PVTZ
  Basis Set: (AUG-CC-PVTZ AUX)
    Blend: AUG-CC-PVTZ-JKFIT
	 Reference Energy          =    -321.9357456448637436 [Eh]
	 Singles Energy            =      -0.0000000000000000 [Eh]
	 Same-Spin Energy          =      -0.3186640353072955 [Eh]
	 Opposite-Spin Energy      =      -1.0026380866412747 [Eh]
	 Correlation Energy        =      -1.3213021219485701 [Eh]
	 Total Energy              =    -323.2570477668123203 [Eh]

	 ================> DF-SCS-MP2 Energies <==================
	-----------------------------------------------------------
	 SCS Same-Spin Scale       =       0.3333333333333333 [-]
	 SCS Opposite-Spin Scale   =       1.2000000000000000 [-]
	 SCS Same-Spin Energy      =      -0.1062213451024318 [Eh]
	 SCS Opposite-Spin Energy  =      -1.2031657039695296 [Eh]
	 SCS Correlation Energy    =      -1.3093870490719615 [Eh]
	 SCS Total Energy          =    -323.2451326939357159 [Eh]
	-----------------------------------------------------------

  Dipole Moment: [D]
     X:     1.1821      Y:    -2.3801      Z:    -0.9022     Total:     2.8064

*** Psi4 exiting successfully. Buy a developer a beer!
