                               Psi4 1.3.2 release

  ==> Input File <==

--------------------------------------------------------------------------
#psi4
#
memory 32 gb

molecule  {
0 1
  O        1.4293010    -1.0173190    -0.5083850
  O        1.2712418     1.0391073     0.4867179
  N       -1.5094500     1.1665790    -0.0160500
  C       -0.7569805    -0.0542675    -0.3530432
  C       -1.3403730    -1.2419500     0.4105850
  C        0.7294260     0.0826320    -0.0646510
  H       -0.8593930    -0.2237720    -1.4273650
  H       -2.4052960    -1.3157140     0.1877600
  H       -0.8411410    -2.1737420     0.1227770
  H       -1.2225590    -1.1039570     1.4923070
  H       -1.0898030     1.9609300    -0.5079820
  H       -1.3695700     1.3697580     0.9773170
  H        2.3653570    -0.8358360    -0.2741470
units angstrom
no_reorient  #important for SAPT in psi4, default
symmetry c1  #important for SAPT in psi4, default
}

set PROPERTIES_ORIGIN ["COM"]
properties('MP2/aug-cc-pvtz', properties = ['dipole'])
--------------------------------------------------------------------------

    Molecular point group: c1
  Charge       = 0
  Multiplicity = 1
  Basis Set: AUG-CC-PVTZ
    Blend: AUG-CC-PVTZ
  Basis Set: (AUG-CC-PVTZ AUX)
    Blend: AUG-CC-PVTZ-JKFIT

    Orbital Energies [Eh]
    ---------------------

    Doubly Occupied:

       1A    -20.622065     2A    -20.561385     3A    -15.553222
       4A    -11.395365     5A    -11.286537     6A    -11.233287
       7A     -1.457778     8A     -1.358820     9A     -1.196235
      10A     -1.023705    11A     -0.907936    12A     -0.792652
      13A     -0.710946    14A     -0.702155    15A     -0.671071
      16A     -0.626267    17A     -0.608061    18A     -0.596669
      19A     -0.551232    20A     -0.527926    21A     -0.515911
      22A     -0.486850    23A     -0.461781    24A     -0.416259

  @DF-RHF Final Energy:  -321.99412996516264

   => Energetics <=

    Nuclear Repulsion Energy =            247.7129883340953143
    One-Electron Energy =                -930.8860059266293092
    Two-Electron Energy =                 361.1788876273714095
    Total Energy =                       -321.9941299651626423
  Basis Set: (AUG-CC-PVTZ AUX)
    Blend: AUG-CC-PVTZ-RI
    Molecular point group: c1

    Geometry (in Angstrom), charge = 0, multiplicity = 1:

       Center              X                  Y                   Z               Mass
    ------------   -----------------  -----------------  -----------------  -----------------
         O            1.427301554695    -1.014855855905    -0.507469864804    15.994914619570
         O            1.269242354695     1.041570444095     0.487633035196    15.994914619570
         N           -1.511449445305     1.169042144095    -0.015134864804    14.003074004430
         C           -0.758979945305    -0.051804355905    -0.352128064804    12.000000000000
         C           -1.342372445305    -1.239486855905     0.411500135196    12.000000000000
         C            0.727426554695     0.085095144095    -0.063735864804    12.000000000000
         H           -0.861392445305    -0.221308855905    -1.426449864804     1.007825032230
         H           -2.407295445305    -1.313250855905     0.188675135196     1.007825032230
         H           -0.843140445305    -2.171278855905     0.123692135196     1.007825032230
         H           -1.224558445305    -1.101493855905     1.493222135196     1.007825032230
         H           -1.091802445305     1.963393144095    -0.507066864804     1.007825032230
         H           -1.371569445305     1.372221144095     0.978232135196     1.007825032230
         H            2.363357554695    -0.833372855905    -0.273231864804     1.007825032230

  Basis Set: AUG-CC-PVTZ
    Blend: AUG-CC-PVTZ
  Basis Set: (AUG-CC-PVTZ AUX)
    Blend: AUG-CC-PVTZ-JKFIT
	 Reference Energy          =    -321.9941299651626423 [Eh]
	 Singles Energy            =      -0.0000000000000000 [Eh]
	 Same-Spin Energy          =      -0.3171179191976390 [Eh]
	 Opposite-Spin Energy      =      -1.0011875887082560 [Eh]
	 Correlation Energy        =      -1.3183055079058950 [Eh]
	 Total Energy              =    -323.3124354730685468 [Eh]

	 ================> DF-SCS-MP2 Energies <==================
	-----------------------------------------------------------
	 SCS Same-Spin Scale       =       0.3333333333333333 [-]
	 SCS Opposite-Spin Scale   =       1.2000000000000000 [-]
	 SCS Same-Spin Energy      =      -0.1057059730658797 [Eh]
	 SCS Opposite-Spin Energy  =      -1.2014251064499071 [Eh]
	 SCS Correlation Energy    =      -1.3071310795157867 [Eh]
	 SCS Total Energy          =    -323.3012610446784265 [Eh]
	-----------------------------------------------------------

  Dipole Moment: [D]
     X:     0.5839      Y:    -1.1612      Z:    -0.3183     Total:     1.3381

*** Psi4 exiting successfully. Buy a developer a beer!
