                               Psi4 1.3.2 release

  ==> Input File <==

--------------------------------------------------------------------------
#psi4
#
memory 32 gb

molecule  {
0 1
  O        1.4293010    -1.0173190    -0.5083850
  O        1.2616920     1.0439120     0.4876630
  N       -1.5094500     1.1665790    -0.0160500
  C       -0.7551136    -0.0431745    -0.3354229
  C       -1.3403730    -1.2419500     0.4105850
  C        0.7294260     0.0826320    -0.0646510
  H       -0.8593930    -0.2237720    -1.4273650
  H       -2.4052960    -1.3157140     0.1877600
  H       -0.8411410    -2.1737420     0.1227770
  H       -1.2225590    -1.1039570     1.4923070
  H       -1.0898030     1.9609300    -0.5079820
  H       -1.3643390     1.3625516     0.9780142
  H        2.3653570    -0.8358360    -0.2741470
units angstrom
no_reorient  #important for SAPT in psi4, default
symmetry c1  #important for SAPT in psi4, default
}

set PROPERTIES_ORIGIN ["COM"]
properties('MP2/aug-cc-pvtz', properties = ['dipole'])
--------------------------------------------------------------------------

    Molecular point group: c1
  Charge       = 0
  Multiplicity = 1
  Basis Set: AUG-CC-PVTZ
    Blend: AUG-CC-PVTZ
  Basis Set: (AUG-CC-PVTZ AUX)
    Blend: AUG-CC-PVTZ-JKFIT

    Orbital Energies [Eh]
    ---------------------

    Doubly Occupied:

       1A    -20.623202     2A    -20.561119     3A    -15.553623
       4A    -11.395125     5A    -11.286259     6A    -11.232988
       7A     -1.457958     8A     -1.359708     9A     -1.199890
      10A     -1.023303    11A     -0.908068    12A     -0.791073
      13A     -0.711394    14A     -0.702499    15A     -0.673573
      16A     -0.626963    17A     -0.608707    18A     -0.595041
      19A     -0.551734    20A     -0.530708    21A     -0.510235
      22A     -0.486601    23A     -0.461962    24A     -0.417383

  @DF-RHF Final Energy:  -321.99389939223721

   => Energetics <=

    Nuclear Repulsion Energy =            247.9469838080104580
    One-Electron Energy =                -931.3435392372480237
    Two-Electron Energy =                 361.4026560370003267
    Total Energy =                       -321.9938993922372106
  Basis Set: (AUG-CC-PVTZ AUX)
    Blend: AUG-CC-PVTZ-RI
    Molecular point group: c1

    Geometry (in Angstrom), charge = 0, multiplicity = 1:

       Center              X                  Y                   Z               Mass
    ------------   -----------------  -----------------  -----------------  -----------------
         O            1.428706122507    -1.017132209197    -0.510022014993    15.994914619570
         O            1.261097122507     1.044098790803     0.486025985007    15.994914619570
         N           -1.510044877493     1.166765790803    -0.017687014993    14.003074004430
         C           -0.755708477493    -0.042987709197    -0.337059914993    12.000000000000
         C           -1.340967877493    -1.241763209197     0.408947985007    12.000000000000
         C            0.728831122507     0.082818790803    -0.066288014993    12.000000000000
         H           -0.859987877493    -0.223585209197    -1.429002014993     1.007825032230
         H           -2.405890877493    -1.315527209197     0.186122985007     1.007825032230
         H           -0.841735877493    -2.173555209197     0.121139985007     1.007825032230
         H           -1.223153877493    -1.103770209197     1.490669985007     1.007825032230
         H           -1.090397877493     1.961116790803    -0.509619014993     1.007825032230
         H           -1.364933877493     1.362738390803     0.976377185007     1.007825032230
         H            2.364762122507    -0.835649209197    -0.275784014993     1.007825032230

  Basis Set: AUG-CC-PVTZ
    Blend: AUG-CC-PVTZ
  Basis Set: (AUG-CC-PVTZ AUX)
    Blend: AUG-CC-PVTZ-JKFIT
	 Reference Energy          =    -321.9938993922372106 [Eh]
	 Singles Energy            =      -0.0000000000000000 [Eh]
	 Same-Spin Energy          =      -0.3172479677292030 [Eh]
	 Opposite-Spin Energy      =      -1.0012861070802730 [Eh]
	 Correlation Energy        =      -1.3185340748094760 [Eh]
	 Total Energy              =    -323.3124334670466737 [Eh]

	 ================> DF-SCS-MP2 Energies <==================
	-----------------------------------------------------------
	 SCS Same-Spin Scale       =       0.3333333333333333 [-]
	 SCS Opposite-Spin Scale   =       1.2000000000000000 [-]
	 SCS Same-Spin Energy      =      -0.1057493225764010 [Eh]
	 SCS Opposite-Spin Energy  =      -1.2015433284963275 [Eh]
	 SCS Correlation Energy    =      -1.3072926510727285 [Eh]
	 SCS Total Energy          =    -323.3011920433099249 [Eh]
	-----------------------------------------------------------

  Dipole Moment: [D]
     X:     0.5998      Y:    -1.1516      Z:    -0.3097     Total:     1.3348

*** Psi4 exiting successfully. Buy a developer a beer!
