                               Psi4 1.3.2 release

  ==> Input File <==

--------------------------------------------------------------------------
#psi4
#
memory 32 gb

molecule  {
0 1
  O        1.4293010    -1.0173190    -0.5083850
  O        1.2616920     1.0439120     0.4876630
  N       -1.5094500     1.1665790    -0.0160500
  C       -0.7590880    -0.0423940    -0.3475120
  C       -1.3403730    -1.2419500     0.4105850
  C        0.7294260     0.0826320    -0.0646510
  H       -0.8411485    -0.1907811    -1.2309503
  H       -2.4052960    -1.3157140     0.1877600
  H       -0.8411410    -2.1737420     0.1227770
  H       -1.2225590    -1.1039570     1.4923070
  H       -1.0898030     1.9609300    -0.5079820
  H       -1.3695700     1.3697580     0.9773170
  H        2.3653570    -0.8358360    -0.2741470
units angstrom
no_reorient  #important for SAPT in psi4, default
symmetry c1  #important for SAPT in psi4, default
}

set PROPERTIES_ORIGIN ["COM"]
properties('MP2/aug-cc-pvtz', properties = ['dipole'])
--------------------------------------------------------------------------

    Molecular point group: c1
  Charge       = 0
  Multiplicity = 1
  Basis Set: AUG-CC-PVTZ
    Blend: AUG-CC-PVTZ
  Basis Set: (AUG-CC-PVTZ AUX)
    Blend: AUG-CC-PVTZ-JKFIT

    Orbital Energies [Eh]
    ---------------------

    Doubly Occupied:

       1A    -20.623680     2A    -20.560593     3A    -15.551819
       4A    -11.393949     5A    -11.261947     6A    -11.232070
       7A     -1.458005     8A     -1.359323     9A     -1.203603
      10A     -1.030003    11A     -0.912990    12A     -0.814523
      13A     -0.718016    14A     -0.707606    15A     -0.672142
      16A     -0.626710    17A     -0.609874    18A     -0.601472
      19A     -0.550542    20A     -0.533479    21A     -0.523840
      22A     -0.487149    23A     -0.461608    24A     -0.416472

  @DF-RHF Final Energy:  -321.96268739139794

   => Energetics <=

    Nuclear Repulsion Energy =            248.9591353030640164
    One-Electron Energy =                -933.2208157716518144
    Two-Electron Energy =                 362.2989930771898344
    Total Energy =                       -321.9626873913979352
  Basis Set: (AUG-CC-PVTZ AUX)
    Blend: AUG-CC-PVTZ-RI
    Molecular point group: c1

    Geometry (in Angstrom), charge = 0, multiplicity = 1:

       Center              X                  Y                   Z               Mass
    ------------   -----------------  -----------------  -----------------  -----------------
         O            1.429094425375    -1.017692334357    -0.510607990918    15.994914619570
         O            1.261485425375     1.043538665643     0.485440009082    15.994914619570
         N           -1.509656574625     1.166205665643    -0.018272990918    14.003074004430
         C           -0.759294574625    -0.042767334357    -0.349734990918    12.000000000000
         C           -1.340579574625    -1.242323334357     0.408362009082    12.000000000000
         C            0.729219425375     0.082258665643    -0.066873990918    12.000000000000
         H           -0.841355074625    -0.191154434357    -1.233173290918     1.007825032230
         H           -2.405502574625    -1.316087334357     0.185537009082     1.007825032230
         H           -0.841347574625    -2.174115334357     0.120554009082     1.007825032230
         H           -1.222765574625    -1.104330334357     1.490084009082     1.007825032230
         H           -1.090009574625     1.960556665643    -0.510204990918     1.007825032230
         H           -1.369776574625     1.369384665643     0.975094009082     1.007825032230
         H            2.365150425375    -0.836209334357    -0.276369990918     1.007825032230

  Basis Set: AUG-CC-PVTZ
    Blend: AUG-CC-PVTZ
  Basis Set: (AUG-CC-PVTZ AUX)
    Blend: AUG-CC-PVTZ-JKFIT
	 Reference Energy          =    -321.9626873913979352 [Eh]
	 Singles Energy            =      -0.0000000000000000 [Eh]
	 Same-Spin Energy          =      -0.3170699263811019 [Eh]
	 Opposite-Spin Energy      =      -1.0005339306660623 [Eh]
	 Correlation Energy        =      -1.3176038570471642 [Eh]
	 Total Energy              =    -323.2802912484451099 [Eh]

	 ================> DF-SCS-MP2 Energies <==================
	-----------------------------------------------------------
	 SCS Same-Spin Scale       =       0.3333333333333333 [-]
	 SCS Opposite-Spin Scale   =       1.2000000000000000 [-]
	 SCS Same-Spin Energy      =      -0.1056899754603673 [Eh]
	 SCS Opposite-Spin Energy  =      -1.2006407167992748 [Eh]
	 SCS Correlation Energy    =      -1.3063306922596420 [Eh]
	 SCS Total Energy          =    -323.2690180836575564 [Eh]
	-----------------------------------------------------------

  Dipole Moment: [D]
     X:     0.6266      Y:    -1.1604      Z:    -0.3473     Total:     1.3637

*** Psi4 exiting successfully. Buy a developer a beer!
