                               Psi4 1.3.2 release

  ==> Input File <==

--------------------------------------------------------------------------
#psi4
#
memory 32 gb

molecule  {
0 1
  O        1.4293010    -1.0173190    -0.5083850
  O        1.2616920     1.0439120     0.4876630
  N       -1.5094500     1.1665790    -0.0160500
  C       -0.7590880    -0.0423940    -0.3475120
  C       -1.3403730    -1.2419500     0.4105850
  C        0.7294260     0.0826320    -0.0646510
  H       -0.8502708    -0.2072766    -1.3291576
  H       -2.4052960    -1.3157140     0.1877600
  H       -0.8411410    -2.1737420     0.1227770
  H       -1.2225590    -1.1039570     1.4923070
  H       -1.0898030     1.9609300    -0.5079820
  H       -1.3695700     1.3697580     0.9773170
  H        2.3653570    -0.8358360    -0.2741470
units angstrom
no_reorient  #important for SAPT in psi4, default
symmetry c1  #important for SAPT in psi4, default
}

set PROPERTIES_ORIGIN ["COM"]
properties('MP2/aug-cc-pvtz', properties = ['dipole'])
--------------------------------------------------------------------------

    Molecular point group: c1
  Charge       = 0
  Multiplicity = 1
  Basis Set: AUG-CC-PVTZ
    Blend: AUG-CC-PVTZ
  Basis Set: (AUG-CC-PVTZ AUX)
    Blend: AUG-CC-PVTZ-JKFIT

    Orbital Energies [Eh]
    ---------------------

    Doubly Occupied:

       1A    -20.623308     2A    -20.560698     3A    -15.552420
       4A    -11.394318     5A    -11.274058     6A    -11.232448
       7A     -1.457767     8A     -1.359306     9A     -1.200786
      10A     -1.025265    11A     -0.909385    12A     -0.802012
      13A     -0.713710    14A     -0.705938    15A     -0.672293
      16A     -0.626467    17A     -0.609126    18A     -0.598953
      19A     -0.550695    20A     -0.530450    21A     -0.519933
      22A     -0.486925    23A     -0.461587    24A     -0.416352

  @DF-RHF Final Energy:  -321.98908753468868

   => Energetics <=

    Nuclear Repulsion Energy =            248.3511044076925600
    One-Electron Energy =                -932.1119826653678047
    Two-Electron Energy =                 361.7717907229865659
    Total Energy =                       -321.9890875346886787
  Basis Set: (AUG-CC-PVTZ AUX)
    Blend: AUG-CC-PVTZ-RI
    Molecular point group: c1

    Geometry (in Angstrom), charge = 0, multiplicity = 1:

       Center              X                  Y                   Z               Mass
    ------------   -----------------  -----------------  -----------------  -----------------
         O            1.429197669867    -1.017505641362    -0.509496498996    15.994914619570
         O            1.261588669867     1.043725358638     0.486551501004    15.994914619570
         N           -1.509553330133     1.166392358638    -0.017161498996    14.003074004430
         C           -0.759191330133    -0.042580641362    -0.348623498996    12.000000000000
         C           -1.340476330133    -1.242136641362     0.409473501004    12.000000000000
         C            0.729322669867     0.082445358638    -0.065762498996    12.000000000000
         H           -0.850374130133    -0.207463241362    -1.330269098996     1.007825032230
         H           -2.405399330133    -1.315900641362     0.186648501004     1.007825032230
         H           -0.841244330133    -2.173928641362     0.121665501004     1.007825032230
         H           -1.222662330133    -1.104143641362     1.491195501004     1.007825032230
         H           -1.089906330133     1.960743358638    -0.509093498996     1.007825032230
         H           -1.369673330133     1.369571358638     0.976205501004     1.007825032230
         H            2.365253669867    -0.836022641362    -0.275258498996     1.007825032230

  Basis Set: AUG-CC-PVTZ
    Blend: AUG-CC-PVTZ
  Basis Set: (AUG-CC-PVTZ AUX)
    Blend: AUG-CC-PVTZ-JKFIT
	 Reference Energy          =    -321.9890875346886787 [Eh]
	 Singles Energy            =      -0.0000000000000000 [Eh]
	 Same-Spin Energy          =      -0.3170785774262200 [Eh]
	 Opposite-Spin Energy      =      -1.0006450488272371 [Eh]
	 Correlation Energy        =      -1.3177236262534571 [Eh]
	 Total Energy              =    -323.3068111609421180 [Eh]

	 ================> DF-SCS-MP2 Energies <==================
	-----------------------------------------------------------
	 SCS Same-Spin Scale       =       0.3333333333333333 [-]
	 SCS Opposite-Spin Scale   =       1.2000000000000000 [-]
	 SCS Same-Spin Energy      =      -0.1056928591420733 [Eh]
	 SCS Opposite-Spin Energy  =      -1.2007740585926845 [Eh]
	 SCS Correlation Energy    =      -1.3064669177347579 [Eh]
	 SCS Total Energy          =    -323.2955544524234597 [Eh]
	-----------------------------------------------------------

  Dipole Moment: [D]
     X:     0.6103      Y:    -1.1542      Z:    -0.3401     Total:     1.3492

*** Psi4 exiting successfully. Buy a developer a beer!
