                               Psi4 1.3.2 release

  ==> Input File <==

--------------------------------------------------------------------------
#psi4
#
memory 32 gb

molecule  {
0 1
  O        1.4293010    -1.0173190    -0.5083850
  O        1.2616920     1.0439120     0.4876630
  N       -1.5094500     1.1665790    -0.0160500
  C       -0.7590880    -0.0423940    -0.3475120
  C       -1.3160941    -1.2470807     0.4206105
  C        0.7279913     0.0613110    -0.0489218
  H       -0.8593930    -0.2237720    -1.4273650
  H       -2.4052960    -1.3157140     0.1877600
  H       -0.8411410    -2.1737420     0.1227770
  H       -1.2225590    -1.1039570     1.4923070
  H       -1.0898030     1.9609300    -0.5079820
  H       -1.3695700     1.3697580     0.9773170
  H        2.3653570    -0.8358360    -0.2741470
units angstrom
no_reorient  #important for SAPT in psi4, default
symmetry c1  #important for SAPT in psi4, default
}

set PROPERTIES_ORIGIN ["COM"]
properties('MP2/aug-cc-pvtz', properties = ['dipole'])
--------------------------------------------------------------------------

    Molecular point group: c1
  Charge       = 0
  Multiplicity = 1
  Basis Set: AUG-CC-PVTZ
    Blend: AUG-CC-PVTZ
  Basis Set: (AUG-CC-PVTZ AUX)
    Blend: AUG-CC-PVTZ-JKFIT

    Orbital Energies [Eh]
    ---------------------

    Doubly Occupied:

       1A    -20.626018     2A    -20.558209     3A    -15.553714
       4A    -11.395053     5A    -11.286384     6A    -11.232995
       7A     -1.460035     8A     -1.354877     9A     -1.198859
      10A     -1.023977    11A     -0.906659    12A     -0.795753
      13A     -0.711514    14A     -0.702982    15A     -0.672299
      16A     -0.627817    17A     -0.607892    18A     -0.597915
      19A     -0.542352    20A     -0.534087    21A     -0.515418
      22A     -0.483138    23A     -0.458691    24A     -0.416354

  @DF-RHF Final Energy:  -321.99224131608946

   => Energetics <=

    Nuclear Repulsion Energy =            247.9205722495972566
    One-Electron Energy =                -931.2996420883445126
    Two-Electron Energy =                 361.3868285226577655
    Total Energy =                       -321.9922413160894621
  Basis Set: (AUG-CC-PVTZ AUX)
    Blend: AUG-CC-PVTZ-RI
    Molecular point group: c1

    Geometry (in Angstrom), charge = 0, multiplicity = 1:

       Center              X                  Y                   Z               Mass
    ------------   -----------------  -----------------  -----------------  -----------------
         O            1.426222445548    -1.013754337759    -0.511855690471    15.994914619570
         O            1.258613445548     1.047476662241     0.484192309529    15.994914619570
         N           -1.512528554452     1.170143662241    -0.019520690471    14.003074004430
         C           -0.762166554452    -0.038829337759    -0.350982690471    12.000000000000
         C           -1.319172654452    -1.243516037759     0.417139809529    12.000000000000
         C            0.724912745548     0.064875662241    -0.052392490471    12.000000000000
         H           -0.862471554452    -0.220207337759    -1.430835690471     1.007825032230
         H           -2.408374554452    -1.312149337759     0.184289309529     1.007825032230
         H           -0.844219554452    -2.170177337759     0.119306309529     1.007825032230
         H           -1.225637554452    -1.100392337759     1.488836309529     1.007825032230
         H           -1.092881554452     1.964494662241    -0.511452690471     1.007825032230
         H           -1.372648554452     1.373322662241     0.973846309529     1.007825032230
         H            2.362278445548    -0.832271337759    -0.277617690471     1.007825032230

  Basis Set: AUG-CC-PVTZ
    Blend: AUG-CC-PVTZ
  Basis Set: (AUG-CC-PVTZ AUX)
    Blend: AUG-CC-PVTZ-JKFIT
	 Reference Energy          =    -321.9922413160894621 [Eh]
	 Singles Energy            =      -0.0000000000000000 [Eh]
	 Same-Spin Energy          =      -0.3173972639988805 [Eh]
	 Opposite-Spin Energy      =      -1.0014890804718346 [Eh]
	 Correlation Energy        =      -1.3188863444707151 [Eh]
	 Total Energy              =    -323.3111276605602029 [Eh]

	 ================> DF-SCS-MP2 Energies <==================
	-----------------------------------------------------------
	 SCS Same-Spin Scale       =       0.3333333333333333 [-]
	 SCS Opposite-Spin Scale   =       1.2000000000000000 [-]
	 SCS Same-Spin Energy      =      -0.1057990879996268 [Eh]
	 SCS Opposite-Spin Energy  =      -1.2017868965662015 [Eh]
	 SCS Correlation Energy    =      -1.3075859845658284 [Eh]
	 SCS Total Energy          =    -323.2998273006552949 [Eh]
	-----------------------------------------------------------

  Dipole Moment: [D]
     X:     0.6127      Y:    -1.2313      Z:    -0.3366     Total:     1.4159

*** Psi4 exiting successfully. Buy a developer a beer!
