                               Psi4 1.3.2 release

  ==> Input File <==

--------------------------------------------------------------------------
#psi4
#
memory 32 gb

molecule  {
0 1
  N        2.3399850     0.0000400    -0.0882940
  C        0.9354480     0.0000030    -0.0013470
  C        0.2222290     1.2072330    -0.0096550
  C       -1.1718320     1.2039030     0.0053930
  C       -1.8790760     0.0000220     0.0076380
  C       -1.1564974    -1.2293981     0.2536478
  C        0.2221720    -1.2072360    -0.0096460
  H        2.7627720     0.8296730     0.3164440
  H        2.7627430    -0.8301660     0.3152910
  H        0.7657540     2.1507970    -0.0162340
  H       -1.7067870     2.1509120     0.0059600
  H       -2.9656380    -0.0000200     0.0197930
  H       -1.7069100    -2.1508590     0.0059040
  H        0.7657150    -2.1507810    -0.0159610
units angstrom
no_reorient  #important for SAPT in psi4, default
symmetry c1  #important for SAPT in psi4, default
}

set PROPERTIES_ORIGIN ["COM"]
properties('MP2/aug-cc-pvtz', properties = ['dipole'])
--------------------------------------------------------------------------

    Molecular point group: c1
  Charge       = 0
  Multiplicity = 1
  Basis Set: AUG-CC-PVTZ
    Blend: AUG-CC-PVTZ
  Basis Set: (AUG-CC-PVTZ AUX)
    Blend: AUG-CC-PVTZ-JKFIT

    Orbital Energies [Eh]
    ---------------------

    Doubly Occupied:

       1A    -15.567183     2A    -11.278884     3A    -11.243293
       4A    -11.236546     5A    -11.231601     6A    -11.229839
       7A    -11.229059     8A     -1.222178     9A     -1.121519
      10A     -1.011372    11A     -0.981520    12A     -0.829241
      13A     -0.809706    14A     -0.699803    15A     -0.678403
      16A     -0.654725    17A     -0.595217    18A     -0.585641
      19A     -0.579082    20A     -0.532448    21A     -0.507177
      22A     -0.483993    23A     -0.445844    24A     -0.338461
      25A     -0.294550

  @DF-RHF Final Energy:  -285.81265687599068

   => Energetics <=

    Nuclear Repulsion Energy =            270.0671758565854930
    One-Electron Energy =                -920.9850964985133714
    Two-Electron Energy =                 365.1052637659371385
    Total Energy =                       -285.8126568759906831
  Basis Set: (AUG-CC-PVTZ AUX)
    Blend: AUG-CC-PVTZ-RI
    Molecular point group: c1

    Geometry (in Angstrom), charge = 0, multiplicity = 1:

       Center              X                  Y                   Z               Mass
    ------------   -----------------  -----------------  -----------------  -----------------
         N            2.345151055894     0.003323597825    -0.113569872376    14.003074004430
         C            0.940614055894     0.003286597825    -0.026622872376    12.000000000000
         C            0.227395055894     1.210516597825    -0.034930872376    12.000000000000
         C           -1.166665944106     1.207186597825    -0.019882872376    12.000000000000
         C           -1.873909944106     0.003305597825    -0.017637872376    12.000000000000
         C           -1.151331344106    -1.226114502175     0.228371927624    12.000000000000
         C            0.227338055894    -1.203952402175    -0.034921872376    12.000000000000
         H            2.767938055894     0.832956597825     0.291168127624     1.007825032230
         H            2.767909055894    -0.826882402175     0.290015127624     1.007825032230
         H            0.770920055894     2.154080597825    -0.041509872376     1.007825032230
         H           -1.701620944106     2.154195597825    -0.019315872376     1.007825032230
         H           -2.960471944106     0.003263597825    -0.005482872376     1.007825032230
         H           -1.701743944106    -2.147575402175    -0.019371872376     1.007825032230
         H            0.770881055894    -2.147497402175    -0.041236872376     1.007825032230

  Basis Set: AUG-CC-PVTZ
    Blend: AUG-CC-PVTZ
  Basis Set: (AUG-CC-PVTZ AUX)
    Blend: AUG-CC-PVTZ-JKFIT
	 Reference Energy          =    -285.8126568759906831 [Eh]
	 Singles Energy            =      -0.0000000000000000 [Eh]
	 Same-Spin Energy          =      -0.3165897928273135 [Eh]
	 Opposite-Spin Energy      =      -0.9979959116470740 [Eh]
	 Correlation Energy        =      -1.3145857044743874 [Eh]
	 Total Energy              =    -287.1272425804650652 [Eh]

	 ================> DF-SCS-MP2 Energies <==================
	-----------------------------------------------------------
	 SCS Same-Spin Scale       =       0.3333333333333333 [-]
	 SCS Opposite-Spin Scale   =       1.2000000000000000 [-]
	 SCS Same-Spin Energy      =      -0.1055299309424378 [Eh]
	 SCS Opposite-Spin Energy  =      -1.1975950939764888 [Eh]
	 SCS Correlation Energy    =      -1.3031250249189266 [Eh]
	 SCS Total Energy          =    -287.1157819009096102 [Eh]
	-----------------------------------------------------------

  Dipole Moment: [D]
     X:     1.0315      Y:     0.1213      Z:     0.8943     Total:     1.3705

*** Psi4 exiting successfully. Buy a developer a beer!
