                               Psi4 1.3.2 release

  ==> Input File <==

--------------------------------------------------------------------------
#psi4
#
memory 32 gb

molecule  {
0 1
  N        2.3399850     0.0000400    -0.0882940
  C        0.9354480     0.0000030    -0.0013470
  C        0.2222290     1.2072330    -0.0096550
  C       -1.1718320     1.2039030     0.0053930
  C       -1.8790760     0.0000220     0.0076380
  C       -1.1534240    -1.2344984     0.3032919
  C        0.2221720    -1.2072360    -0.0096460
  H        2.7627720     0.8296730     0.3164440
  H        2.7627430    -0.8301660     0.3152910
  H        0.7657540     2.1507970    -0.0162340
  H       -1.7067870     2.1509120     0.0059600
  H       -2.9656380    -0.0000200     0.0197930
  H       -1.7069100    -2.1508590     0.0059040
  H        0.7657150    -2.1507810    -0.0159610
units angstrom
no_reorient  #important for SAPT in psi4, default
symmetry c1  #important for SAPT in psi4, default
}

set PROPERTIES_ORIGIN ["COM"]
properties('MP2/aug-cc-pvtz', properties = ['dipole'])
--------------------------------------------------------------------------

    Molecular point group: c1
  Charge       = 0
  Multiplicity = 1
  Basis Set: AUG-CC-PVTZ
    Blend: AUG-CC-PVTZ
  Basis Set: (AUG-CC-PVTZ AUX)
    Blend: AUG-CC-PVTZ-JKFIT

    Orbital Energies [Eh]
    ---------------------

    Doubly Occupied:

       1A    -15.567199     2A    -11.278889     3A    -11.245559
       4A    -11.236475     5A    -11.233893     6A    -11.232442
       7A    -11.230523     8A     -1.222310     9A     -1.120359
      10A     -1.010860    11A     -0.980691    12A     -0.828706
      13A     -0.809031    14A     -0.698881    15A     -0.677624
      16A     -0.655058    17A     -0.595129    18A     -0.583753
      19A     -0.577334    20A     -0.531913    21A     -0.506713
      22A     -0.482051    23A     -0.444537    24A     -0.338828
      25A     -0.293795

  @DF-RHF Final Energy:  -285.80332141872566

   => Energetics <=

    Nuclear Repulsion Energy =            269.7483473121047268
    One-Electron Energy =                -920.3382329560961352
    Two-Electron Energy =                 364.7865642252658063
    Total Energy =                       -285.8033214187256590
  Basis Set: (AUG-CC-PVTZ AUX)
    Blend: AUG-CC-PVTZ-RI
    Molecular point group: c1

    Geometry (in Angstrom), charge = 0, multiplicity = 1:

       Center              X                  Y                   Z               Mass
    ------------   -----------------  -----------------  -----------------  -----------------
         N            2.344754734677     0.003981291942    -0.119971580614    14.003074004430
         C            0.940217734677     0.003944291942    -0.033024580614    12.000000000000
         C            0.226998734677     1.211174291942    -0.041332580614    12.000000000000
         C           -1.167062265323     1.207844291942    -0.026284580614    12.000000000000
         C           -1.874306265323     0.003963291942    -0.024039580614    12.000000000000
         C           -1.148654265323    -1.230557108058     0.271614319386    12.000000000000
         C            0.226941734677    -1.203294708058    -0.041323580614    12.000000000000
         H            2.767541734677     0.833614291942     0.284766419386     1.007825032230
         H            2.767512734677    -0.826224708058     0.283613419386     1.007825032230
         H            0.770523734677     2.154738291942    -0.047911580614     1.007825032230
         H           -1.702017265323     2.154853291942    -0.025717580614     1.007825032230
         H           -2.960868265323     0.003921291942    -0.011884580614     1.007825032230
         H           -1.702140265323    -2.146917708058    -0.025773580614     1.007825032230
         H            0.770484734677    -2.146839708058    -0.047638580614     1.007825032230

  Basis Set: AUG-CC-PVTZ
    Blend: AUG-CC-PVTZ
  Basis Set: (AUG-CC-PVTZ AUX)
    Blend: AUG-CC-PVTZ-JKFIT
	 Reference Energy          =    -285.8033214187256590 [Eh]
	 Singles Energy            =      -0.0000000000000000 [Eh]
	 Same-Spin Energy          =      -0.3170588059347038 [Eh]
	 Opposite-Spin Energy      =      -0.9994684368738909 [Eh]
	 Correlation Energy        =      -1.3165272428085948 [Eh]
	 Total Energy              =    -287.1198486615342631 [Eh]

	 ================> DF-SCS-MP2 Energies <==================
	-----------------------------------------------------------
	 SCS Same-Spin Scale       =       0.3333333333333333 [-]
	 SCS Opposite-Spin Scale   =       1.2000000000000000 [-]
	 SCS Same-Spin Energy      =      -0.1056862686449013 [Eh]
	 SCS Opposite-Spin Energy  =      -1.1993621242486689 [Eh]
	 SCS Correlation Energy    =      -1.3050483928935703 [Eh]
	 SCS Total Energy          =    -287.1083698116192409 [Eh]
	-----------------------------------------------------------

  Dipole Moment: [D]
     X:     1.0639      Y:     0.1765      Z:     0.8534     Total:     1.3753

*** Psi4 exiting successfully. Buy a developer a beer!
