                               Psi4 1.3.2 release

  ==> Input File <==

--------------------------------------------------------------------------
#psi4
#
memory 32 gb

molecule  {
0 1
  N        2.3399850     0.0000400    -0.0882940
  C        0.9354480     0.0000030    -0.0013470
  C        0.2222290     1.2072330    -0.0096550
  C       -1.1718320     1.2039030     0.0053930
  C       -1.8790760     0.0000220     0.0076380
  C       -1.1657173    -1.2140975     0.1047153
  C        0.2221720    -1.2072360    -0.0096460
  H        2.7627720     0.8296730     0.3164440
  H        2.7627430    -0.8301660     0.3152910
  H        0.7657540     2.1507970    -0.0162340
  H       -1.7067870     2.1509120     0.0059600
  H       -2.9656380    -0.0000200     0.0197930
  H       -1.7069100    -2.1508590     0.0059040
  H        0.7657150    -2.1507810    -0.0159610
units angstrom
no_reorient  #important for SAPT in psi4, default
symmetry c1  #important for SAPT in psi4, default
}

set PROPERTIES_ORIGIN ["COM"]
properties('MP2/aug-cc-pvtz', properties = ['dipole'])
--------------------------------------------------------------------------

    Molecular point group: c1
  Charge       = 0
  Multiplicity = 1
  Basis Set: AUG-CC-PVTZ
    Blend: AUG-CC-PVTZ
  Basis Set: (AUG-CC-PVTZ AUX)
    Blend: AUG-CC-PVTZ-JKFIT

    Orbital Energies [Eh]
    ---------------------

    Doubly Occupied:

       1A    -15.567231     2A    -11.278820     3A    -11.238427
       4A    -11.236940     5A    -11.227053     6A    -11.226461
       7A    -11.223914     8A     -1.221977     9A     -1.124355
      10A     -1.011841    11A     -0.983815    12A     -0.830441
      13A     -0.810960    14A     -0.701999    15A     -0.680072
      16A     -0.654014    17A     -0.596409    18A     -0.590199
      19A     -0.581017    20A     -0.533688    21A     -0.506933
      22A     -0.487944    23A     -0.448753    24A     -0.337418
      25A     -0.296718

  @DF-RHF Final Energy:  -285.83057016553516

   => Energetics <=

    Nuclear Repulsion Energy =            270.7463836892277413
    One-Electron Energy =                -922.3591112946070325
    Two-Electron Energy =                 365.7821574398441271
    Total Energy =                       -285.8305701655351641
  Basis Set: (AUG-CC-PVTZ AUX)
    Blend: AUG-CC-PVTZ-RI
    Molecular point group: c1

    Geometry (in Angstrom), charge = 0, multiplicity = 1:

       Center              X                  Y                   Z               Mass
    ------------   -----------------  -----------------  -----------------  -----------------
         N            2.346339980857     0.001350554159    -0.094364721872    14.003074004430
         C            0.941802980857     0.001313554159    -0.007417721872    12.000000000000
         C            0.228583980857     1.208543554159    -0.015725721872    12.000000000000
         C           -1.165477019143     1.205213554159    -0.000677721872    12.000000000000
         C           -1.872721019143     0.001332554159     0.001567278128    12.000000000000
         C           -1.159362319143    -1.212786945841     0.098644578128    12.000000000000
         C            0.228526980857    -1.205925445841    -0.015716721872    12.000000000000
         H            2.769126980857     0.830983554159     0.310373278128     1.007825032230
         H            2.769097980857    -0.828855445841     0.309220278128     1.007825032230
         H            0.772108980857     2.152107554159    -0.022304721872     1.007825032230
         H           -1.700432019143     2.152222554159    -0.000110721872     1.007825032230
         H           -2.959283019143     0.001290554159     0.013722278128     1.007825032230
         H           -1.700555019143    -2.149548445841    -0.000166721872     1.007825032230
         H            0.772069980857    -2.149470445841    -0.022031721872     1.007825032230

  Basis Set: AUG-CC-PVTZ
    Blend: AUG-CC-PVTZ
  Basis Set: (AUG-CC-PVTZ AUX)
    Blend: AUG-CC-PVTZ-JKFIT
	 Reference Energy          =    -285.8305701655351641 [Eh]
	 Singles Energy            =      -0.0000000000000000 [Eh]
	 Same-Spin Energy          =      -0.3156554945082765 [Eh]
	 Opposite-Spin Energy      =      -0.9950148088438875 [Eh]
	 Correlation Energy        =      -1.3106703033521638 [Eh]
	 Total Energy              =    -287.1412404688873039 [Eh]

	 ================> DF-SCS-MP2 Energies <==================
	-----------------------------------------------------------
	 SCS Same-Spin Scale       =       0.3333333333333333 [-]
	 SCS Opposite-Spin Scale   =       1.2000000000000000 [-]
	 SCS Same-Spin Energy      =      -0.1052184981694255 [Eh]
	 SCS Opposite-Spin Energy  =      -1.1940177706126649 [Eh]
	 SCS Correlation Energy    =      -1.2992362687820904 [Eh]
	 SCS Total Energy          =    -287.1298064343172314 [Eh]
	-----------------------------------------------------------

  Dipole Moment: [D]
     X:     0.9700      Y:     0.0166      Z:     1.0074     Total:     1.3986

*** Psi4 exiting successfully. Buy a developer a beer!
