                               Psi4 1.3.2 release

  ==> Input File <==

--------------------------------------------------------------------------
#psi4
#
memory 32 gb

molecule  {
0 1
  N        2.3399850     0.0000400    -0.0882940
  C        0.9354480     0.0000030    -0.0013470
  C        0.2222290     1.2072330    -0.0096550
  C       -1.1718320     1.2039030     0.0053930
  C       -1.8790760     0.0000220     0.0076380
  C       -1.1595707    -1.2242979     0.2040036
  C        0.2221720    -1.2072360    -0.0096460
  H        2.7627720     0.8296730     0.3164440
  H        2.7627430    -0.8301660     0.3152910
  H        0.7657540     2.1507970    -0.0162340
  H       -1.7067870     2.1509120     0.0059600
  H       -2.9656380    -0.0000200     0.0197930
  H       -1.7069100    -2.1508590     0.0059040
  H        0.7657150    -2.1507810    -0.0159610
units angstrom
no_reorient  #important for SAPT in psi4, default
symmetry c1  #important for SAPT in psi4, default
}

set PROPERTIES_ORIGIN ["COM"]
properties('MP2/aug-cc-pvtz', properties = ['dipole'])
--------------------------------------------------------------------------

    Molecular point group: c1
  Charge       = 0
  Multiplicity = 1
  Basis Set: AUG-CC-PVTZ
    Blend: AUG-CC-PVTZ
  Basis Set: (AUG-CC-PVTZ AUX)
    Blend: AUG-CC-PVTZ-JKFIT

    Orbital Energies [Eh]
    ---------------------

    Doubly Occupied:

       1A    -15.567186     2A    -11.278877     3A    -11.241319
       4A    -11.236665     5A    -11.229681     6A    -11.227910
       7A    -11.227507     8A     -1.222083     9A     -1.122589
      10A     -1.011704    11A     -0.982322    12A     -0.829708
      13A     -0.810277    14A     -0.700682    15A     -0.679082
      16A     -0.654439    17A     -0.595485    18A     -0.587474
      19A     -0.580189    20A     -0.532936    21A     -0.507322
      22A     -0.485609    23A     -0.446981    24A     -0.338115
      25A     -0.295303

  @DF-RHF Final Energy:  -285.82030492045004

   => Energetics <=

    Nuclear Repulsion Energy =            270.3413123199291022
    One-Electron Energy =                -921.5403481776975241
    Two-Electron Energy =                 365.3787309373183803
    Total Energy =                       -285.8203049204500417
  Basis Set: (AUG-CC-PVTZ AUX)
    Blend: AUG-CC-PVTZ-RI
    Molecular point group: c1

    Geometry (in Angstrom), charge = 0, multiplicity = 1:

       Center              X                  Y                   Z               Mass
    ------------   -----------------  -----------------  -----------------  -----------------
         N            2.345547364215     0.002665916603    -0.107168151243    14.003074004430
         C            0.941010364215     0.002628916603    -0.020221151243    12.000000000000
         C            0.227791364215     1.209858916603    -0.028529151243    12.000000000000
         C           -1.166269635785     1.206528916603    -0.013481151243    12.000000000000
         C           -1.873513635785     0.002647916603    -0.011236151243    12.000000000000
         C           -1.154008335785    -1.221671983397     0.185129448757    12.000000000000
         C            0.227734364215    -1.204610083397    -0.028520151243    12.000000000000
         H            2.768334364215     0.832298916603     0.297569848757     1.007825032230
         H            2.768305364215    -0.827540083397     0.296416848757     1.007825032230
         H            0.771316364215     2.153422916603    -0.035108151243     1.007825032230
         H           -1.701224635785     2.153537916603    -0.012914151243     1.007825032230
         H           -2.960075635785     0.002605916603     0.000918848757     1.007825032230
         H           -1.701347635785    -2.148233083397    -0.012970151243     1.007825032230
         H            0.771277364215    -2.148155083397    -0.034835151243     1.007825032230

  Basis Set: AUG-CC-PVTZ
    Blend: AUG-CC-PVTZ
  Basis Set: (AUG-CC-PVTZ AUX)
    Blend: AUG-CC-PVTZ-JKFIT
	 Reference Energy          =    -285.8203049204500417 [Eh]
	 Singles Energy            =      -0.0000000000000000 [Eh]
	 Same-Spin Energy          =      -0.3161961564731109 [Eh]
	 Opposite-Spin Energy      =      -0.9967569863629481 [Eh]
	 Correlation Energy        =      -1.3129531428360590 [Eh]
	 Total Energy              =    -287.1332580632861209 [Eh]

	 ================> DF-SCS-MP2 Energies <==================
	-----------------------------------------------------------
	 SCS Same-Spin Scale       =       0.3333333333333333 [-]
	 SCS Opposite-Spin Scale   =       1.2000000000000000 [-]
	 SCS Same-Spin Energy      =      -0.1053987188243703 [Eh]
	 SCS Opposite-Spin Energy  =      -1.1961083836355377 [Eh]
	 SCS Correlation Energy    =      -1.3015071024599081 [Eh]
	 SCS Total Energy          =    -287.1218120229099213 [Eh]
	-----------------------------------------------------------

  Dipole Moment: [D]
     X:     1.0050      Y:     0.0761      Z:     0.9336     Total:     1.3738

*** Psi4 exiting successfully. Buy a developer a beer!
