                               Psi4 1.3.2 release

  ==> Input File <==

--------------------------------------------------------------------------
#psi4
#
memory 32 gb

molecule  {
0 1
  N        2.3399850     0.0000400    -0.0882940
  C        0.9354480     0.0000030    -0.0013470
  C        0.2222290     1.2072330    -0.0096550
  C       -1.1718320     1.2039030     0.0053930
  C       -1.8790760     0.0000220     0.0076380
  C       -1.1626440    -1.2191977     0.1543595
  C        0.2221720    -1.2072360    -0.0096460
  H        2.7627720     0.8296730     0.3164440
  H        2.7627430    -0.8301660     0.3152910
  H        0.7657540     2.1507970    -0.0162340
  H       -1.7067870     2.1509120     0.0059600
  H       -2.9656380    -0.0000200     0.0197930
  H       -1.7069100    -2.1508590     0.0059040
  H        0.7657150    -2.1507810    -0.0159610
units angstrom
no_reorient  #important for SAPT in psi4, default
symmetry c1  #important for SAPT in psi4, default
}

set PROPERTIES_ORIGIN ["COM"]
properties('MP2/aug-cc-pvtz', properties = ['dipole'])
--------------------------------------------------------------------------

    Molecular point group: c1
  Charge       = 0
  Multiplicity = 1
  Basis Set: AUG-CC-PVTZ
    Blend: AUG-CC-PVTZ
  Basis Set: (AUG-CC-PVTZ AUX)
    Blend: AUG-CC-PVTZ-JKFIT

    Orbital Energies [Eh]
    ---------------------

    Doubly Occupied:

       1A    -15.567204     2A    -11.278858     3A    -11.239682
       4A    -11.236802     5A    -11.228159     6A    -11.227041
       7A    -11.225525     8A     -1.222018     9A     -1.123540
      10A     -1.011859    11A     -0.983090    12A     -0.830107
      13A     -0.810705    14A     -0.701436    15A     -0.679643
      16A     -0.654202    17A     -0.595904    18A     -0.589032
      19A     -0.580797    20A     -0.533355    21A     -0.507223
      22A     -0.486921    23A     -0.447952    24A     -0.337771
      25A     -0.296032

  @DF-RHF Final Energy:  -285.82627263556412

   => Energetics <=

    Nuclear Repulsion Energy =            270.5683790508333573
    One-Electron Energy =                -921.9995903828788641
    Two-Electron Energy =                 365.6049386964813266
    Total Energy =                       -285.8262726355641234
  Basis Set: (AUG-CC-PVTZ AUX)
    Blend: AUG-CC-PVTZ-RI
    Molecular point group: c1

    Geometry (in Angstrom), charge = 0, multiplicity = 1:

       Center              X                  Y                   Z               Mass
    ------------   -----------------  -----------------  -----------------  -----------------
         N            2.345943672536     0.002008235381    -0.100766443005    14.003074004430
         C            0.941406672536     0.001971235381    -0.013819443005    12.000000000000
         C            0.228187672536     1.209201235381    -0.022127443005    12.000000000000
         C           -1.165873327464     1.205871235381    -0.007079443005    12.000000000000
         C           -1.873117327464     0.001990235381    -0.004834443005    12.000000000000
         C           -1.156685327464    -1.217229464619     0.141887056995    12.000000000000
         C            0.228130672536    -1.205267764619    -0.022118443005    12.000000000000
         H            2.768730672536     0.831641235381     0.303971556995     1.007825032230
         H            2.768701672536    -0.828197764619     0.302818556995     1.007825032230
         H            0.771712672536     2.152765235381    -0.028706443005     1.007825032230
         H           -1.700828327464     2.152880235381    -0.006512443005     1.007825032230
         H           -2.959679327464     0.001948235381     0.007320556995     1.007825032230
         H           -1.700951327464    -2.148890764619    -0.006568443005     1.007825032230
         H            0.771673672536    -2.148812764619    -0.028433443005     1.007825032230

  Basis Set: AUG-CC-PVTZ
    Blend: AUG-CC-PVTZ
  Basis Set: (AUG-CC-PVTZ AUX)
    Blend: AUG-CC-PVTZ-JKFIT
	 Reference Energy          =    -285.8262726355641234 [Eh]
	 Singles Energy            =      -0.0000000000000000 [Eh]
	 Same-Spin Energy          =      -0.3158834564227738 [Eh]
	 Opposite-Spin Energy      =      -0.9957597869939199 [Eh]
	 Correlation Energy        =      -1.3116432434166936 [Eh]
	 Total Energy              =    -287.1379158789808343 [Eh]

	 ================> DF-SCS-MP2 Energies <==================
	-----------------------------------------------------------
	 SCS Same-Spin Scale       =       0.3333333333333333 [-]
	 SCS Opposite-Spin Scale   =       1.2000000000000000 [-]
	 SCS Same-Spin Energy      =      -0.1052944854742579 [Eh]
	 SCS Opposite-Spin Energy  =      -1.1949117443927038 [Eh]
	 SCS Correlation Energy    =      -1.3002062298669617 [Eh]
	 SCS Total Energy          =    -287.1264788654310678 [Eh]
	-----------------------------------------------------------

  Dipole Moment: [D]
     X:     0.9845      Y:     0.0411      Z:     0.9713     Total:     1.3836

*** Psi4 exiting successfully. Buy a developer a beer!
