                               Psi4 1.3.2 release

  ==> Input File <==

--------------------------------------------------------------------------
#psi4
#
memory 32 gb

molecule  {
0 1
  N        2.3399850     0.0000400    -0.0882940
  C        0.9354480     0.0000030    -0.0013470
  C        0.2222290     1.2072330    -0.0096550
  C       -1.1718320     1.2039030     0.0053930
  C       -1.8790760     0.0000220     0.0076380
  C       -1.1687907    -1.2089972     0.0550712
  C        0.2221720    -1.2072360    -0.0096460
  H        2.7627720     0.8296730     0.3164440
  H        2.7627430    -0.8301660     0.3152910
  H        0.7657540     2.1507970    -0.0162340
  H       -1.7067870     2.1509120     0.0059600
  H       -2.9656380    -0.0000200     0.0197930
  H       -1.7069100    -2.1508590     0.0059040
  H        0.7657150    -2.1507810    -0.0159610
units angstrom
no_reorient  #important for SAPT in psi4, default
symmetry c1  #important for SAPT in psi4, default
}

set PROPERTIES_ORIGIN ["COM"]
properties('MP2/aug-cc-pvtz', properties = ['dipole'])
--------------------------------------------------------------------------

    Molecular point group: c1
  Charge       = 0
  Multiplicity = 1
  Basis Set: AUG-CC-PVTZ
    Blend: AUG-CC-PVTZ
  Basis Set: (AUG-CC-PVTZ AUX)
    Blend: AUG-CC-PVTZ-JKFIT

    Orbital Energies [Eh]
    ---------------------

    Doubly Occupied:

       1A    -15.567266     2A    -11.278761     3A    -11.237588
       4A    -11.237071     5A    -11.226376     6A    -11.226159
       7A    -11.222708     8A     -1.221957     9A     -1.125020
      10A     -1.011659    11A     -0.984491    12A     -0.830712
      13A     -0.811017    14A     -0.702325    15A     -0.680360
      16A     -0.653879    17A     -0.596895    18A     -0.590973
      19A     -0.580915    20A     -0.533930    21A     -0.506492
      22A     -0.488679    23A     -0.449383    24A     -0.337050
      25A     -0.297343

  @DF-RHF Final Energy:  -285.83320537785391

   => Energetics <=

    Nuclear Repulsion Energy =            270.8737725511820713
    One-Electron Energy =                -922.6159330919261947
    Two-Electron Energy =                 365.9089551628902655
    Total Energy =                       -285.8332053778539148
  Basis Set: (AUG-CC-PVTZ AUX)
    Blend: AUG-CC-PVTZ-RI
    Molecular point group: c1

    Geometry (in Angstrom), charge = 0, multiplicity = 1:

       Center              X                  Y                   Z               Mass
    ------------   -----------------  -----------------  -----------------  -----------------
         N            2.346736302074     0.000692860042    -0.087963013635    14.003074004430
         C            0.942199302074     0.000655860042    -0.001016013635    12.000000000000
         C            0.228980302074     1.207885860042    -0.009324013635    12.000000000000
         C           -1.165080697926     1.204555860042     0.005723986365    12.000000000000
         C           -1.872324697926     0.000674860042     0.007968986365    12.000000000000
         C           -1.162039397926    -1.208344339958     0.055402186365    12.000000000000
         C            0.228923302074    -1.206583139958    -0.009315013635    12.000000000000
         H            2.769523302074     0.830325860042     0.316774986365     1.007825032230
         H            2.769494302074    -0.829513139958     0.315621986365     1.007825032230
         H            0.772505302074     2.151449860042    -0.015903013635     1.007825032230
         H           -1.700035697926     2.151564860042     0.006290986365     1.007825032230
         H           -2.958886697926     0.000632860042     0.020123986365     1.007825032230
         H           -1.700158697926    -2.150206139958     0.006234986365     1.007825032230
         H            0.772466302074    -2.150128139958    -0.015630013635     1.007825032230

  Basis Set: AUG-CC-PVTZ
    Blend: AUG-CC-PVTZ
  Basis Set: (AUG-CC-PVTZ AUX)
    Blend: AUG-CC-PVTZ-JKFIT
	 Reference Energy          =    -285.8332053778539148 [Eh]
	 Singles Energy            =      -0.0000000000000000 [Eh]
	 Same-Spin Energy          =      -0.3155133142814908 [Eh]
	 Opposite-Spin Energy      =      -0.9945324637253248 [Eh]
	 Correlation Energy        =      -1.3100457780068155 [Eh]
	 Total Energy              =    -287.1432511558607530 [Eh]

	 ================> DF-SCS-MP2 Energies <==================
	-----------------------------------------------------------
	 SCS Same-Spin Scale       =       0.3333333333333333 [-]
	 SCS Opposite-Spin Scale   =       1.2000000000000000 [-]
	 SCS Same-Spin Energy      =      -0.1051711047604969 [Eh]
	 SCS Opposite-Spin Energy  =      -1.1934389564703898 [Eh]
	 SCS Correlation Energy    =      -1.2986100612308866 [Eh]
	 SCS Total Energy          =    -287.1318154390847894 [Eh]
	-----------------------------------------------------------

  Dipole Moment: [D]
     X:     0.9616      Y:     0.0027      Z:     1.0422     Total:     1.4180

*** Psi4 exiting successfully. Buy a developer a beer!
