                               Psi4 1.3.2 release

  ==> Input File <==

--------------------------------------------------------------------------
#psi4
#
memory 32 gb

molecule  {
0 1
  C        0.0000070    -0.5370720     0.0000000
  O        0.0000070     0.6840270     0.0000000
  H       -0.0000460    -1.1248930     0.9345370
  H        0.2999540    -1.1249018    -0.9345370
units angstrom
no_reorient  #important for SAPT in psi4, default
symmetry c1  #important for SAPT in psi4, default
}

set PROPERTIES_ORIGIN ["COM"]
properties('MP2/aug-cc-pvtz', properties = ['dipole'])
--------------------------------------------------------------------------

    Molecular point group: c1
  Charge       = 0
  Multiplicity = 1
  Basis Set: AUG-CC-PVTZ
    Blend: AUG-CC-PVTZ
  Basis Set: (AUG-CC-PVTZ AUX)
    Blend: AUG-CC-PVTZ-JKFIT

    Orbital Energies [Eh]
    ---------------------

    Doubly Occupied:

       1A    -20.582548     2A    -11.350782     3A     -1.398759
       4A     -0.867875     5A     -0.685434     6A     -0.648916
       7A     -0.532347     8A     -0.443406

  @DF-RHF Final Energy:  -113.90678105953047

   => Energetics <=

    Nuclear Repulsion Energy =             30.8682537035589704
    One-Electron Energy =                -216.5299362869006927
    Two-Electron Energy =                  71.7549015238112560
    Total Energy =                       -113.9067810595304735
  Basis Set: (AUG-CC-PVTZ AUX)
    Blend: AUG-CC-PVTZ-RI
    Molecular point group: c1

    Geometry (in Angstrom), charge = 0, multiplicity = 1:

       Center              X                  Y                   Z               Mass
    ------------   -----------------  -----------------  -----------------  -----------------
         C           -0.010071142726    -0.611335512504     0.000000000000    12.000000000000
         O           -0.010071142726     0.609763487496     0.000000000000    15.994914619570
         H           -0.010124142726    -1.199156512504     0.934537000000     1.007825032230
         H            0.289875857274    -1.199165312504    -0.934537000000     1.007825032230

  Basis Set: AUG-CC-PVTZ
    Blend: AUG-CC-PVTZ
  Basis Set: (AUG-CC-PVTZ AUX)
    Blend: AUG-CC-PVTZ-JKFIT
	 Reference Energy          =    -113.9067810595304735 [Eh]
	 Singles Energy            =      -0.0000000000000000 [Eh]
	 Same-Spin Energy          =      -0.1022059410370018 [Eh]
	 Opposite-Spin Energy      =      -0.3348269538389220 [Eh]
	 Correlation Energy        =      -0.4370328948759238 [Eh]
	 Total Energy              =    -114.3438139544064001 [Eh]

	 ================> DF-SCS-MP2 Energies <==================
	-----------------------------------------------------------
	 SCS Same-Spin Scale       =       0.3333333333333333 [-]
	 SCS Opposite-Spin Scale   =       1.2000000000000000 [-]
	 SCS Same-Spin Energy      =      -0.0340686470123339 [Eh]
	 SCS Opposite-Spin Energy  =      -0.4017923446067064 [Eh]
	 SCS Correlation Energy    =      -0.4358609916190403 [Eh]
	 SCS Total Energy          =    -114.3426420511495110 [Eh]
	-----------------------------------------------------------

  Dipole Moment: [D]
     X:     0.1296      Y:    -2.3676      Z:     0.0580     Total:     2.3719

*** Psi4 exiting successfully. Buy a developer a beer!
