                               Psi4 1.3.2 release

  ==> Input File <==

--------------------------------------------------------------------------
#psi4
#
memory 32 gb

molecule  {
0 1
  C        0.0000070    -0.5370720     0.0000000
  O        0.0000070     0.6840270     0.0000000
  H       -0.0000460    -1.1248930     0.9345370
  H        0.1499540    -1.1248974    -0.9345370
units angstrom
no_reorient  #important for SAPT in psi4, default
symmetry c1  #important for SAPT in psi4, default
}

set PROPERTIES_ORIGIN ["COM"]
properties('MP2/aug-cc-pvtz', properties = ['dipole'])
--------------------------------------------------------------------------

    Molecular point group: c1
  Charge       = 0
  Multiplicity = 1
  Basis Set: AUG-CC-PVTZ
    Blend: AUG-CC-PVTZ
  Basis Set: (AUG-CC-PVTZ AUX)
    Blend: AUG-CC-PVTZ-JKFIT

    Orbital Energies [Eh]
    ---------------------

    Doubly Occupied:

       1A    -20.581027     2A    -11.347601     3A     -1.397694
       4A     -0.872331     5A     -0.689421     6A     -0.649219
       7A     -0.531587     8A     -0.445113

  @DF-RHF Final Energy:  -113.91068304671035

   => Energetics <=

    Nuclear Repulsion Energy =             30.9619555434515057
    One-Electron Energy =                -216.7172922888746598
    Two-Electron Energy =                  71.8446536987128184
    Total Energy =                       -113.9106830467103464
  Basis Set: (AUG-CC-PVTZ AUX)
    Blend: AUG-CC-PVTZ-RI
    Molecular point group: c1

    Geometry (in Angstrom), charge = 0, multiplicity = 1:

       Center              X                  Y                   Z               Mass
    ------------   -----------------  -----------------  -----------------  -----------------
         C           -0.005033791499    -0.611335660266     0.000000000000    12.000000000000
         O           -0.005033791499     0.609763339734     0.000000000000    15.994914619570
         H           -0.005086791499    -1.199156660266     0.934537000000     1.007825032230
         H            0.144913208501    -1.199161060266    -0.934537000000     1.007825032230

  Basis Set: AUG-CC-PVTZ
    Blend: AUG-CC-PVTZ
  Basis Set: (AUG-CC-PVTZ AUX)
    Blend: AUG-CC-PVTZ-JKFIT
	 Reference Energy          =    -113.9106830467103464 [Eh]
	 Singles Energy            =      -0.0000000000000000 [Eh]
	 Same-Spin Energy          =      -0.1020301134015456 [Eh]
	 Opposite-Spin Energy      =      -0.3342910876845924 [Eh]
	 Correlation Energy        =      -0.4363212010861379 [Eh]
	 Total Energy              =    -114.3470042477964910 [Eh]

	 ================> DF-SCS-MP2 Energies <==================
	-----------------------------------------------------------
	 SCS Same-Spin Scale       =       0.3333333333333333 [-]
	 SCS Opposite-Spin Scale   =       1.2000000000000000 [-]
	 SCS Same-Spin Energy      =      -0.0340100378005152 [Eh]
	 SCS Opposite-Spin Energy  =      -0.4011493052215108 [Eh]
	 SCS Correlation Energy    =      -0.4351593430220260 [Eh]
	 SCS Total Energy          =    -114.3458423897323684 [Eh]
	-----------------------------------------------------------

  Dipole Moment: [D]
     X:     0.0692      Y:    -2.4111      Z:     0.0144     Total:     2.4122

*** Psi4 exiting successfully. Buy a developer a beer!
