                               Psi4 1.3.2 release

  ==> Input File <==

--------------------------------------------------------------------------
#psi4
#
memory 32 gb

molecule  {
0 1
  C        0.0000070    -0.5370720     0.0000000
  O        0.0000070     0.6840270     0.0000000
  H       -0.0000460    -1.1248930     0.9345370
  H        0.1999540    -1.1248989    -0.9345370
units angstrom
no_reorient  #important for SAPT in psi4, default
symmetry c1  #important for SAPT in psi4, default
}

set PROPERTIES_ORIGIN ["COM"]
properties('MP2/aug-cc-pvtz', properties = ['dipole'])
--------------------------------------------------------------------------

    Molecular point group: c1
  Charge       = 0
  Multiplicity = 1
  Basis Set: AUG-CC-PVTZ
    Blend: AUG-CC-PVTZ
  Basis Set: (AUG-CC-PVTZ AUX)
    Blend: AUG-CC-PVTZ-JKFIT

    Orbital Energies [Eh]
    ---------------------

    Doubly Occupied:

       1A    -20.581420     2A    -11.348435     3A     -1.397969
       4A     -0.871102     5A     -0.688343     6A     -0.649161
       7A     -0.531780     8A     -0.444678

  @DF-RHF Final Energy:  -113.90973430588674

   => Energetics <=

    Nuclear Repulsion Energy =             30.9370438122911153
    One-Electron Energy =                -216.6677815296205551
    Two-Electron Energy =                  71.8210034114427032
    Total Energy =                       -113.9097343058867438
  Basis Set: (AUG-CC-PVTZ AUX)
    Blend: AUG-CC-PVTZ-RI
    Molecular point group: c1

    Geometry (in Angstrom), charge = 0, multiplicity = 1:

       Center              X                  Y                   Z               Mass
    ------------   -----------------  -----------------  -----------------  -----------------
         C           -0.006712908574    -0.611335609893     0.000000000000    12.000000000000
         O           -0.006712908574     0.609763390107     0.000000000000    15.994914619570
         H           -0.006765908574    -1.199156609893     0.934537000000     1.007825032230
         H            0.193234091426    -1.199162509893    -0.934537000000     1.007825032230

  Basis Set: AUG-CC-PVTZ
    Blend: AUG-CC-PVTZ
  Basis Set: (AUG-CC-PVTZ AUX)
    Blend: AUG-CC-PVTZ-JKFIT
	 Reference Energy          =    -113.9097343058867438 [Eh]
	 Singles Energy            =      -0.0000000000000000 [Eh]
	 Same-Spin Energy          =      -0.1020756989109347 [Eh]
	 Opposite-Spin Energy      =      -0.3344289008898543 [Eh]
	 Correlation Energy        =      -0.4365045998007889 [Eh]
	 Total Energy              =    -114.3462389056875281 [Eh]

	 ================> DF-SCS-MP2 Energies <==================
	-----------------------------------------------------------
	 SCS Same-Spin Scale       =       0.3333333333333333 [-]
	 SCS Opposite-Spin Scale   =       1.2000000000000000 [-]
	 SCS Same-Spin Energy      =      -0.0340252329703116 [Eh]
	 SCS Opposite-Spin Energy  =      -0.4013146810678251 [Eh]
	 SCS Correlation Energy    =      -0.4353399140381367 [Eh]
	 SCS Total Energy          =    -114.3450742199248822 [Eh]
	-----------------------------------------------------------

  Dipole Moment: [D]
     X:     0.0908      Y:    -2.3999      Z:     0.0256     Total:     2.4017

*** Psi4 exiting successfully. Buy a developer a beer!
