                               Psi4 1.3.2 release

  ==> Input File <==

--------------------------------------------------------------------------
#psi4
#
memory 32 gb

molecule  {
0 1
  C        0.0000070    -0.5370720     0.0000000
  O        0.0000070     0.6840270     0.0000000
  H       -0.0000460    -1.1248930     0.9345370
  H       -0.0000460    -1.1248930    -0.9345370
units angstrom
no_reorient  #important for SAPT in psi4, default
symmetry c1  #important for SAPT in psi4, default
}

set PROPERTIES_ORIGIN ["COM"]
properties('MP2/aug-cc-pvtz', properties = ['dipole'])
--------------------------------------------------------------------------

    Molecular point group: c1
  Charge       = 0
  Multiplicity = 1
  Basis Set: AUG-CC-PVTZ
    Blend: AUG-CC-PVTZ
  Basis Set: (AUG-CC-PVTZ AUX)
    Blend: AUG-CC-PVTZ-JKFIT

    Orbital Energies [Eh]
    ---------------------

    Doubly Occupied:

       1A    -20.580523     2A    -11.346519     3A     -1.397343
       4A     -0.873990     5A     -0.690851     6A     -0.649273
       7A     -0.531344     8A     -0.445664

  @DF-RHF Final Energy:  -113.91182802534910

   => Energetics <=

    Nuclear Repulsion Energy =             30.9946517023994481
    One-Electron Energy =                -216.7819452696365090
    Two-Electron Energy =                  71.8754655418879764
    Total Energy =                       -113.9118280253490951
  Basis Set: (AUG-CC-PVTZ AUX)
    Blend: AUG-CC-PVTZ-RI
    Molecular point group: c1

    Geometry (in Angstrom), charge = 0, multiplicity = 1:

       Center              X                  Y                   Z               Mass
    ------------   -----------------  -----------------  -----------------  -----------------
         C            0.000003559728    -0.611335808028     0.000000000000    12.000000000000
         O            0.000003559728     0.609763191972     0.000000000000    15.994914619570
         H           -0.000049440272    -1.199156808028     0.934537000000     1.007825032230
         H           -0.000049440272    -1.199156808028    -0.934537000000     1.007825032230

  Basis Set: AUG-CC-PVTZ
    Blend: AUG-CC-PVTZ
  Basis Set: (AUG-CC-PVTZ AUX)
    Blend: AUG-CC-PVTZ-JKFIT
	 Reference Energy          =    -113.9118280253490951 [Eh]
	 Singles Energy            =      -0.0000000000000000 [Eh]
	 Same-Spin Energy          =      -0.1019715610933857 [Eh]
	 Opposite-Spin Energy      =      -0.3341152839695031 [Eh]
	 Correlation Energy        =      -0.4360868450628888 [Eh]
	 Total Energy              =    -114.3479148704119837 [Eh]

	 ================> DF-SCS-MP2 Energies <==================
	-----------------------------------------------------------
	 SCS Same-Spin Scale       =       0.3333333333333333 [-]
	 SCS Opposite-Spin Scale   =       1.2000000000000000 [-]
	 SCS Same-Spin Energy      =      -0.0339905203644619 [Eh]
	 SCS Opposite-Spin Energy  =      -0.4009383407634037 [Eh]
	 SCS Correlation Energy    =      -0.4349288611278656 [Eh]
	 SCS Total Energy          =    -114.3467568864769675 [Eh]
	-----------------------------------------------------------

  Dipole Moment: [D]
     X:    -0.0000      Y:    -2.4256      Z:     0.0000     Total:     2.4256

*** Psi4 exiting successfully. Buy a developer a beer!
