                               Psi4 1.3.2 release

  ==> Input File <==

--------------------------------------------------------------------------
#psi4
#
memory 32 gb

molecule  {
0 1
  C        0.0000070    -0.5370720     0.0000000
  O        0.0000070     0.6840270     0.0000000
  H       -0.0000460    -1.1248930     0.9345370
  H        0.2499540    -1.1249003    -0.9345370
units angstrom
no_reorient  #important for SAPT in psi4, default
symmetry c1  #important for SAPT in psi4, default
}

set PROPERTIES_ORIGIN ["COM"]
properties('MP2/aug-cc-pvtz', properties = ['dipole'])
--------------------------------------------------------------------------

    Molecular point group: c1
  Charge       = 0
  Multiplicity = 1
  Basis Set: AUG-CC-PVTZ
    Blend: AUG-CC-PVTZ
  Basis Set: (AUG-CC-PVTZ AUX)
    Blend: AUG-CC-PVTZ-JKFIT

    Orbital Energies [Eh]
    ---------------------

    Doubly Occupied:

       1A    -20.581926     2A    -11.349498     3A     -1.398323
       4A     -0.869600     5A     -0.687001     6A     -0.649067
       7A     -0.532032     8A     -0.444111

  @DF-RHF Final Energy:  -113.90844707522045

   => Energetics <=

    Nuclear Repulsion Energy =             30.9056615210228074
    One-Electron Energy =                -216.6051020315971414
    Two-Electron Energy =                  71.7909934353538830
    Total Energy =                       -113.9084470752204510
  Basis Set: (AUG-CC-PVTZ AUX)
    Blend: AUG-CC-PVTZ-RI
    Molecular point group: c1

    Geometry (in Angstrom), charge = 0, multiplicity = 1:

       Center              X                  Y                   Z               Mass
    ------------   -----------------  -----------------  -----------------  -----------------
         C           -0.008392025650    -0.611335562877     0.000000000000    12.000000000000
         O           -0.008392025650     0.609763437123     0.000000000000    15.994914619570
         H           -0.008445025650    -1.199156562877     0.934537000000     1.007825032230
         H            0.241554974350    -1.199163862877    -0.934537000000     1.007825032230

  Basis Set: AUG-CC-PVTZ
    Blend: AUG-CC-PVTZ
  Basis Set: (AUG-CC-PVTZ AUX)
    Blend: AUG-CC-PVTZ-JKFIT
	 Reference Energy          =    -113.9084470752204510 [Eh]
	 Singles Energy            =      -0.0000000000000000 [Eh]
	 Same-Spin Energy          =      -0.1021343175613901 [Eh]
	 Opposite-Spin Energy      =      -0.3346072819150016 [Eh]
	 Correlation Energy        =      -0.4367415994763917 [Eh]
	 Total Energy              =    -114.3451886746968427 [Eh]

	 ================> DF-SCS-MP2 Energies <==================
	-----------------------------------------------------------
	 SCS Same-Spin Scale       =       0.3333333333333333 [-]
	 SCS Opposite-Spin Scale   =       1.2000000000000000 [-]
	 SCS Same-Spin Energy      =      -0.0340447725204634 [Eh]
	 SCS Opposite-Spin Energy  =      -0.4015287382980018 [Eh]
	 SCS Correlation Energy    =      -0.4355735108184652 [Eh]
	 SCS Total Energy          =    -114.3440205860389227 [Eh]
	-----------------------------------------------------------

  Dipole Moment: [D]
     X:     0.1110      Y:    -2.3853      Z:     0.0401     Total:     2.3883

*** Psi4 exiting successfully. Buy a developer a beer!
