                               Psi4 1.3.2 release

  ==> Input File <==

--------------------------------------------------------------------------
#psi4
#
memory 32 gb

molecule  {
0 1
  C        0.0000070    -0.5370720     0.0000000
  O        0.0000070     0.6840270     0.0000000
  H       -0.0000460    -1.1248930     0.9345370
  H        0.0999540    -1.1248959    -0.9345370
units angstrom
no_reorient  #important for SAPT in psi4, default
symmetry c1  #important for SAPT in psi4, default
}

set PROPERTIES_ORIGIN ["COM"]
properties('MP2/aug-cc-pvtz', properties = ['dipole'])
--------------------------------------------------------------------------

    Molecular point group: c1
  Charge       = 0
  Multiplicity = 1
  Basis Set: AUG-CC-PVTZ
    Blend: AUG-CC-PVTZ
  Basis Set: (AUG-CC-PVTZ AUX)
    Blend: AUG-CC-PVTZ-JKFIT

    Orbital Energies [Eh]
    ---------------------

    Doubly Occupied:

       1A    -20.580747     2A    -11.347001     3A     -1.397499
       4A     -0.873241     5A     -0.690210     6A     -0.649251
       7A     -0.531451     8A     -0.445420

  @DF-RHF Final Energy:  -113.91133021005804

   => Energetics <=

    Nuclear Repulsion Energy =             30.9800275428838887
    One-Electron Energy =                -216.7530739522375995
    Two-Electron Energy =                  71.8617161992956568
    Total Energy =                       -113.9113302100580398
  Basis Set: (AUG-CC-PVTZ AUX)
    Blend: AUG-CC-PVTZ-RI
    Molecular point group: c1

    Geometry (in Angstrom), charge = 0, multiplicity = 1:

       Center              X                  Y                   Z               Mass
    ------------   -----------------  -----------------  -----------------  -----------------
         C           -0.003354674423    -0.611335710640     0.000000000000    12.000000000000
         O           -0.003354674423     0.609763289360     0.000000000000    15.994914619570
         H           -0.003407674423    -1.199156710640     0.934537000000     1.007825032230
         H            0.096592325577    -1.199159610640    -0.934537000000     1.007825032230

  Basis Set: AUG-CC-PVTZ
    Blend: AUG-CC-PVTZ
  Basis Set: (AUG-CC-PVTZ AUX)
    Blend: AUG-CC-PVTZ-JKFIT
	 Reference Energy          =    -113.9113302100580398 [Eh]
	 Singles Energy            =      -0.0000000000000000 [Eh]
	 Same-Spin Energy          =      -0.1019975664620169 [Eh]
	 Opposite-Spin Energy      =      -0.3341931932353359 [Eh]
	 Correlation Energy        =      -0.4361907596973529 [Eh]
	 Total Energy              =    -114.3475209697553936 [Eh]

	 ================> DF-SCS-MP2 Energies <==================
	-----------------------------------------------------------
	 SCS Same-Spin Scale       =       0.3333333333333333 [-]
	 SCS Opposite-Spin Scale   =       1.2000000000000000 [-]
	 SCS Same-Spin Energy      =      -0.0339991888206723 [Eh]
	 SCS Opposite-Spin Energy  =      -0.4010318318824031 [Eh]
	 SCS Correlation Energy    =      -0.4350310207030754 [Eh]
	 SCS Total Energy          =    -114.3463612307611186 [Eh]
	-----------------------------------------------------------

  Dipole Moment: [D]
     X:     0.0467      Y:    -2.4192      Z:     0.0064     Total:     2.4197

*** Psi4 exiting successfully. Buy a developer a beer!
