                               Psi4 1.3.2 release

  ==> Input File <==

--------------------------------------------------------------------------
#psi4
#
memory 32 gb

molecule  {
0 1
  C        0.0000070    -0.5370720     0.0000000
  O        0.0000070     0.6840270     0.0000000
  H       -0.0000460    -1.1248930     0.9345370
  H        0.0499540    -1.1248945    -0.9345370
units angstrom
no_reorient  #important for SAPT in psi4, default
symmetry c1  #important for SAPT in psi4, default
}

set PROPERTIES_ORIGIN ["COM"]
properties('MP2/aug-cc-pvtz', properties = ['dipole'])
--------------------------------------------------------------------------

    Molecular point group: c1
  Charge       = 0
  Multiplicity = 1
  Basis Set: AUG-CC-PVTZ
    Blend: AUG-CC-PVTZ
  Basis Set: (AUG-CC-PVTZ AUX)
    Blend: AUG-CC-PVTZ-JKFIT

    Orbital Energies [Eh]
    ---------------------

    Doubly Occupied:

       1A    -20.580579     2A    -11.346640     3A     -1.397382
       4A     -0.873801     5A     -0.690690     6A     -0.649268
       7A     -0.531371     8A     -0.445603

  @DF-RHF Final Energy:  -113.91170546308874

   => Energetics <=

    Nuclear Repulsion Energy =             30.9909831822496500
    One-Electron Energy =                -216.7747100500703823
    Two-Electron Energy =                  71.8720214047320098
    Total Energy =                       -113.9117054630887367
  Basis Set: (AUG-CC-PVTZ AUX)
    Blend: AUG-CC-PVTZ-RI
    Molecular point group: c1

    Geometry (in Angstrom), charge = 0, multiplicity = 1:

       Center              X                  Y                   Z               Mass
    ------------   -----------------  -----------------  -----------------  -----------------
         C           -0.001675557347    -0.611335757655     0.000000000000    12.000000000000
         O           -0.001675557347     0.609763242345     0.000000000000    15.994914619570
         H           -0.001728557347    -1.199156757655     0.934537000000     1.007825032230
         H            0.048271442653    -1.199158257655    -0.934537000000     1.007825032230

  Basis Set: AUG-CC-PVTZ
    Blend: AUG-CC-PVTZ
  Basis Set: (AUG-CC-PVTZ AUX)
    Blend: AUG-CC-PVTZ-JKFIT
	 Reference Energy          =    -113.9117054630887367 [Eh]
	 Singles Energy            =      -0.0000000000000000 [Eh]
	 Same-Spin Energy          =      -0.1019780519228644 [Eh]
	 Opposite-Spin Energy      =      -0.3341347023130192 [Eh]
	 Correlation Energy        =      -0.4361127542358836 [Eh]
	 Total Energy              =    -114.3478182173246154 [Eh]

	 ================> DF-SCS-MP2 Energies <==================
	-----------------------------------------------------------
	 SCS Same-Spin Scale       =       0.3333333333333333 [-]
	 SCS Opposite-Spin Scale   =       1.2000000000000000 [-]
	 SCS Same-Spin Energy      =      -0.0339926839742881 [Eh]
	 SCS Opposite-Spin Energy  =      -0.4009616427756231 [Eh]
	 SCS Correlation Energy    =      -0.4349543267499112 [Eh]
	 SCS Total Energy          =    -114.3466597898386539 [Eh]
	-----------------------------------------------------------

  Dipole Moment: [D]
     X:     0.0235      Y:    -2.4240      Z:     0.0016     Total:     2.4241

*** Psi4 exiting successfully. Buy a developer a beer!
