                               Psi4 1.4a3.dev225

  ==> Input File <==

--------------------------------------------------------------------------
#psi4
#
memory 32 gb

molecule  {
0 1
  O        2.7820080    -0.8809860    -0.0002600
  C       -0.3718440     0.9737870     0.0000910
  C        0.5095440    -0.1275560    -0.0000600
  C       -1.7466600     0.7087270     0.0002000
  C        0.0166350    -1.4400920    -0.0001140
  C        0.1123110     2.4052290     0.0001630
  C       -2.2387310    -0.5972210     0.0001460
  C       -1.3536090    -1.6782430    -0.0000090
  C        1.9816290     0.0523060    -0.0001740
  H       -2.3173534     1.3897808     0.0002963
  H        0.7339320    -2.2568560    -0.0002320
  H        0.7165080     2.6337130    -0.8832360
  H       -0.7427470     3.0862090     0.0002150
  H        0.7165360     2.6336080     0.8835710
  H       -3.3126640    -0.7693710     0.0002300
  H       -1.7319890    -2.6973870    -0.0000530
  H        2.3545140     1.0932780    -0.0001810
units angstrom
no_reorient  #important for SAPT in psi4, default
symmetry c1  #important for SAPT in psi4, default
}

set PROPERTIES_ORIGIN ["COM"]
properties('MP2/aug-cc-pvtz', properties = ['dipole'])
--------------------------------------------------------------------------

    Molecular point group: c1
  Charge       = 0
  Multiplicity = 1
  Basis Set: AUG-CC-PVTZ
    Blend: AUG-CC-PVTZ
  Basis Set: (AUG-CC-PVTZ AUX)
    Blend: AUG-CC-PVTZ-JKFIT

    Orbital Energies [Eh]
    ---------------------

    Doubly Occupied:

       1A    -20.551448     2A    -11.334174     3A    -11.268741
       4A    -11.256284     5A    -11.251779     6A    -11.247468
       7A    -11.244152     8A    -11.243214     9A    -11.221572
      10A     -1.376231    11A     -1.173161    12A     -1.064948
      13A     -1.047591    14A     -0.958426    15A     -0.891337
      16A     -0.835766    17A     -0.793596    18A     -0.713978
      19A     -0.674291    20A     -0.654874    21A     -0.627114
      22A     -0.612346    23A     -0.597574    24A     -0.587466
      25A     -0.563280    26A     -0.537870    27A     -0.518414
      28A     -0.506794    29A     -0.490693    30A     -0.424916
      31A     -0.348339    32A     -0.341945

  @DF-RHF Final Energy:  -382.56007470297419

   => Energetics <=

    Nuclear Repulsion Energy =            403.1057150873093065
    One-Electron Energy =               -1317.4120138106518425
    Two-Electron Energy =                 531.7462240203683450
    Total Energy =                       -382.5600747029741342
  Basis Set: (AUG-CC-PVTZ AUX)
    Blend: AUG-CC-PVTZ-RI
    Molecular point group: c1

    Geometry (in Angstrom), charge = 0, multiplicity = 1:

       Center              X                  Y                   Z               Mass
    ------------   -----------------  -----------------  -----------------  -----------------
         O            2.750373346532    -0.836215226059    -0.000254772487    15.994914619570
         C           -0.403478653468     1.018557773941     0.000096227513    12.000000000000
         C            0.477909346532    -0.082785226059    -0.000054772487    12.000000000000
         C           -1.778294653468     0.753497773941     0.000205227513    12.000000000000
         C           -0.014999653468    -1.395321226059    -0.000108772487    12.000000000000
         C            0.080676346532     2.449999773941     0.000168227513    12.000000000000
         C           -2.270365653468    -0.552450226059     0.000151227513    12.000000000000
         C           -1.385243653468    -1.633472226059    -0.000003772487    12.000000000000
         C            1.949994346532     0.097076773941    -0.000168772487    12.000000000000
         H           -2.348988053468     1.434551573941     0.000301527513     1.007825032230
         H            0.702297346532    -2.212085226059    -0.000226772487     1.007825032230
         H            0.684873346532     2.678483773941    -0.883230772487     1.007825032230
         H           -0.774381653468     3.130979773941     0.000220227513     1.007825032230
         H            0.684901346532     2.678378773941     0.883576227513     1.007825032230
         H           -3.344298653468    -0.724600226059     0.000235227513     1.007825032230
         H           -1.763623653468    -2.652616226059    -0.000047772487     1.007825032230
         H            2.322879346532     1.138048773941    -0.000175772487     1.007825032230

  Basis Set: AUG-CC-PVTZ
    Blend: AUG-CC-PVTZ
  Basis Set: (AUG-CC-PVTZ AUX)
    Blend: AUG-CC-PVTZ-JKFIT
	 Reference Energy          =    -382.5600747029741910 [Eh]
	 Singles Energy            =      -0.0000000000000000 [Eh]
	 Same-Spin Energy          =      -0.4081707865247731 [Eh]
	 Opposite-Spin Energy      =      -1.2863442331013875 [Eh]
	 Correlation Energy        =      -1.6945150196261607 [Eh]
	 Total Energy              =    -384.2545897226003717 [Eh]

	 ================> DF-SCS-MP2 Energies <==================
	-----------------------------------------------------------
	 SCS Same-Spin Scale       =       0.3333333333333333 [-]
	 SCS Opposite-Spin Scale   =       1.2000000000000000 [-]
	 SCS Same-Spin Energy      =      -0.1360569288415910 [Eh]
	 SCS Opposite-Spin Energy  =      -1.5436130797216649 [Eh]
	 SCS Correlation Energy    =      -1.6796700085632559 [Eh]
	 SCS Total Energy          =    -384.2397447115374689 [Eh]
	-----------------------------------------------------------

  Dipole Moment: [D]
     X:    -2.7485      Y:     1.9283      Z:     0.0003     Total:     3.3575

*** Psi4 exiting successfully. Buy a developer a beer!
