                               Psi4 1.4a3.dev225

  ==> Input File <==

--------------------------------------------------------------------------
#psi4
#
memory 32 gb

molecule  {
0 1
  O        2.7820080    -0.8809860    -0.0002600
  C       -0.3718440     0.9737870     0.0000910
  C        0.5095440    -0.1275560    -0.0000600
  C       -1.7466600     0.7087270     0.0002000
  C        0.0166350    -1.4400920    -0.0001140
  C        0.1123110     2.4052290     0.0001630
  C       -2.2387310    -0.5972210     0.0001460
  C       -1.3536090    -1.6782430    -0.0000090
  C        1.9816290     0.0523060    -0.0001740
  H       -2.4458080     1.5430760     0.0003180
  H        0.7009383    -2.2192871    -0.0002266
  H        0.7165080     2.6337130    -0.8832360
  H       -0.7427470     3.0862090     0.0002150
  H        0.7165360     2.6336080     0.8835710
  H       -3.3126640    -0.7693710     0.0002300
  H       -1.7319890    -2.6973870    -0.0000530
  H        2.3545140     1.0932780    -0.0001810
units angstrom
no_reorient  #important for SAPT in psi4, default
symmetry c1  #important for SAPT in psi4, default
}

set PROPERTIES_ORIGIN ["COM"]
properties('MP2/aug-cc-pvtz', properties = ['dipole'])
--------------------------------------------------------------------------

    Molecular point group: c1
  Charge       = 0
  Multiplicity = 1
  Basis Set: AUG-CC-PVTZ
    Blend: AUG-CC-PVTZ
  Basis Set: (AUG-CC-PVTZ AUX)
    Blend: AUG-CC-PVTZ-JKFIT

    Orbital Energies [Eh]
    ---------------------

    Doubly Occupied:

       1A    -20.552177     2A    -11.334881     3A    -11.269940
       4A    -11.257448     5A    -11.248768     6A    -11.246758
       7A    -11.245661     8A    -11.244101     9A    -11.243704
      10A     -1.376902    11A     -1.172186    12A     -1.065553
      13A     -1.041183    14A     -0.955451    15A     -0.891038
      16A     -0.824773    17A     -0.787342    18A     -0.709185
      19A     -0.676384    20A     -0.647354    21A     -0.619726
      22A     -0.611266    23A     -0.597466    24A     -0.586447
      25A     -0.558561    26A     -0.538429    27A     -0.519657
      28A     -0.504596    29A     -0.491478    30A     -0.425536
      31A     -0.348953    32A     -0.342678

  @DF-RHF Final Energy:  -382.59357714025543

   => Energetics <=

    Nuclear Repulsion Energy =            402.2038407899882486
    One-Electron Energy =               -1315.7236728490613586
    Two-Electron Energy =                 530.9262549188176763
    Total Energy =                       -382.5935771402554337
  Basis Set: (AUG-CC-PVTZ AUX)
    Blend: AUG-CC-PVTZ-RI
    Molecular point group: c1

    Geometry (in Angstrom), charge = 0, multiplicity = 1:

       Center              X                  Y                   Z               Mass
    ------------   -----------------  -----------------  -----------------  -----------------
         O            2.751728627277    -0.837817438282    -0.000254999979    15.994914619570
         C           -0.402123372723     1.016955561718     0.000096000021    12.000000000000
         C            0.479264627277    -0.084387438282    -0.000054999979    12.000000000000
         C           -1.776939372723     0.751895561718     0.000205000021    12.000000000000
         C           -0.013644372723    -1.396923438282    -0.000108999979    12.000000000000
         C            0.082031627277     2.448397561718     0.000168000021    12.000000000000
         C           -2.269010372723    -0.554052438282     0.000151000021    12.000000000000
         C           -1.383888372723    -1.635074438282    -0.000003999979    12.000000000000
         C            1.951349627277     0.095474561718    -0.000168999979    12.000000000000
         H           -2.476087372723     1.586244561718     0.000323000021     1.007825032230
         H            0.670658927277    -2.176118538282    -0.000221599979     1.007825032230
         H            0.686228627277     2.676881561718    -0.883230999979     1.007825032230
         H           -0.773026372723     3.129377561718     0.000220000021     1.007825032230
         H            0.686256627277     2.676776561718     0.883576000021     1.007825032230
         H           -3.342943372723    -0.726202438282     0.000235000021     1.007825032230
         H           -1.762268372723    -2.654218438282    -0.000047999979     1.007825032230
         H            2.324234627277     1.136446561718    -0.000175999979     1.007825032230

  Basis Set: AUG-CC-PVTZ
    Blend: AUG-CC-PVTZ
  Basis Set: (AUG-CC-PVTZ AUX)
    Blend: AUG-CC-PVTZ-JKFIT
	 Reference Energy          =    -382.5935771402554337 [Eh]
	 Singles Energy            =      -0.0000000000000000 [Eh]
	 Same-Spin Energy          =      -0.4083030766523195 [Eh]
	 Opposite-Spin Energy      =      -1.2866419598803907 [Eh]
	 Correlation Energy        =      -1.6949450365327101 [Eh]
	 Total Energy              =    -384.2885221767881490 [Eh]

	 ================> DF-SCS-MP2 Energies <==================
	-----------------------------------------------------------
	 SCS Same-Spin Scale       =       0.3333333333333333 [-]
	 SCS Opposite-Spin Scale   =       1.2000000000000000 [-]
	 SCS Same-Spin Energy      =      -0.1361010255507731 [Eh]
	 SCS Opposite-Spin Energy  =      -1.5439703518564687 [Eh]
	 SCS Correlation Energy    =      -1.6800713774072418 [Eh]
	 SCS Total Energy          =    -384.2736485176626502 [Eh]
	-----------------------------------------------------------

  Dipole Moment: [D]
     X:    -2.7235      Y:     1.8845      Z:     0.0003     Total:     3.3119

*** Psi4 exiting successfully. Buy a developer a beer!
