                               Psi4 1.4a3.dev225

  ==> Input File <==

--------------------------------------------------------------------------
#psi4
#
memory 32 gb

molecule  {
0 1
  O        2.7820080    -0.8809860    -0.0002600
  C       -0.3718440     0.9737870     0.0000910
  C        0.4988075     0.0273041    -0.0000557
  C       -1.7466600     0.7087270     0.0002000
  C        0.0166350    -1.4400920    -0.0001140
  C        0.1123110     2.4052290     0.0001630
  C       -2.2387310    -0.5972210     0.0001460
  C       -1.3536090    -1.6782430    -0.0000090
  C        1.9816290     0.0523060    -0.0001740
  H       -2.4458080     1.5430760     0.0003180
  H        0.7339320    -2.2568560    -0.0002320
  H        0.7165080     2.6337130    -0.8832360
  H       -0.7427470     3.0862090     0.0002150
  H        0.7165360     2.6336080     0.8835710
  H       -3.3126640    -0.7693710     0.0002300
  H       -1.7319890    -2.6973870    -0.0000530
  H        2.3545140     1.0932780    -0.0001810
units angstrom
no_reorient  #important for SAPT in psi4, default
symmetry c1  #important for SAPT in psi4, default
}

set PROPERTIES_ORIGIN ["COM"]
properties('MP2/aug-cc-pvtz', properties = ['dipole'])
--------------------------------------------------------------------------

    Molecular point group: c1
  Charge       = 0
  Multiplicity = 1
  Basis Set: AUG-CC-PVTZ
    Blend: AUG-CC-PVTZ
  Basis Set: (AUG-CC-PVTZ AUX)
    Blend: AUG-CC-PVTZ-JKFIT

    Orbital Energies [Eh]
    ---------------------

    Doubly Occupied:

       1A    -20.557135     2A    -11.338752     3A    -11.262901
       4A    -11.259872     5A    -11.258440     6A    -11.248485
       7A    -11.246711     8A    -11.243941     9A    -11.240702
      10A     -1.378727    11A     -1.179198    12A     -1.077137
      13A     -1.025631    14A     -0.956247    15A     -0.893314
      16A     -0.835558    17A     -0.780347    18A     -0.703845
      19A     -0.682291    20A     -0.645791    21A     -0.620463
      22A     -0.602588    23A     -0.600965    24A     -0.588102
      25A     -0.552602    26A     -0.538150    27A     -0.525804
      28A     -0.493324    29A     -0.492292    30A     -0.418817
      31A     -0.365240    32A     -0.333937

  @DF-RHF Final Energy:  -382.56346111423358

   => Energetics <=

    Nuclear Repulsion Energy =            402.1658467268926529
    One-Electron Energy =               -1315.5639969357539485
    Two-Electron Energy =                 530.8346890946277199
    Total Energy =                       -382.5634611142336325
  Basis Set: (AUG-CC-PVTZ AUX)
    Blend: AUG-CC-PVTZ-RI
    Molecular point group: c1

    Geometry (in Angstrom), charge = 0, multiplicity = 1:

       Center              X                  Y                   Z               Mass
    ------------   -----------------  -----------------  -----------------  -----------------
         O            2.752524796707    -0.852980656711    -0.000255384442    15.994914619570
         C           -0.401327203293     1.001792343289     0.000095615558    12.000000000000
         C            0.469324296707     0.055309443289    -0.000051084442    12.000000000000
         C           -1.776143203293     0.736732343289     0.000204615558    12.000000000000
         C           -0.012848203293    -1.412086656711    -0.000109384442    12.000000000000
         C            0.082827796707     2.433234343289     0.000167615558    12.000000000000
         C           -2.268214203293    -0.569215656711     0.000150615558    12.000000000000
         C           -1.383092203293    -1.650237656711    -0.000004384442    12.000000000000
         C            1.952145796707     0.080311343289    -0.000169384442    12.000000000000
         H           -2.475291203293     1.571081343289     0.000322615558     1.007825032230
         H            0.704448796707    -2.228850656711    -0.000227384442     1.007825032230
         H            0.687024796707     2.661718343289    -0.883231384442     1.007825032230
         H           -0.772230203293     3.114214343289     0.000219615558     1.007825032230
         H            0.687052796707     2.661613343289     0.883575615558     1.007825032230
         H           -3.342147203293    -0.741365656711     0.000234615558     1.007825032230
         H           -1.761472203293    -2.669381656711    -0.000048384442     1.007825032230
         H            2.325030796707     1.121283343289    -0.000176384442     1.007825032230

  Basis Set: AUG-CC-PVTZ
    Blend: AUG-CC-PVTZ
  Basis Set: (AUG-CC-PVTZ AUX)
    Blend: AUG-CC-PVTZ-JKFIT
	 Reference Energy          =    -382.5634611142335757 [Eh]
	 Singles Energy            =      -0.0000000000000000 [Eh]
	 Same-Spin Energy          =      -0.4081748582347379 [Eh]
	 Opposite-Spin Energy      =      -1.2885348432295158 [Eh]
	 Correlation Energy        =      -1.6967097014642536 [Eh]
	 Total Energy              =    -384.2601708156978475 [Eh]

	 ================> DF-SCS-MP2 Energies <==================
	-----------------------------------------------------------
	 SCS Same-Spin Scale       =       0.3333333333333333 [-]
	 SCS Opposite-Spin Scale   =       1.2000000000000000 [-]
	 SCS Same-Spin Energy      =      -0.1360582860782459 [Eh]
	 SCS Opposite-Spin Energy  =      -1.5462418118754189 [Eh]
	 SCS Correlation Energy    =      -1.6823000979536649 [Eh]
	 SCS Total Energy          =    -384.2457612121872330 [Eh]
	-----------------------------------------------------------

  Dipole Moment: [D]
     X:    -2.8040      Y:     1.7825      Z:     0.0003     Total:     3.3226

*** Psi4 exiting successfully. Buy a developer a beer!
