                               Psi4 1.4a3.dev225

  ==> Input File <==

--------------------------------------------------------------------------
#psi4
#
memory 32 gb

molecule  {
0 1
  O        2.7820080    -0.8809860    -0.0002600
  C       -0.3718440     0.9737870     0.0000910
  C        0.5095440    -0.1275560    -0.0000600
  C       -1.7013828     0.6907584     0.0001946
  C        0.0166350    -1.4400920    -0.0001140
  C        0.1123110     2.4052290     0.0001630
  C       -2.2387310    -0.5972210     0.0001460
  C       -1.3536090    -1.6782430    -0.0000090
  C        1.9816290     0.0523060    -0.0001740
  H       -2.4458080     1.5430760     0.0003180
  H        0.7339320    -2.2568560    -0.0002320
  H        0.7165080     2.6337130    -0.8832360
  H       -0.7427470     3.0862090     0.0002150
  H        0.7165360     2.6336080     0.8835710
  H       -3.3126640    -0.7693710     0.0002300
  H       -1.7319890    -2.6973870    -0.0000530
  H        2.3545140     1.0932780    -0.0001810
units angstrom
no_reorient  #important for SAPT in psi4, default
symmetry c1  #important for SAPT in psi4, default
}

set PROPERTIES_ORIGIN ["COM"]
properties('MP2/aug-cc-pvtz', properties = ['dipole'])
--------------------------------------------------------------------------

    Molecular point group: c1
  Charge       = 0
  Multiplicity = 1
  Basis Set: AUG-CC-PVTZ
    Blend: AUG-CC-PVTZ
  Basis Set: (AUG-CC-PVTZ AUX)
    Blend: AUG-CC-PVTZ-JKFIT

    Orbital Energies [Eh]
    ---------------------

    Doubly Occupied:

       1A    -20.551992     2A    -11.334569     3A    -11.264408
       4A    -11.257812     5A    -11.252049     6A    -11.248800
       7A    -11.244786     8A    -11.244682     9A    -11.243626
      10A     -1.376691    11A     -1.176609    12A     -1.067196
      13A     -1.039645    14A     -0.955853    15A     -0.893267
      16A     -0.819836    17A     -0.786664    18A     -0.709336
      19A     -0.673989    20A     -0.645755    21A     -0.616274
      22A     -0.605394    23A     -0.598306    24A     -0.587185
      25A     -0.555454    26A     -0.538662    27A     -0.525304
      28A     -0.494454    29A     -0.493665    30A     -0.425590
      31A     -0.349069    32A     -0.345890

  @DF-RHF Final Energy:  -382.59117723944109

   => Energetics <=

    Nuclear Repulsion Energy =            402.8054305660411387
    One-Electron Energy =               -1316.9475835858024766
    Two-Electron Energy =                 531.5509757803201865
    Total Energy =                       -382.5911772394410946
  Basis Set: (AUG-CC-PVTZ AUX)
    Blend: AUG-CC-PVTZ-RI
    Molecular point group: c1

    Geometry (in Angstrom), charge = 0, multiplicity = 1:

       Center              X                  Y                   Z               Mass
    ------------   -----------------  -----------------  -----------------  -----------------
         O            2.746926110105    -0.835706066261    -0.000254414907    15.994914619570
         C           -0.406925889895     1.019066933739     0.000096585093    12.000000000000
         C            0.474462110105    -0.082276066261    -0.000054414907    12.000000000000
         C           -1.736464689895     0.736038333739     0.000200185093    12.000000000000
         C           -0.018446889895    -1.394812066261    -0.000108414907    12.000000000000
         C            0.077229110105     2.450508933739     0.000168585093    12.000000000000
         C           -2.273812889895    -0.551941066261     0.000151585093    12.000000000000
         C           -1.388690889895    -1.632963066261    -0.000003414907    12.000000000000
         C            1.946547110105     0.097585933739    -0.000168414907    12.000000000000
         H           -2.480889889895     1.588355933739     0.000323585093     1.007825032230
         H            0.698850110105    -2.211576066261    -0.000226414907     1.007825032230
         H            0.681426110105     2.678992933739    -0.883230414907     1.007825032230
         H           -0.777828889895     3.131488933739     0.000220585093     1.007825032230
         H            0.681454110105     2.678887933739     0.883576585093     1.007825032230
         H           -3.347745889895    -0.724091066261     0.000235585093     1.007825032230
         H           -1.767070889895    -2.652107066261    -0.000047414907     1.007825032230
         H            2.319432110105     1.138557933739    -0.000175414907     1.007825032230

  Basis Set: AUG-CC-PVTZ
    Blend: AUG-CC-PVTZ
  Basis Set: (AUG-CC-PVTZ AUX)
    Blend: AUG-CC-PVTZ-JKFIT
	 Reference Energy          =    -382.5911772394410946 [Eh]
	 Singles Energy            =      -0.0000000000000000 [Eh]
	 Same-Spin Energy          =      -0.4086708472748742 [Eh]
	 Opposite-Spin Energy      =      -1.2872116127044553 [Eh]
	 Correlation Energy        =      -1.6958824599793294 [Eh]
	 Total Energy              =    -384.2870596994204107 [Eh]

	 ================> DF-SCS-MP2 Energies <==================
	-----------------------------------------------------------
	 SCS Same-Spin Scale       =       0.3333333333333333 [-]
	 SCS Opposite-Spin Scale   =       1.2000000000000000 [-]
	 SCS Same-Spin Energy      =      -0.1362236157582914 [Eh]
	 SCS Opposite-Spin Energy  =      -1.5446539352453463 [Eh]
	 SCS Correlation Energy    =      -1.6808775510036378 [Eh]
	 SCS Total Energy          =    -384.2720547904447130 [Eh]
	-----------------------------------------------------------

  Dipole Moment: [D]
     X:    -2.7091      Y:     1.8461      Z:     0.0003     Total:     3.2783

*** Psi4 exiting successfully. Buy a developer a beer!
