                               Psi4 1.4a3.dev225

  ==> Input File <==

--------------------------------------------------------------------------
#psi4
#
memory 32 gb

molecule  {
0 1
  O        2.7820080    -0.8809860    -0.0002600
  C       -0.3718440     0.9737870     0.0000910
  C        0.5095440    -0.1275560    -0.0000600
  C       -1.7248214     0.6134704     0.0001901
  C        0.0166350    -1.4400920    -0.0001140
  C        0.1123110     2.4052290     0.0001630
  C       -2.2387310    -0.5972210     0.0001460
  C       -1.3536090    -1.6782430    -0.0000090
  C        1.9816290     0.0523060    -0.0001740
  H       -2.4458080     1.5430760     0.0003180
  H        0.7339320    -2.2568560    -0.0002320
  H        0.7165080     2.6337130    -0.8832360
  H       -0.7427470     3.0862090     0.0002150
  H        0.7165360     2.6336080     0.8835710
  H       -3.3126640    -0.7693710     0.0002300
  H       -1.7319890    -2.6973870    -0.0000530
  H        2.3545140     1.0932780    -0.0001810
units angstrom
no_reorient  #important for SAPT in psi4, default
symmetry c1  #important for SAPT in psi4, default
}

set PROPERTIES_ORIGIN ["COM"]
properties('MP2/aug-cc-pvtz', properties = ['dipole'])
--------------------------------------------------------------------------

    Molecular point group: c1
  Charge       = 0
  Multiplicity = 1
  Basis Set: AUG-CC-PVTZ
    Blend: AUG-CC-PVTZ
  Basis Set: (AUG-CC-PVTZ AUX)
    Blend: AUG-CC-PVTZ-JKFIT

    Orbital Energies [Eh]
    ---------------------

    Doubly Occupied:

       1A    -20.553253     2A    -11.334859     3A    -11.270978
       4A    -11.249555     5A    -11.248248     6A    -11.247118
       7A    -11.246963     8A    -11.244461     9A    -11.243697
      10A     -1.377622    11A     -1.179966    12A     -1.069670
      13A     -1.042811    14A     -0.958047    15A     -0.891400
      16A     -0.824193    17A     -0.781589    18A     -0.711362
      19A     -0.675049    20A     -0.646324    21A     -0.618416
      22A     -0.603485    23A     -0.599727    24A     -0.582983
      25A     -0.555159    26A     -0.539900    27A     -0.527739
      28A     -0.498299    29A     -0.487304    30A     -0.425392
      31A     -0.357345    32A     -0.339834

  @DF-RHF Final Energy:  -382.58144598270803

   => Energetics <=

    Nuclear Repulsion Energy =            403.2771731886707016
    One-Electron Energy =               -1317.8517330633592337
    Two-Electron Energy =                 531.9931138919804425
    Total Energy =                       -382.5814459827080327
  Basis Set: (AUG-CC-PVTZ AUX)
    Blend: AUG-CC-PVTZ-RI
    Molecular point group: c1

    Geometry (in Angstrom), charge = 0, multiplicity = 1:

       Center              X                  Y                   Z               Mass
    ------------   -----------------  -----------------  -----------------  -----------------
         O            2.749268847253    -0.827980968828    -0.000253965123    15.994914619570
         C           -0.404583152747     1.026792031172     0.000097034877    12.000000000000
         C            0.476804847253    -0.074550968828    -0.000053965123    12.000000000000
         C           -1.757560552747     0.666475431172     0.000196134877    12.000000000000
         C           -0.016104152747    -1.387086968828    -0.000107965123    12.000000000000
         C            0.079571847253     2.458234031172     0.000169034877    12.000000000000
         C           -2.271470152747    -0.544215968828     0.000152034877    12.000000000000
         C           -1.386348152747    -1.625237968828    -0.000002965123    12.000000000000
         C            1.948889847253     0.105311031172    -0.000167965123    12.000000000000
         H           -2.478547152747     1.596081031172     0.000324034877     1.007825032230
         H            0.701192847253    -2.203850968828    -0.000225965123     1.007825032230
         H            0.683768847253     2.686718031172    -0.883229965123     1.007825032230
         H           -0.775486152747     3.139214031172     0.000221034877     1.007825032230
         H            0.683796847253     2.686613031172     0.883577034877     1.007825032230
         H           -3.345403152747    -0.716365968828     0.000236034877     1.007825032230
         H           -1.764728152747    -2.644381968828    -0.000046965123     1.007825032230
         H            2.321774847253     1.146283031172    -0.000174965123     1.007825032230

  Basis Set: AUG-CC-PVTZ
    Blend: AUG-CC-PVTZ
  Basis Set: (AUG-CC-PVTZ AUX)
    Blend: AUG-CC-PVTZ-JKFIT
	 Reference Energy          =    -382.5814459827080327 [Eh]
	 Singles Energy            =      -0.0000000000000000 [Eh]
	 Same-Spin Energy          =      -0.4088798932553868 [Eh]
	 Opposite-Spin Energy      =      -1.2874884146448717 [Eh]
	 Correlation Energy        =      -1.6963683079002585 [Eh]
	 Total Energy              =    -384.2778142906083190 [Eh]

	 ================> DF-SCS-MP2 Energies <==================
	-----------------------------------------------------------
	 SCS Same-Spin Scale       =       0.3333333333333333 [-]
	 SCS Opposite-Spin Scale   =       1.2000000000000000 [-]
	 SCS Same-Spin Energy      =      -0.1362932977517956 [Eh]
	 SCS Opposite-Spin Energy  =      -1.5449860975738461 [Eh]
	 SCS Correlation Energy    =      -1.6812793953256417 [Eh]
	 SCS Total Energy          =    -384.2627253780336787 [Eh]
	-----------------------------------------------------------

  Dipole Moment: [D]
     X:    -2.6412      Y:     1.8787      Z:     0.0003     Total:     3.2412

*** Psi4 exiting successfully. Buy a developer a beer!
