                               Psi4 1.4a3.dev225

  ==> Input File <==

--------------------------------------------------------------------------
#psi4
#
memory 32 gb

molecule  {
0 1
  O        2.7820080    -0.8809860    -0.0002600
  C       -0.3718440     0.9737870     0.0000910
  C        0.5095440    -0.1275560    -0.0000600
  C       -1.7695269     0.7171159     0.0002027
  C        0.0166350    -1.4400920    -0.0001140
  C        0.1123110     2.4052290     0.0001630
  C       -2.2387310    -0.5972210     0.0001460
  C       -1.3536090    -1.6782430    -0.0000090
  C        1.9816290     0.0523060    -0.0001740
  H       -2.4458080     1.5430760     0.0003180
  H        0.7339320    -2.2568560    -0.0002320
  H        0.7165080     2.6337130    -0.8832360
  H       -0.7427470     3.0862090     0.0002150
  H        0.7165360     2.6336080     0.8835710
  H       -3.3126640    -0.7693710     0.0002300
  H       -1.7319890    -2.6973870    -0.0000530
  H        2.3545140     1.0932780    -0.0001810
units angstrom
no_reorient  #important for SAPT in psi4, default
symmetry c1  #important for SAPT in psi4, default
}

set PROPERTIES_ORIGIN ["COM"]
properties('MP2/aug-cc-pvtz', properties = ['dipole'])
--------------------------------------------------------------------------

    Molecular point group: c1
  Charge       = 0
  Multiplicity = 1
  Basis Set: AUG-CC-PVTZ
    Blend: AUG-CC-PVTZ
  Basis Set: (AUG-CC-PVTZ AUX)
    Blend: AUG-CC-PVTZ-JKFIT

    Orbital Energies [Eh]
    ---------------------

    Doubly Occupied:

       1A    -20.552176     2A    -11.335046     3A    -11.272925
       4A    -11.257596     5A    -11.252424     6A    -11.248748
       7A    -11.246197     8A    -11.244188     9A    -11.243910
      10A     -1.376930    11A     -1.169912    12A     -1.064600
      13A     -1.039987    14A     -0.955119    15A     -0.888510
      16A     -0.822979    17A     -0.787322    18A     -0.708484
      19A     -0.673511    20A     -0.644975    21A     -0.620552
      22A     -0.610569    23A     -0.597234    24A     -0.584897
      25A     -0.560044    26A     -0.538353    27A     -0.515243
      28A     -0.505759    29A     -0.490568    30A     -0.425421
      31A     -0.349614    32A     -0.340700

  @DF-RHF Final Energy:  -382.59344361974655

   => Energetics <=

    Nuclear Repulsion Energy =            401.5357341849096997
    One-Electron Energy =               -1314.4093702944312554
    Two-Electron Energy =                 530.2801924897751178
    Total Energy =                       -382.5934436197464947
  Basis Set: (AUG-CC-PVTZ AUX)
    Blend: AUG-CC-PVTZ-RI
    Molecular point group: c1

    Geometry (in Angstrom), charge = 0, multiplicity = 1:

       Center              X                  Y                   Z               Mass
    ------------   -----------------  -----------------  -----------------  -----------------
         O            2.753737255587    -0.838340553576    -0.000255224519    15.994914619570
         C           -0.400114744413     1.016432446424     0.000095775481    12.000000000000
         C            0.481273255587    -0.084910553576    -0.000055224519    12.000000000000
         C           -1.797797644413     0.759761346424     0.000207475481    12.000000000000
         C           -0.011635744413    -1.397446553576    -0.000109224519    12.000000000000
         C            0.084040255587     2.447874446424     0.000167775481    12.000000000000
         C           -2.267001744413    -0.554575553576     0.000150775481    12.000000000000
         C           -1.381879744413    -1.635597553576    -0.000004224519    12.000000000000
         C            1.953358255587     0.094951446424    -0.000169224519    12.000000000000
         H           -2.474078744413     1.585721446424     0.000322775481     1.007825032230
         H            0.705661255587    -2.214210553576    -0.000227224519     1.007825032230
         H            0.688237255587     2.676358446424    -0.883231224519     1.007825032230
         H           -0.771017744413     3.128854446424     0.000219775481     1.007825032230
         H            0.688265255587     2.676253446424     0.883575775481     1.007825032230
         H           -3.340934744413    -0.726725553576     0.000234775481     1.007825032230
         H           -1.760259744413    -2.654741553576    -0.000048224519     1.007825032230
         H            2.326243255587     1.135923446424    -0.000176224519     1.007825032230

  Basis Set: AUG-CC-PVTZ
    Blend: AUG-CC-PVTZ
  Basis Set: (AUG-CC-PVTZ AUX)
    Blend: AUG-CC-PVTZ-JKFIT
	 Reference Energy          =    -382.5934436197465516 [Eh]
	 Singles Energy            =      -0.0000000000000000 [Eh]
	 Same-Spin Energy          =      -0.4083852879728945 [Eh]
	 Opposite-Spin Energy      =      -1.2870284467345818 [Eh]
	 Correlation Energy        =      -1.6954137347074765 [Eh]
	 Total Energy              =    -384.2888573544540236 [Eh]

	 ================> DF-SCS-MP2 Energies <==================
	-----------------------------------------------------------
	 SCS Same-Spin Scale       =       0.3333333333333333 [-]
	 SCS Opposite-Spin Scale   =       1.2000000000000000 [-]
	 SCS Same-Spin Energy      =      -0.1361284293242982 [Eh]
	 SCS Opposite-Spin Energy  =      -1.5444341360814982 [Eh]
	 SCS Correlation Energy    =      -1.6805625654057963 [Eh]
	 SCS Total Energy          =    -384.2740061851523592 [Eh]
	-----------------------------------------------------------

  Dipole Moment: [D]
     X:    -2.7164      Y:     1.9029      Z:     0.0003     Total:     3.3166

*** Psi4 exiting successfully. Buy a developer a beer!
