                               Psi4 1.4a3.dev225

  ==> Input File <==

--------------------------------------------------------------------------
#psi4
#
memory 32 gb

molecule  {
0 1
  O        2.7820080    -0.8809860    -0.0002600
  C       -0.3718440     0.9737870     0.0000910
  C        0.5095440    -0.1275560    -0.0000600
  C       -1.7466600     0.7087270     0.0002000
  C        0.0166350    -1.4400920    -0.0001140
  C        0.1123110     2.4052290     0.0001630
  C       -2.2387310    -0.5972210     0.0001460
  C       -1.3536090    -1.6782430    -0.0000090
  C        1.9816290     0.0523060    -0.0001740
  H       -2.4458080     1.5430760     0.0003180
  H        0.8659066    -2.4071314    -0.0002537
  H        0.7165080     2.6337130    -0.8832360
  H       -0.7427470     3.0862090     0.0002150
  H        0.7165360     2.6336080     0.8835710
  H       -3.3126640    -0.7693710     0.0002300
  H       -1.7319890    -2.6973870    -0.0000530
  H        2.3545140     1.0932780    -0.0001810
units angstrom
no_reorient  #important for SAPT in psi4, default
symmetry c1  #important for SAPT in psi4, default
}

set PROPERTIES_ORIGIN ["COM"]
properties('MP2/aug-cc-pvtz', properties = ['dipole'])
--------------------------------------------------------------------------

    Molecular point group: c1
  Charge       = 0
  Multiplicity = 1
  Basis Set: AUG-CC-PVTZ
    Blend: AUG-CC-PVTZ
  Basis Set: (AUG-CC-PVTZ AUX)
    Blend: AUG-CC-PVTZ-JKFIT

    Orbital Energies [Eh]
    ---------------------

    Doubly Occupied:

       1A    -20.551852     2A    -11.334929     3A    -11.271063
       4A    -11.271004     5A    -11.258356     6A    -11.250301
       7A    -11.245905     8A    -11.245437     9A    -11.244301
      10A     -1.376568    11A     -1.171968    12A     -1.065374
      13A     -1.036742    14A     -0.955098    15A     -0.887802
      16A     -0.814271    17A     -0.786494    18A     -0.707433
      19A     -0.668509    20A     -0.639325    21A     -0.616524
      22A     -0.599744    23A     -0.597993    24A     -0.578167
      25A     -0.558806    26A     -0.538459    27A     -0.516909
      28A     -0.491940    29A     -0.486992    30A     -0.425151
      31A     -0.349465    32A     -0.343236

  @DF-RHF Final Energy:  -382.57129552559587

   => Energetics <=

    Nuclear Repulsion Energy =            401.0726106376101825
    One-Electron Energy =               -1313.5155750446815546
    Two-Electron Energy =                 529.8716688814755571
    Total Energy =                       -382.5712955255958150
  Basis Set: (AUG-CC-PVTZ AUX)
    Blend: AUG-CC-PVTZ-RI
    Molecular point group: c1

    Geometry (in Angstrom), charge = 0, multiplicity = 1:

       Center              X                  Y                   Z               Mass
    ------------   -----------------  -----------------  -----------------  -----------------
         O            2.750343797827    -0.836240575827    -0.000254772487    15.994914619570
         C           -0.403508202173     1.018532424173     0.000096227513    12.000000000000
         C            0.477879797827    -0.082810575827    -0.000054772487    12.000000000000
         C           -1.778324202173     0.753472424173     0.000205227513    12.000000000000
         C           -0.015029202173    -1.395346575827    -0.000108772487    12.000000000000
         C            0.080646797827     2.449974424173     0.000168227513    12.000000000000
         C           -2.270395202173    -0.552475575827     0.000151227513    12.000000000000
         C           -1.385273202173    -1.633497575827    -0.000003772487    12.000000000000
         C            1.949964797827     0.097051424173    -0.000168772487    12.000000000000
         H           -2.477472202173     1.587821424173     0.000323227513     1.007825032230
         H            0.834242397827    -2.362385975827    -0.000248472487     1.007825032230
         H            0.684843797827     2.678458424173    -0.883230772487     1.007825032230
         H           -0.774411202173     3.130954424173     0.000220227513     1.007825032230
         H            0.684871797827     2.678353424173     0.883576227513     1.007825032230
         H           -3.344328202173    -0.724625575827     0.000235227513     1.007825032230
         H           -1.763653202173    -2.652641575827    -0.000047772487     1.007825032230
         H            2.322849797827     1.138023424173    -0.000175772487     1.007825032230

  Basis Set: AUG-CC-PVTZ
    Blend: AUG-CC-PVTZ
  Basis Set: (AUG-CC-PVTZ AUX)
    Blend: AUG-CC-PVTZ-JKFIT
	 Reference Energy          =    -382.5712955255958718 [Eh]
	 Singles Energy            =      -0.0000000000000000 [Eh]
	 Same-Spin Energy          =      -0.4093376053949674 [Eh]
	 Opposite-Spin Energy      =      -1.2895092608277046 [Eh]
	 Correlation Energy        =      -1.6988468662226719 [Eh]
	 Total Energy              =    -384.2701423918185242 [Eh]

	 ================> DF-SCS-MP2 Energies <==================
	-----------------------------------------------------------
	 SCS Same-Spin Scale       =       0.3333333333333333 [-]
	 SCS Opposite-Spin Scale   =       1.2000000000000000 [-]
	 SCS Same-Spin Energy      =      -0.1364458684649891 [Eh]
	 SCS Opposite-Spin Energy  =      -1.5474111129932455 [Eh]
	 SCS Correlation Energy    =      -1.6838569814582347 [Eh]
	 SCS Total Energy          =    -384.2551525070541061 [Eh]
	-----------------------------------------------------------

  Dipole Moment: [D]
     X:    -2.6986      Y:     1.9185      Z:     0.0003     Total:     3.3110

*** Psi4 exiting successfully. Buy a developer a beer!
