                               Psi4 1.4a3.dev225

  ==> Input File <==

--------------------------------------------------------------------------
#psi4
#
memory 32 gb

molecule  {
0 1
  O        2.7820080    -0.8809860    -0.0002600
  C       -0.3718440     0.9737870     0.0000910
  C        0.5095440    -0.1275560    -0.0000600
  C       -1.7466600     0.7087270     0.0002000
  C        0.0166350    -1.4400920    -0.0001140
  C        0.1123110     2.4052290     0.0001630
  C       -2.2387310    -0.5972210     0.0001460
  C       -1.3339044    -1.6748183    -0.0000105
  C        1.9816290     0.0523060    -0.0001740
  H       -2.4458080     1.5430760     0.0003180
  H        0.7339320    -2.2568560    -0.0002320
  H        0.7165080     2.6337130    -0.8832360
  H       -0.7427470     3.0862090     0.0002150
  H        0.7165360     2.6336080     0.8835710
  H       -3.3126640    -0.7693710     0.0002300
  H       -1.7319890    -2.6973870    -0.0000530
  H        2.3545140     1.0932780    -0.0001810
units angstrom
no_reorient  #important for SAPT in psi4, default
symmetry c1  #important for SAPT in psi4, default
}

set PROPERTIES_ORIGIN ["COM"]
properties('MP2/aug-cc-pvtz', properties = ['dipole'])
--------------------------------------------------------------------------

    Molecular point group: c1
  Charge       = 0
  Multiplicity = 1
  Basis Set: AUG-CC-PVTZ
    Blend: AUG-CC-PVTZ
  Basis Set: (AUG-CC-PVTZ AUX)
    Blend: AUG-CC-PVTZ-JKFIT

    Orbital Energies [Eh]
    ---------------------

    Doubly Occupied:

       1A    -20.551983     2A    -11.334667     3A    -11.270362
       4A    -11.258858     5A    -11.249591     6A    -11.248306
       7A    -11.245894     8A    -11.243882     9A    -11.243826
      10A     -1.376711    11A     -1.172877    12A     -1.065654
      13A     -1.040420    14A     -0.955901    15A     -0.889910
      16A     -0.820885    17A     -0.787602    18A     -0.708191
      19A     -0.674009    20A     -0.644618    21A     -0.618409
      22A     -0.608592    23A     -0.597672    24A     -0.585811
      25A     -0.558777    26A     -0.538585    27A     -0.520953
      28A     -0.499576    29A     -0.491968    30A     -0.425380
      31A     -0.349446    32A     -0.343229

  @DF-RHF Final Energy:  -382.59379390055216

   => Energetics <=

    Nuclear Repulsion Energy =            402.1808992987896545
    One-Electron Energy =               -1315.7042979349407688
    Two-Electron Energy =                 530.9296047355990140
    Total Energy =                       -382.5937939005521002
  Basis Set: (AUG-CC-PVTZ AUX)
    Blend: AUG-CC-PVTZ-RI
    Molecular point group: c1

    Geometry (in Angstrom), charge = 0, multiplicity = 1:

       Center              X                  Y                   Z               Mass
    ------------   -----------------  -----------------  -----------------  -----------------
         O            2.749482145021    -0.837844371391    -0.000254804720    15.994914619570
         C           -0.404369854979     1.016928628609     0.000096195280    12.000000000000
         C            0.477018145021    -0.084414371391    -0.000054804720    12.000000000000
         C           -1.779185854979     0.751868628609     0.000205195280    12.000000000000
         C           -0.015890854979    -1.396950371391    -0.000108804720    12.000000000000
         C            0.079785145021     2.448370628609     0.000168195280    12.000000000000
         C           -2.271256854979    -0.554079371391     0.000151195280    12.000000000000
         C           -1.366430254979    -1.631676671391    -0.000005304720    12.000000000000
         C            1.949103145021     0.095447628609    -0.000168804720    12.000000000000
         H           -2.478333854979     1.586217628609     0.000323195280     1.007825032230
         H            0.701406145021    -2.213714371391    -0.000226804720     1.007825032230
         H            0.683982145021     2.676854628609    -0.883230804720     1.007825032230
         H           -0.775272854979     3.129350628609     0.000220195280     1.007825032230
         H            0.684010145021     2.676749628609     0.883576195280     1.007825032230
         H           -3.345189854979    -0.726229371391     0.000235195280     1.007825032230
         H           -1.764514854979    -2.654245371391    -0.000047804720     1.007825032230
         H            2.321988145021     1.136419628609    -0.000175804720     1.007825032230

  Basis Set: AUG-CC-PVTZ
    Blend: AUG-CC-PVTZ
  Basis Set: (AUG-CC-PVTZ AUX)
    Blend: AUG-CC-PVTZ-JKFIT
	 Reference Energy          =    -382.5937939005521571 [Eh]
	 Singles Energy            =      -0.0000000000000000 [Eh]
	 Same-Spin Energy          =      -0.4084864134348021 [Eh]
	 Opposite-Spin Energy      =      -1.2870236596325766 [Eh]
	 Correlation Energy        =      -1.6955100730673787 [Eh]
	 Total Energy              =    -384.2893039736195533 [Eh]

	 ================> DF-SCS-MP2 Energies <==================
	-----------------------------------------------------------
	 SCS Same-Spin Scale       =       0.3333333333333333 [-]
	 SCS Opposite-Spin Scale   =       1.2000000000000000 [-]
	 SCS Same-Spin Energy      =      -0.1361621378116007 [Eh]
	 SCS Opposite-Spin Energy  =      -1.5444283915590920 [Eh]
	 SCS Correlation Energy    =      -1.6805905293706926 [Eh]
	 SCS Total Energy          =    -384.2743844299228613 [Eh]
	-----------------------------------------------------------

  Dipole Moment: [D]
     X:    -2.7265      Y:     1.8996      Z:     0.0003     Total:     3.3230

*** Psi4 exiting successfully. Buy a developer a beer!
