                               Psi4 1.4a3.dev225

  ==> Input File <==

--------------------------------------------------------------------------
#psi4
#
memory 32 gb

molecule  {
0 1
  O        2.7820080    -0.8809860    -0.0002600
  C       -0.3718440     0.9737870     0.0000910
  C        0.5095440    -0.1275560    -0.0000600
  C       -1.7466600     0.7087270     0.0002000
  C        0.0166350    -1.4400920    -0.0001140
  C        0.1123110     2.4052290     0.0001630
  C       -2.2387310    -0.5972210     0.0001460
  C       -1.3536090    -1.6782430    -0.0000090
  C        1.9816290     0.0523060    -0.0001740
  H       -2.4458080     1.5430760     0.0003180
  H        0.7339320    -2.2568560    -0.0002320
  H        0.7165080     2.6337130    -0.8832360
  H       -0.7271023     3.0737493     0.0002140
  H        0.7165360     2.6336080     0.8835710
  H       -3.3126640    -0.7693710     0.0002300
  H       -1.7319890    -2.6973870    -0.0000530
  H        2.3545140     1.0932780    -0.0001810
units angstrom
no_reorient  #important for SAPT in psi4, default
symmetry c1  #important for SAPT in psi4, default
}

set PROPERTIES_ORIGIN ["COM"]
properties('MP2/aug-cc-pvtz', properties = ['dipole'])
--------------------------------------------------------------------------

    Molecular point group: c1
  Charge       = 0
  Multiplicity = 1
  Basis Set: AUG-CC-PVTZ
    Blend: AUG-CC-PVTZ
  Basis Set: (AUG-CC-PVTZ AUX)
    Blend: AUG-CC-PVTZ-JKFIT

    Orbital Energies [Eh]
    ---------------------

    Doubly Occupied:

       1A    -20.551997     2A    -11.334758     3A    -11.269957
       4A    -11.257565     5A    -11.252198     6A    -11.248589
       7A    -11.245633     8A    -11.244288     9A    -11.241401
      10A     -1.376737    11A     -1.171962    12A     -1.065708
      13A     -1.039908    14A     -0.956567    15A     -0.889906
      16A     -0.822219    17A     -0.787057    18A     -0.708514
      19A     -0.674193    20A     -0.644900    21A     -0.618817
      22A     -0.609344    23A     -0.597314    24A     -0.585541
      25A     -0.562004    26A     -0.538304    27A     -0.518849
      28A     -0.502530    29A     -0.491463    30A     -0.425419
      31A     -0.348931    32A     -0.342666

  @DF-RHF Final Energy:  -382.59432366096308

   => Energetics <=

    Nuclear Repulsion Energy =            402.0420035628480946
    One-Electron Energy =               -1315.4221778161140719
    Two-Electron Energy =                 530.7858505923028360
    Total Energy =                       -382.5943236609631413
  Basis Set: (AUG-CC-PVTZ AUX)
    Blend: AUG-CC-PVTZ-RI
    Molecular point group: c1

    Geometry (in Angstrom), charge = 0, multiplicity = 1:

       Center              X                  Y                   Z               Mass
    ------------   -----------------  -----------------  -----------------  -----------------
         O            2.751320331327    -0.837397472273    -0.000254946254    15.994914619570
         C           -0.402531668673     1.017375527727     0.000096053746    12.000000000000
         C            0.478856331327    -0.083967472273    -0.000054946254    12.000000000000
         C           -1.777347668673     0.752315527727     0.000205053746    12.000000000000
         C           -0.014052668673    -1.396503472273    -0.000108946254    12.000000000000
         C            0.081623331327     2.448817527727     0.000168053746    12.000000000000
         C           -2.269418668673    -0.553632472273     0.000151053746    12.000000000000
         C           -1.384296668673    -1.634654472273    -0.000003946254    12.000000000000
         C            1.950941331327     0.095894527727    -0.000168946254    12.000000000000
         H           -2.476495668673     1.586664527727     0.000323053746     1.007825032230
         H            0.703244331327    -2.213267472273    -0.000226946254     1.007825032230
         H            0.685820331327     2.677301527727    -0.883230946254     1.007825032230
         H           -0.757789968673     3.117337827727     0.000219053746     1.007825032230
         H            0.685848331327     2.677196527727     0.883576053746     1.007825032230
         H           -3.343351668673    -0.725782472273     0.000235053746     1.007825032230
         H           -1.762676668673    -2.653798472273    -0.000047946254     1.007825032230
         H            2.323826331327     1.136866527727    -0.000175946254     1.007825032230

  Basis Set: AUG-CC-PVTZ
    Blend: AUG-CC-PVTZ
  Basis Set: (AUG-CC-PVTZ AUX)
    Blend: AUG-CC-PVTZ-JKFIT
	 Reference Energy          =    -382.5943236609630844 [Eh]
	 Singles Energy            =      -0.0000000000000000 [Eh]
	 Same-Spin Energy          =      -0.4084524761728945 [Eh]
	 Opposite-Spin Energy      =      -1.2868597551534127 [Eh]
	 Correlation Energy        =      -1.6953122313263072 [Eh]
	 Total Energy              =    -384.2896358922893683 [Eh]

	 ================> DF-SCS-MP2 Energies <==================
	-----------------------------------------------------------
	 SCS Same-Spin Scale       =       0.3333333333333333 [-]
	 SCS Opposite-Spin Scale   =       1.2000000000000000 [-]
	 SCS Same-Spin Energy      =      -0.1361508253909648 [Eh]
	 SCS Opposite-Spin Energy  =      -1.5442317061840951 [Eh]
	 SCS Correlation Energy    =      -1.6803825315750600 [Eh]
	 SCS Total Energy          =    -384.2747061925381331 [Eh]
	-----------------------------------------------------------

  Dipole Moment: [D]
     X:    -2.7213      Y:     1.8968      Z:     0.0003     Total:     3.3171

*** Psi4 exiting successfully. Buy a developer a beer!
