                               Psi4 1.4a3.dev225

  ==> Input File <==

--------------------------------------------------------------------------
#psi4
#
memory 32 gb

molecule  {
0 1
  O        2.7820080    -0.8809860    -0.0002600
  C       -0.3718440     0.9737870     0.0000910
  C        0.5364089    -0.2804455    -0.0000655
  C       -1.7466600     0.7087270     0.0002000
  C        0.0166350    -1.4400920    -0.0001140
  C        0.1123110     2.4052290     0.0001630
  C       -2.2387310    -0.5972210     0.0001460
  C       -1.3536090    -1.6782430    -0.0000090
  C        1.9816290     0.0523060    -0.0001740
  H       -2.4458080     1.5430760     0.0003180
  H        0.7339320    -2.2568560    -0.0002320
  H        0.7165080     2.6337130    -0.8832360
  H       -0.7427470     3.0862090     0.0002150
  H        0.7165360     2.6336080     0.8835710
  H       -3.3126640    -0.7693710     0.0002300
  H       -1.7319890    -2.6973870    -0.0000530
  H        2.3545140     1.0932780    -0.0001810
units angstrom
no_reorient  #important for SAPT in psi4, default
symmetry c1  #important for SAPT in psi4, default
}

set PROPERTIES_ORIGIN ["COM"]
properties('MP2/aug-cc-pvtz', properties = ['dipole'])
--------------------------------------------------------------------------

    Molecular point group: c1
  Charge       = 0
  Multiplicity = 1
  Basis Set: AUG-CC-PVTZ
    Blend: AUG-CC-PVTZ
  Basis Set: (AUG-CC-PVTZ AUX)
    Blend: AUG-CC-PVTZ-JKFIT

    Orbital Energies [Eh]
    ---------------------

    Doubly Occupied:

       1A    -20.551578     2A    -11.335715     3A    -11.276176
       4A    -11.254748     5A    -11.246670     6A    -11.245677
       7A    -11.243640     8A    -11.243047     9A    -11.234883
      10A     -1.379170    11A     -1.171022    12A     -1.061636
      13A     -1.049693    14A     -0.952319    15A     -0.889200
      16A     -0.821787    17A     -0.780627    18A     -0.715391
      19A     -0.665106    20A     -0.652525    21A     -0.626277
      22A     -0.603732    23A     -0.595283    24A     -0.581067
      25A     -0.561658    26A     -0.542660    27A     -0.521094
      28A     -0.491893    29A     -0.484838    30A     -0.425048
      31A     -0.366712    32A     -0.326206

  @DF-RHF Final Energy:  -382.56358579741266

   => Energetics <=

    Nuclear Repulsion Energy =            401.9485202705557754
    One-Electron Energy =               -1315.2300575782126089
    Two-Electron Energy =                 530.7179515102442338
    Total Energy =                       -382.5635857974126566
  Basis Set: (AUG-CC-PVTZ AUX)
    Blend: AUG-CC-PVTZ-RI
    Molecular point group: c1

    Geometry (in Angstrom), charge = 0, multiplicity = 1:

       Center              X                  Y                   Z               Mass
    ------------   -----------------  -----------------  -----------------  -----------------
         O            2.748766458044    -0.822220439795    -0.000254404912    15.994914619570
         C           -0.405085541956     1.032552560205     0.000096595088    12.000000000000
         C            0.503167358044    -0.221679939795    -0.000059904912    12.000000000000
         C           -1.779901541956     0.767492560205     0.000205595088    12.000000000000
         C           -0.016606541956    -1.381326439795    -0.000108404912    12.000000000000
         C            0.079069458044     2.463994560205     0.000168595088    12.000000000000
         C           -2.271972541956    -0.538455439795     0.000151595088    12.000000000000
         C           -1.386850541956    -1.619477439795    -0.000003404912    12.000000000000
         C            1.948387458044     0.111071560205    -0.000168404912    12.000000000000
         H           -2.479049541956     1.601841560205     0.000323595088     1.007825032230
         H            0.700690458044    -2.198090439795    -0.000226404912     1.007825032230
         H            0.683266458044     2.692478560205    -0.883230404912     1.007825032230
         H           -0.775988541956     3.144974560205     0.000220595088     1.007825032230
         H            0.683294458044     2.692373560205     0.883576595088     1.007825032230
         H           -3.345905541956    -0.710605439795     0.000235595088     1.007825032230
         H           -1.765230541956    -2.638621439795    -0.000047404912     1.007825032230
         H            2.321272458044     1.152043560205    -0.000175404912     1.007825032230

  Basis Set: AUG-CC-PVTZ
    Blend: AUG-CC-PVTZ
  Basis Set: (AUG-CC-PVTZ AUX)
    Blend: AUG-CC-PVTZ-JKFIT
	 Reference Energy          =    -382.5635857974126566 [Eh]
	 Singles Energy            =      -0.0000000000000000 [Eh]
	 Same-Spin Energy          =      -0.4081197531353951 [Eh]
	 Opposite-Spin Energy      =      -1.2880315093811849 [Eh]
	 Correlation Energy        =      -1.6961512625165800 [Eh]
	 Total Energy              =    -384.2597370599292503 [Eh]

	 ================> DF-SCS-MP2 Energies <==================
	-----------------------------------------------------------
	 SCS Same-Spin Scale       =       0.3333333333333333 [-]
	 SCS Opposite-Spin Scale   =       1.2000000000000000 [-]
	 SCS Same-Spin Energy      =      -0.1360399177117984 [Eh]
	 SCS Opposite-Spin Energy  =      -1.5456378112574218 [Eh]
	 SCS Correlation Energy    =      -1.6816777289692202 [Eh]
	 SCS Total Energy          =    -384.2452635263819047 [Eh]
	-----------------------------------------------------------

  Dipole Moment: [D]
     X:    -2.5490      Y:     1.9698      Z:     0.0003     Total:     3.2214

*** Psi4 exiting successfully. Buy a developer a beer!
