                               Psi4 1.4a3.dev225

  ==> Input File <==

--------------------------------------------------------------------------
#psi4
#
memory 32 gb

molecule  {
0 1
  O        2.7820080    -0.8809860    -0.0002600
  C       -0.3718440     0.9737870     0.0000910
  C        0.5095440    -0.1275560    -0.0000600
  C       -1.7466600     0.7087270     0.0002000
  C        0.0166350    -1.4400920    -0.0001140
  C        0.1123110     2.4052290     0.0001630
  C       -2.2387310    -0.5972210     0.0001460
  C       -1.3043475    -1.6696813    -0.0000128
  C        1.9816290     0.0523060    -0.0001740
  H       -2.4458080     1.5430760     0.0003180
  H        0.7339320    -2.2568560    -0.0002320
  H        0.7165080     2.6337130    -0.8832360
  H       -0.7427470     3.0862090     0.0002150
  H        0.7165360     2.6336080     0.8835710
  H       -3.3126640    -0.7693710     0.0002300
  H       -1.7319890    -2.6973870    -0.0000530
  H        2.3545140     1.0932780    -0.0001810
units angstrom
no_reorient  #important for SAPT in psi4, default
symmetry c1  #important for SAPT in psi4, default
}

set PROPERTIES_ORIGIN ["COM"]
properties('MP2/aug-cc-pvtz', properties = ['dipole'])
--------------------------------------------------------------------------

    Molecular point group: c1
  Charge       = 0
  Multiplicity = 1
  Basis Set: AUG-CC-PVTZ
    Blend: AUG-CC-PVTZ
  Basis Set: (AUG-CC-PVTZ AUX)
    Blend: AUG-CC-PVTZ-JKFIT

    Orbital Energies [Eh]
    ---------------------

    Doubly Occupied:

       1A    -20.551784     2A    -11.334339     3A    -11.270772
       4A    -11.260761     5A    -11.248539     6A    -11.246272
       7A    -11.244709     8A    -11.244037     9A    -11.242708
      10A     -1.376506    11A     -1.174373    12A     -1.066697
      13A     -1.040942    14A     -0.957017    15A     -0.889679
      16A     -0.819379    17A     -0.788423    18A     -0.707551
      19A     -0.674543    20A     -0.644194    21A     -0.618283
      22A     -0.608172    23A     -0.597891    24A     -0.585503
      25A     -0.558941    26A     -0.538882    27A     -0.523827
      28A     -0.494664    29A     -0.492733    30A     -0.425128
      31A     -0.352294    32A     -0.342146

  @DF-RHF Final Energy:  -382.59106972198015

   => Energetics <=

    Nuclear Repulsion Energy =            402.5349835746679332
    One-Electron Energy =               -1316.4087310765480652
    Two-Electron Energy =                 531.2826777799000411
    Total Energy =                       -382.5910697219801477
  Basis Set: (AUG-CC-PVTZ AUX)
    Blend: AUG-CC-PVTZ-RI
    Molecular point group: c1

    Geometry (in Angstrom), charge = 0, multiplicity = 1:

       Center              X                  Y                   Z               Mass
    ------------   -----------------  -----------------  -----------------  -----------------
         O            2.746527870977    -0.838357825297    -0.000254574830    15.994914619570
         C           -0.407324129023     1.016415174703     0.000096425170    12.000000000000
         C            0.474063870977    -0.084927825297    -0.000054574830    12.000000000000
         C           -1.782140129023     0.751355174703     0.000205425170    12.000000000000
         C           -0.018845129023    -1.397463825297    -0.000108574830    12.000000000000
         C            0.076830870977     2.447857174703     0.000168425170    12.000000000000
         C           -2.274211129023    -0.554592825297     0.000151425170    12.000000000000
         C           -1.339827629023    -1.627053125297    -0.000007374830    12.000000000000
         C            1.946148870977     0.094934174703    -0.000168574830    12.000000000000
         H           -2.481288129023     1.585704174703     0.000323425170     1.007825032230
         H            0.698451870977    -2.214227825297    -0.000226574830     1.007825032230
         H            0.681027870977     2.676341174703    -0.883230574830     1.007825032230
         H           -0.778227129023     3.128837174703     0.000220425170     1.007825032230
         H            0.681055870977     2.676236174703     0.883576425170     1.007825032230
         H           -3.348144129023    -0.726742825297     0.000235425170     1.007825032230
         H           -1.767469129023    -2.654758825297    -0.000047574830     1.007825032230
         H            2.319033870977     1.135906174703    -0.000175574830     1.007825032230

  Basis Set: AUG-CC-PVTZ
    Blend: AUG-CC-PVTZ
  Basis Set: (AUG-CC-PVTZ AUX)
    Blend: AUG-CC-PVTZ-JKFIT
	 Reference Energy          =    -382.5910697219801477 [Eh]
	 Singles Energy            =      -0.0000000000000000 [Eh]
	 Same-Spin Energy          =      -0.4084881779496871 [Eh]
	 Opposite-Spin Energy      =      -1.2871121807978054 [Eh]
	 Correlation Energy        =      -1.6956003587474924 [Eh]
	 Total Energy              =    -384.2866700807276175 [Eh]

	 ================> DF-SCS-MP2 Energies <==================
	-----------------------------------------------------------
	 SCS Same-Spin Scale       =       0.3333333333333333 [-]
	 SCS Opposite-Spin Scale   =       1.2000000000000000 [-]
	 SCS Same-Spin Energy      =      -0.1361627259832290 [Eh]
	 SCS Opposite-Spin Energy  =      -1.5445346169573664 [Eh]
	 SCS Correlation Energy    =      -1.6806973429405954 [Eh]
	 SCS Total Energy          =    -384.2717670649207662 [Eh]
	-----------------------------------------------------------

  Dipole Moment: [D]
     X:    -2.7406      Y:     1.9215      Z:     0.0003     Total:     3.3471

*** Psi4 exiting successfully. Buy a developer a beer!
