                               Psi4 1.4a3.dev225

  ==> Input File <==

--------------------------------------------------------------------------
#psi4
#
memory 32 gb

molecule  {
0 1
  O        2.7820080    -0.8809860    -0.0002600
  C       -0.3718440     0.9737870     0.0000910
  C        0.5095440    -0.1275560    -0.0000600
  C       -1.8389570     0.7398709     0.0002107
  C        0.0166350    -1.4400920    -0.0001140
  C        0.1123110     2.4052290     0.0001630
  C       -2.2387310    -0.5972210     0.0001460
  C       -1.3536090    -1.6782430    -0.0000090
  C        1.9816290     0.0523060    -0.0001740
  H       -2.4458080     1.5430760     0.0003180
  H        0.7339320    -2.2568560    -0.0002320
  H        0.7165080     2.6337130    -0.8832360
  H       -0.7427470     3.0862090     0.0002150
  H        0.7165360     2.6336080     0.8835710
  H       -3.3126640    -0.7693710     0.0002300
  H       -1.7319890    -2.6973870    -0.0000530
  H        2.3545140     1.0932780    -0.0001810
units angstrom
no_reorient  #important for SAPT in psi4, default
symmetry c1  #important for SAPT in psi4, default
}

set PROPERTIES_ORIGIN ["COM"]
properties('MP2/aug-cc-pvtz', properties = ['dipole'])
--------------------------------------------------------------------------

    Molecular point group: c1
  Charge       = 0
  Multiplicity = 1
  Basis Set: AUG-CC-PVTZ
    Blend: AUG-CC-PVTZ
  Basis Set: (AUG-CC-PVTZ AUX)
    Blend: AUG-CC-PVTZ-JKFIT

    Orbital Energies [Eh]
    ---------------------

    Doubly Occupied:

       1A    -20.552459     2A    -11.335594     3A    -11.280926
       4A    -11.258150     5A    -11.253062     6A    -11.248932
       7A    -11.248102     8A    -11.244365     9A    -11.243913
      10A     -1.377269    11A     -1.164554    12A     -1.062949
      13A     -1.040341    14A     -0.955222    15A     -0.885032
      16A     -0.826920    17A     -0.788187    18A     -0.709300
      19A     -0.672903    20A     -0.647723    21A     -0.626951
      22A     -0.611694    23A     -0.596557    24A     -0.583075
      25A     -0.563581    26A     -0.538307    27A     -0.513456
      28A     -0.503210    29A     -0.488072    30A     -0.424960
      31A     -0.352041    32A     -0.334851

  @DF-RHF Final Energy:  -382.58172685689004

   => Energetics <=

    Nuclear Repulsion Energy =            400.3280140285004336
    One-Electron Energy =               -1311.9541658815353458
    Two-Electron Energy =                 529.0444249961449259
    Total Energy =                       -382.5817268568899863
  Basis Set: (AUG-CC-PVTZ AUX)
    Blend: AUG-CC-PVTZ-RI
    Molecular point group: c1

    Geometry (in Angstrom), charge = 0, multiplicity = 1:

       Center              X                  Y                   Z               Mass
    ------------   -----------------  -----------------  -----------------  -----------------
         O            2.760676939461    -0.840614963472    -0.000256024136    15.994914619570
         C           -0.393175060539     1.014158036528     0.000094975864    12.000000000000
         C            0.488212939461    -0.087184963472    -0.000056024136    12.000000000000
         C           -1.860288060539     0.780241936528     0.000214675864    12.000000000000
         C           -0.004696060539    -1.399720963472    -0.000110024136    12.000000000000
         C            0.090979939461     2.445600036528     0.000166975864    12.000000000000
         C           -2.260062060539    -0.556849963472     0.000149975864    12.000000000000
         C           -1.374940060539    -1.637871963472    -0.000005024136    12.000000000000
         C            1.960297939461     0.092677036528    -0.000170024136    12.000000000000
         H           -2.467139060539     1.583447036528     0.000321975864     1.007825032230
         H            0.712600939461    -2.216484963472    -0.000228024136     1.007825032230
         H            0.695176939461     2.674084036528    -0.883232024136     1.007825032230
         H           -0.764078060539     3.126580036528     0.000218975864     1.007825032230
         H            0.695204939461     2.673979036528     0.883574975864     1.007825032230
         H           -3.333995060539    -0.728999963472     0.000233975864     1.007825032230
         H           -1.753320060539    -2.657015963472    -0.000049024136     1.007825032230
         H            2.333182939461     1.133649036528    -0.000177024136     1.007825032230

  Basis Set: AUG-CC-PVTZ
    Blend: AUG-CC-PVTZ
  Basis Set: (AUG-CC-PVTZ AUX)
    Blend: AUG-CC-PVTZ-JKFIT
	 Reference Energy          =    -382.5817268568900431 [Eh]
	 Singles Energy            =      -0.0000000000000000 [Eh]
	 Same-Spin Energy          =      -0.4082307386213141 [Eh]
	 Opposite-Spin Energy      =      -1.2875563385741080 [Eh]
	 Correlation Energy        =      -1.6957870771954222 [Eh]
	 Total Energy              =    -384.2775139340854480 [Eh]

	 ================> DF-SCS-MP2 Energies <==================
	-----------------------------------------------------------
	 SCS Same-Spin Scale       =       0.3333333333333333 [-]
	 SCS Opposite-Spin Scale   =       1.2000000000000000 [-]
	 SCS Same-Spin Energy      =      -0.1360769128737714 [Eh]
	 SCS Opposite-Spin Energy  =      -1.5450676062889295 [Eh]
	 SCS Correlation Energy    =      -1.6811445191627008 [Eh]
	 SCS Total Energy          =    -384.2628713760527717 [Eh]
	-----------------------------------------------------------

  Dipole Moment: [D]
     X:    -2.7042      Y:     1.9398      Z:     0.0003     Total:     3.3279

*** Psi4 exiting successfully. Buy a developer a beer!
