                               Psi4 1.4a3.dev225

  ==> Input File <==

--------------------------------------------------------------------------
#psi4
#
memory 32 gb

molecule  {
0 1
  O        2.7820080    -0.8809860    -0.0002600
  C       -0.3718440     0.9737870     0.0000910
  C        0.5095440    -0.1275560    -0.0000600
  C       -1.7466600     0.7087270     0.0002000
  C        0.0166350    -1.4400920    -0.0001140
  C        0.1123110     2.4052290     0.0001630
  C       -2.2387310    -0.5972210     0.0001460
  C       -1.3536090    -1.6782430    -0.0000090
  C        1.9816290     0.0523060    -0.0001740
  H       -2.4458080     1.5430760     0.0003180
  H        0.7339320    -2.2568560    -0.0002320
  H        0.6889033     2.6232740    -0.8428750
  H       -0.7427470     3.0862090     0.0002150
  H        0.7165360     2.6336080     0.8835710
  H       -3.3126640    -0.7693710     0.0002300
  H       -1.7319890    -2.6973870    -0.0000530
  H        2.3545140     1.0932780    -0.0001810
units angstrom
no_reorient  #important for SAPT in psi4, default
symmetry c1  #important for SAPT in psi4, default
}

set PROPERTIES_ORIGIN ["COM"]
properties('MP2/aug-cc-pvtz', properties = ['dipole'])
--------------------------------------------------------------------------

    Molecular point group: c1
  Charge       = 0
  Multiplicity = 1
  Basis Set: AUG-CC-PVTZ
    Blend: AUG-CC-PVTZ
  Basis Set: (AUG-CC-PVTZ AUX)
    Blend: AUG-CC-PVTZ-JKFIT

    Orbital Energies [Eh]
    ---------------------

    Doubly Occupied:

       1A    -20.552119     2A    -11.334991     3A    -11.269803
       4A    -11.257455     5A    -11.252171     6A    -11.248630
       7A    -11.245384     8A    -11.244199     9A    -11.237762
      10A     -1.376871    11A     -1.171964    12A     -1.066397
      13A     -1.039832    14A     -0.958706    15A     -0.890217
      16A     -0.822407    17A     -0.787367    18A     -0.709042
      19A     -0.673574    20A     -0.645414    21A     -0.618532
      22A     -0.609575    23A     -0.603709    24A     -0.585967
      25A     -0.559281    26A     -0.539376    27A     -0.519059
      28A     -0.502283    29A     -0.491778    30A     -0.425617
      31A     -0.348897    32A     -0.342851

  @DF-RHF Final Energy:  -382.59330475145526

   => Energetics <=

    Nuclear Repulsion Energy =            402.1722351898962984
    One-Electron Energy =               -1315.6686279046948584
    Two-Electron Energy =                 530.9030879633431823
    Total Energy =                       -382.5933047514553209
  Basis Set: (AUG-CC-PVTZ AUX)
    Blend: AUG-CC-PVTZ-RI
    Molecular point group: c1

    Geometry (in Angstrom), charge = 0, multiplicity = 1:

       Center              X                  Y                   Z               Mass
    ------------   -----------------  -----------------  -----------------  -----------------
         O            2.751683389216    -0.837414435076    -0.000593765810    15.994914619570
         C           -0.402168610784     1.017358564924    -0.000242765810    12.000000000000
         C            0.479219389216    -0.083984435076    -0.000393765810    12.000000000000
         C           -1.776984610784     0.752298564924    -0.000133765810    12.000000000000
         C           -0.013689610784    -1.396520435076    -0.000447765810    12.000000000000
         C            0.081986389216     2.448800564924    -0.000170765810    12.000000000000
         C           -2.269055610784    -0.553649435076    -0.000187765810    12.000000000000
         C           -1.383933610784    -1.634671435076    -0.000342765810    12.000000000000
         C            1.951304389216     0.095877564924    -0.000507765810    12.000000000000
         H           -2.476132610784     1.586647564924    -0.000015765810     1.007825032230
         H            0.703607389216    -2.213284435076    -0.000565765810     1.007825032230
         H            0.658578689216     2.666845564924    -0.843208765810     1.007825032230
         H           -0.773071610784     3.129780564924    -0.000118765810     1.007825032230
         H            0.686211389216     2.677179564924     0.883237234190     1.007825032230
         H           -3.342988610784    -0.725799435076    -0.000103765810     1.007825032230
         H           -1.762313610784    -2.653815435076    -0.000386765810     1.007825032230
         H            2.324189389216     1.136849564924    -0.000514765810     1.007825032230

  Basis Set: AUG-CC-PVTZ
    Blend: AUG-CC-PVTZ
  Basis Set: (AUG-CC-PVTZ AUX)
    Blend: AUG-CC-PVTZ-JKFIT
	 Reference Energy          =    -382.5933047514552641 [Eh]
	 Singles Energy            =      -0.0000000000000000 [Eh]
	 Same-Spin Energy          =      -0.4084586769703732 [Eh]
	 Opposite-Spin Energy      =      -1.2867282101110731 [Eh]
	 Correlation Energy        =      -1.6951868870814464 [Eh]
	 Total Energy              =    -384.2884916385366978 [Eh]

	 ================> DF-SCS-MP2 Energies <==================
	-----------------------------------------------------------
	 SCS Same-Spin Scale       =       0.3333333333333333 [-]
	 SCS Opposite-Spin Scale   =       1.2000000000000000 [-]
	 SCS Same-Spin Energy      =      -0.1361528923234577 [Eh]
	 SCS Opposite-Spin Energy  =      -1.5440738521332877 [Eh]
	 SCS Correlation Energy    =      -1.6802267444567456 [Eh]
	 SCS Total Energy          =    -384.2735314959119819 [Eh]
	-----------------------------------------------------------

  Dipole Moment: [D]
     X:    -2.7057      Y:     1.8988      Z:    -0.0109     Total:     3.3055

*** Psi4 exiting successfully. Buy a developer a beer!
