                               Psi4 1.4a3.dev225

  ==> Input File <==

--------------------------------------------------------------------------
#psi4
#
memory 32 gb

molecule  {
0 1
  O        2.7820080    -0.8809860    -0.0002600
  C       -0.3718440     0.9737870     0.0000910
  C        0.5095440    -0.1275560    -0.0000600
  C       -1.7466600     0.7087270     0.0002000
  C        0.0166350    -1.4400920    -0.0001140
  C        0.1123110     2.4052290     0.0001630
  C       -2.2387310    -0.5972210     0.0001460
  C       -1.3536090    -1.6782430    -0.0000090
  C        1.9816290     0.0523060    -0.0001740
  H       -2.4458080     1.5430760     0.0003180
  H        0.7339320    -2.2568560    -0.0002320
  H        0.7165080     2.6337130    -0.8832360
  H       -0.7427470     3.0862090     0.0002150
  H        0.7165360     2.6336080     0.8835710
  H       -3.3126640    -0.7693710     0.0002300
  H       -1.7319890    -2.6973870    -0.0000530
  H        2.2870688     0.9049933    -0.0001797
units angstrom
no_reorient  #important for SAPT in psi4, default
symmetry c1  #important for SAPT in psi4, default
}

set PROPERTIES_ORIGIN ["COM"]
properties('MP2/aug-cc-pvtz', properties = ['dipole'])
--------------------------------------------------------------------------

    Molecular point group: c1
  Charge       = 0
  Multiplicity = 1
  Basis Set: AUG-CC-PVTZ
    Blend: AUG-CC-PVTZ
  Basis Set: (AUG-CC-PVTZ AUX)
    Blend: AUG-CC-PVTZ-JKFIT

    Orbital Energies [Eh]
    ---------------------

    Doubly Occupied:

       1A    -20.549364     2A    -11.311547     3A    -11.269373
       4A    -11.256677     5A    -11.250666     6A    -11.245984
       7A    -11.245151     8A    -11.244561     9A    -11.243519
      10A     -1.376073    11A     -1.171267    12A     -1.065906
      13A     -1.039817    14A     -0.956586    15A     -0.913650
      16A     -0.820901    17A     -0.813070    18A     -0.717955
      19A     -0.675137    20A     -0.646297    21A     -0.623667
      22A     -0.609962    23A     -0.598068    24A     -0.585293
      25A     -0.558576    26A     -0.536910    27A     -0.518170
      28A     -0.501802    29A     -0.490282    30A     -0.432318
      31A     -0.347602    32A     -0.342127

  @DF-RHF Final Energy:  -382.56429529640292

   => Energetics <=

    Nuclear Repulsion Energy =            403.0015252779762136
    One-Electron Energy =               -1317.2150774956007808
    Two-Electron Energy =                 531.6492569212216495
    Total Energy =                       -382.5642952964028609
  Basis Set: (AUG-CC-PVTZ AUX)
    Blend: AUG-CC-PVTZ-RI
    Molecular point group: c1

    Geometry (in Angstrom), charge = 0, multiplicity = 1:

       Center              X                  Y                   Z               Mass
    ------------   -----------------  -----------------  -----------------  -----------------
         O            2.752017831031    -0.835921506054    -0.000254965561    15.994914619570
         C           -0.401834168969     1.018851493946     0.000096034439    12.000000000000
         C            0.479553831031    -0.082491506054    -0.000054965561    12.000000000000
         C           -1.776650168969     0.753791493946     0.000205034439    12.000000000000
         C           -0.013355168969    -1.395027506054    -0.000108965561    12.000000000000
         C            0.082320831031     2.450293493946     0.000168034439    12.000000000000
         C           -2.268721168969    -0.552156506054     0.000151034439    12.000000000000
         C           -1.383599168969    -1.633178506054    -0.000003965561    12.000000000000
         C            1.951638831031     0.097370493946    -0.000168965561    12.000000000000
         H           -2.475798168969     1.588140493946     0.000323034439     1.007825032230
         H            0.703941831031    -2.211791506054    -0.000226965561     1.007825032230
         H            0.686517831031     2.678777493946    -0.883230965561     1.007825032230
         H           -0.772737168969     3.131273493946     0.000220034439     1.007825032230
         H            0.686545831031     2.678672493946     0.883576034439     1.007825032230
         H           -3.342654168969    -0.724306506054     0.000235034439     1.007825032230
         H           -1.761979168969    -2.652322506054    -0.000047965561     1.007825032230
         H            2.257078631031     0.950057793946    -0.000174665561     1.007825032230

  Basis Set: AUG-CC-PVTZ
    Blend: AUG-CC-PVTZ
  Basis Set: (AUG-CC-PVTZ AUX)
    Blend: AUG-CC-PVTZ-JKFIT
	 Reference Energy          =    -382.5642952964029178 [Eh]
	 Singles Energy            =      -0.0000000000000000 [Eh]
	 Same-Spin Energy          =      -0.4078385365521047 [Eh]
	 Opposite-Spin Energy      =      -1.2859418970469760 [Eh]
	 Correlation Energy        =      -1.6937804335990807 [Eh]
	 Total Energy              =    -384.2580757300020196 [Eh]

	 ================> DF-SCS-MP2 Energies <==================
	-----------------------------------------------------------
	 SCS Same-Spin Scale       =       0.3333333333333333 [-]
	 SCS Opposite-Spin Scale   =       1.2000000000000000 [-]
	 SCS Same-Spin Energy      =      -0.1359461788507016 [Eh]
	 SCS Opposite-Spin Energy  =      -1.5431302764563712 [Eh]
	 SCS Correlation Energy    =      -1.6790764553070727 [Eh]
	 SCS Total Energy          =    -384.2433717517100149 [Eh]
	-----------------------------------------------------------

  Dipole Moment: [D]
     X:    -2.6594      Y:     2.0178      Z:     0.0003     Total:     3.3382

*** Psi4 exiting successfully. Buy a developer a beer!
