                               Psi4 1.4a3.dev225

  ==> Input File <==

--------------------------------------------------------------------------
#psi4
#
memory 32 gb

molecule  {
0 1
  O        2.7820080    -0.8809860    -0.0002600
  C       -0.3718440     0.9737870     0.0000910
  C        0.5095440    -0.1275560    -0.0000600
  C       -1.7466600     0.7087270     0.0002000
  C        0.0166350    -1.4400920    -0.0001140
  C        0.1187190     2.4241747     0.0001640
  C       -2.2387310    -0.5972210     0.0001460
  C       -1.3536090    -1.6782430    -0.0000090
  C        1.9816290     0.0523060    -0.0001740
  H       -2.4458080     1.5430760     0.0003180
  H        0.7339320    -2.2568560    -0.0002320
  H        0.7165080     2.6337130    -0.8832360
  H       -0.7427470     3.0862090     0.0002150
  H        0.7165360     2.6336080     0.8835710
  H       -3.3126640    -0.7693710     0.0002300
  H       -1.7319890    -2.6973870    -0.0000530
  H        2.3545140     1.0932780    -0.0001810
units angstrom
no_reorient  #important for SAPT in psi4, default
symmetry c1  #important for SAPT in psi4, default
}

set PROPERTIES_ORIGIN ["COM"]
properties('MP2/aug-cc-pvtz', properties = ['dipole'])
--------------------------------------------------------------------------

    Molecular point group: c1
  Charge       = 0
  Multiplicity = 1
  Basis Set: AUG-CC-PVTZ
    Blend: AUG-CC-PVTZ
  Basis Set: (AUG-CC-PVTZ AUX)
    Blend: AUG-CC-PVTZ-JKFIT

    Orbital Energies [Eh]
    ---------------------

    Doubly Occupied:

       1A    -20.552056     2A    -11.334878     3A    -11.270914
       4A    -11.257547     5A    -11.252187     6A    -11.248718
       7A    -11.245634     8A    -11.244283     9A    -11.243266
      10A     -1.376807    11A     -1.171222    12A     -1.063529
      13A     -1.039591    14A     -0.955844    15A     -0.889892
      16A     -0.821882    17A     -0.787052    18A     -0.708126
      19A     -0.673287    20A     -0.644173    21A     -0.618241
      22A     -0.609194    23A     -0.599614    24A     -0.583261
      25A     -0.561583    26A     -0.539190    27A     -0.518487
      28A     -0.500685    29A     -0.491893    30A     -0.425537
      31A     -0.348917    32A     -0.343110

  @DF-RHF Final Energy:  -382.59418172086845

   => Energetics <=

    Nuclear Repulsion Energy =            401.6193847160860173
    One-Electron Energy =               -1314.5859314588358302
    Two-Electron Energy =                 530.3723650218814782
    Total Energy =                       -382.5941817208683915
  Basis Set: (AUG-CC-PVTZ AUX)
    Blend: AUG-CC-PVTZ-RI
    Molecular point group: c1

    Geometry (in Angstrom), charge = 0, multiplicity = 1:

       Center              X                  Y                   Z               Mass
    ------------   -----------------  -----------------  -----------------  -----------------
         O            2.750811168033    -0.839395727840    -0.000255054600    15.994914619570
         C           -0.403040831967     1.015377272160     0.000095945400    12.000000000000
         C            0.478347168033    -0.085965727840    -0.000055054600    12.000000000000
         C           -1.777856831967     0.750317272160     0.000204945400    12.000000000000
         C           -0.014561831967    -1.398501727840    -0.000109054600    12.000000000000
         C            0.087522168033     2.465764972160     0.000168945400    12.000000000000
         C           -2.269927831967    -0.555630727840     0.000150945400    12.000000000000
         C           -1.384805831967    -1.636652727840    -0.000004054600    12.000000000000
         C            1.950432168033     0.093896272160    -0.000169054600    12.000000000000
         H           -2.477004831967     1.584666272160     0.000322945400     1.007825032230
         H            0.702735168033    -2.215265727840    -0.000227054600     1.007825032230
         H            0.685311168033     2.675303272160    -0.883231054600     1.007825032230
         H           -0.773943831967     3.127799272160     0.000219945400     1.007825032230
         H            0.685339168033     2.675198272160     0.883575945400     1.007825032230
         H           -3.343860831967    -0.727780727840     0.000234945400     1.007825032230
         H           -1.763185831967    -2.655796727840    -0.000048054600     1.007825032230
         H            2.323317168033     1.134868272160    -0.000176054600     1.007825032230

  Basis Set: AUG-CC-PVTZ
    Blend: AUG-CC-PVTZ
  Basis Set: (AUG-CC-PVTZ AUX)
    Blend: AUG-CC-PVTZ-JKFIT
	 Reference Energy          =    -382.5941817208684483 [Eh]
	 Singles Energy            =      -0.0000000000000000 [Eh]
	 Same-Spin Energy          =      -0.4083020354597059 [Eh]
	 Opposite-Spin Energy      =      -1.2868655176071295 [Eh]
	 Correlation Energy        =      -1.6951675530668355 [Eh]
	 Total Energy              =    -384.2893492739352723 [Eh]

	 ================> DF-SCS-MP2 Energies <==================
	-----------------------------------------------------------
	 SCS Same-Spin Scale       =       0.3333333333333333 [-]
	 SCS Opposite-Spin Scale   =       1.2000000000000000 [-]
	 SCS Same-Spin Energy      =      -0.1361006784865686 [Eh]
	 SCS Opposite-Spin Energy  =      -1.5442386211285555 [Eh]
	 SCS Correlation Energy    =      -1.6803392996151241 [Eh]
	 SCS Total Energy          =    -384.2745210204835757 [Eh]
	-----------------------------------------------------------

  Dipole Moment: [D]
     X:    -2.7187      Y:     1.8830      Z:     0.0003     Total:     3.3071

*** Psi4 exiting successfully. Buy a developer a beer!
