                               Psi4 1.4a3.dev225

  ==> Input File <==

--------------------------------------------------------------------------
#psi4
#
memory 32 gb

molecule  {
0 1
  O        2.7820080    -0.8809860    -0.0002600
  C       -0.3718440     0.9737870     0.0000910
  C        0.5095440    -0.1275560    -0.0000600
  C       -1.7466600     0.7087270     0.0002000
  C        0.0166350    -1.4400920    -0.0001140
  C        0.1123110     2.4052290     0.0001630
  C       -2.2739903    -0.6907987     0.0001421
  C       -1.3536090    -1.6782430    -0.0000090
  C        1.9816290     0.0523060    -0.0001740
  H       -2.4458080     1.5430760     0.0003180
  H        0.7339320    -2.2568560    -0.0002320
  H        0.7165080     2.6337130    -0.8832360
  H       -0.7427470     3.0862090     0.0002150
  H        0.7165360     2.6336080     0.8835710
  H       -3.3126640    -0.7693710     0.0002300
  H       -1.7319890    -2.6973870    -0.0000530
  H        2.3545140     1.0932780    -0.0001810
units angstrom
no_reorient  #important for SAPT in psi4, default
symmetry c1  #important for SAPT in psi4, default
}

set PROPERTIES_ORIGIN ["COM"]
properties('MP2/aug-cc-pvtz', properties = ['dipole'])
--------------------------------------------------------------------------

    Molecular point group: c1
  Charge       = 0
  Multiplicity = 1
  Basis Set: AUG-CC-PVTZ
    Blend: AUG-CC-PVTZ
  Basis Set: (AUG-CC-PVTZ AUX)
    Blend: AUG-CC-PVTZ-JKFIT

    Orbital Energies [Eh]
    ---------------------

    Doubly Occupied:

       1A    -20.552622     2A    -11.335353     3A    -11.267222
       4A    -11.258843     5A    -11.255392     6A    -11.253470
       7A    -11.250094     8A    -11.242681     9A    -11.241284
      10A     -1.377280    11A     -1.168278    12A     -1.070561
      13A     -1.032321    14A     -0.950934    15A     -0.896857
      16A     -0.817865    17A     -0.789845    18A     -0.707057
      19A     -0.682086    20A     -0.646236    21A     -0.614557
      22A     -0.609889    23A     -0.596071    24A     -0.582651
      25A     -0.563214    26A     -0.538410    27A     -0.525302
      28A     -0.491425    29A     -0.489478    30A     -0.425701
      31A     -0.352644    32A     -0.336994

  @DF-RHF Final Energy:  -382.58223149538793

   => Energetics <=

    Nuclear Repulsion Energy =            400.9839256436445680
    One-Electron Energy =               -1313.2870777144305521
    Two-Electron Energy =                 529.7209205753980541
    Total Energy =                       -382.5822314953878731
  Basis Set: (AUG-CC-PVTZ AUX)
    Blend: AUG-CC-PVTZ-RI
    Molecular point group: c1

    Geometry (in Angstrom), charge = 0, multiplicity = 1:

       Center              X                  Y                   Z               Mass
    ------------   -----------------  -----------------  -----------------  -----------------
         O            2.754975901915    -0.828148778398    -0.000254564835    15.994914619570
         C           -0.398876098085     1.026624221602     0.000096435165    12.000000000000
         C            0.482511901915    -0.074718778398    -0.000054564835    12.000000000000
         C           -1.773692098085     0.761564221602     0.000205435165    12.000000000000
         C           -0.010397098085    -1.387254778398    -0.000108564835    12.000000000000
         C            0.085278901915     2.458066221602     0.000168435165    12.000000000000
         C           -2.301022398085    -0.637961478398     0.000147535165    12.000000000000
         C           -1.380641098085    -1.625405778398    -0.000003564835    12.000000000000
         C            1.954596901915     0.105143221602    -0.000168564835    12.000000000000
         H           -2.472840098085     1.595913221602     0.000323435165     1.007825032230
         H            0.706899901915    -2.204018778398    -0.000226564835     1.007825032230
         H            0.689475901915     2.686550221602    -0.883230564835     1.007825032230
         H           -0.769779098085     3.139046221602     0.000220435165     1.007825032230
         H            0.689503901915     2.686445221602     0.883576435165     1.007825032230
         H           -3.339696098085    -0.716533778398     0.000235435165     1.007825032230
         H           -1.759021098085    -2.644549778398    -0.000047564835     1.007825032230
         H            2.327481901915     1.146115221602    -0.000175564835     1.007825032230

  Basis Set: AUG-CC-PVTZ
    Blend: AUG-CC-PVTZ
  Basis Set: (AUG-CC-PVTZ AUX)
    Blend: AUG-CC-PVTZ-JKFIT
	 Reference Energy          =    -382.5822314953879300 [Eh]
	 Singles Energy            =      -0.0000000000000000 [Eh]
	 Same-Spin Energy          =      -0.4084135375184446 [Eh]
	 Opposite-Spin Energy      =      -1.2879770848568439 [Eh]
	 Correlation Energy        =      -1.6963906223752885 [Eh]
	 Total Energy              =    -384.2786221177632342 [Eh]

	 ================> DF-SCS-MP2 Energies <==================
	-----------------------------------------------------------
	 SCS Same-Spin Scale       =       0.3333333333333333 [-]
	 SCS Opposite-Spin Scale   =       1.2000000000000000 [-]
	 SCS Same-Spin Energy      =      -0.1361378458394815 [Eh]
	 SCS Opposite-Spin Energy  =      -1.5455725018282127 [Eh]
	 SCS Correlation Energy    =      -1.6817103476676942 [Eh]
	 SCS Total Energy          =    -384.2639418430556475 [Eh]
	-----------------------------------------------------------

  Dipole Moment: [D]
     X:    -2.7155      Y:     1.8821      Z:     0.0003     Total:     3.3040

*** Psi4 exiting successfully. Buy a developer a beer!
