                               Psi4 1.4a3.dev225

  ==> Input File <==

--------------------------------------------------------------------------
#psi4
#
memory 32 gb

molecule  {
0 1
  O        2.7820080    -0.8809860    -0.0002600
  C       -0.3718440     0.9737870     0.0000910
  C        0.5095440    -0.1275560    -0.0000600
  C       -1.7466600     0.7087270     0.0002000
  C        0.0166350    -1.4400920    -0.0001140
  C        0.1123110     2.4052290     0.0001630
  C       -2.2387310    -0.5972210     0.0001460
  C       -1.3536090    -1.6782430    -0.0000090
  C        1.9816290     0.0523060    -0.0001740
  H       -2.4458080     1.5430760     0.0003180
  H        0.6679447    -2.1817183    -0.0002211
  H        0.7165080     2.6337130    -0.8832360
  H       -0.7427470     3.0862090     0.0002150
  H        0.7165360     2.6336080     0.8835710
  H       -3.3126640    -0.7693710     0.0002300
  H       -1.7319890    -2.6973870    -0.0000530
  H        2.3545140     1.0932780    -0.0001810
units angstrom
no_reorient  #important for SAPT in psi4, default
symmetry c1  #important for SAPT in psi4, default
}

set PROPERTIES_ORIGIN ["COM"]
properties('MP2/aug-cc-pvtz', properties = ['dipole'])
--------------------------------------------------------------------------

    Molecular point group: c1
  Charge       = 0
  Multiplicity = 1
  Basis Set: AUG-CC-PVTZ
    Blend: AUG-CC-PVTZ
  Basis Set: (AUG-CC-PVTZ AUX)
    Blend: AUG-CC-PVTZ-JKFIT

    Orbital Energies [Eh]
    ---------------------

    Doubly Occupied:

       1A    -20.552261     2A    -11.334896     3A    -11.269785
       4A    -11.257334     5A    -11.248441     6A    -11.245704
       7A    -11.244284     8A    -11.243632     9A    -11.241137
      10A     -1.376969    11A     -1.172488    12A     -1.065889
      13A     -1.042755    14A     -0.955717    15A     -0.892412
      16A     -0.828216    17A     -0.787595    18A     -0.710015
      19A     -0.679826    20A     -0.649795    21A     -0.621080
      22A     -0.612448    23A     -0.597408    24A     -0.587019
      25A     -0.558557    26A     -0.538444    27A     -0.520652
      28A     -0.506148    29A     -0.491447    30A     -0.425561
      31A     -0.348952    32A     -0.342642

  @DF-RHF Final Energy:  -382.58857542628073

   => Energetics <=

    Nuclear Repulsion Energy =            402.4714539686607964
    One-Electron Energy =               -1316.2210435322433568
    Two-Electron Energy =                 531.1610141373017768
    Total Energy =                       -382.5885754262807268
  Basis Set: (AUG-CC-PVTZ AUX)
    Blend: AUG-CC-PVTZ-RI
    Molecular point group: c1

    Geometry (in Angstrom), charge = 0, multiplicity = 1:

       Center              X                  Y                   Z               Mass
    ------------   -----------------  -----------------  -----------------  -----------------
         O            2.752005592663    -0.838132810269    -0.000255046149    15.994914619570
         C           -0.401846407337     1.016640189731     0.000095953851    12.000000000000
         C            0.479541592663    -0.084702810269    -0.000055046149    12.000000000000
         C           -1.776662407337     0.751580189731     0.000204953851    12.000000000000
         C           -0.013367407337    -1.397238810269    -0.000109046149    12.000000000000
         C            0.082308592663     2.448082189731     0.000167953851    12.000000000000
         C           -2.268733407337    -0.554367810269     0.000150953851    12.000000000000
         C           -1.383611407337    -1.635389810269    -0.000004046149    12.000000000000
         C            1.951626592663     0.095159189731    -0.000169046149    12.000000000000
         H           -2.475810407337     1.585929189731     0.000322953851     1.007825032230
         H            0.637942292663    -2.138865110269    -0.000216146149     1.007825032230
         H            0.686505592663     2.676566189731    -0.883231046149     1.007825032230
         H           -0.772749407337     3.129062189731     0.000219953851     1.007825032230
         H            0.686533592663     2.676461189731     0.883575953851     1.007825032230
         H           -3.342666407337    -0.726517810269     0.000234953851     1.007825032230
         H           -1.761991407337    -2.654533810269    -0.000048046149     1.007825032230
         H            2.324511592663     1.136131189731    -0.000176046149     1.007825032230

  Basis Set: AUG-CC-PVTZ
    Blend: AUG-CC-PVTZ
  Basis Set: (AUG-CC-PVTZ AUX)
    Blend: AUG-CC-PVTZ-JKFIT
	 Reference Energy          =    -382.5885754262807268 [Eh]
	 Singles Energy            =      -0.0000000000000000 [Eh]
	 Same-Spin Energy          =      -0.4081710437796165 [Eh]
	 Opposite-Spin Energy      =      -1.2863936698251288 [Eh]
	 Correlation Energy        =      -1.6945647136047453 [Eh]
	 Total Energy              =    -384.2831401398854609 [Eh]

	 ================> DF-SCS-MP2 Energies <==================
	-----------------------------------------------------------
	 SCS Same-Spin Scale       =       0.3333333333333333 [-]
	 SCS Opposite-Spin Scale   =       1.2000000000000000 [-]
	 SCS Same-Spin Energy      =      -0.1360570145932055 [Eh]
	 SCS Opposite-Spin Energy  =      -1.5436724037901546 [Eh]
	 SCS Correlation Energy    =      -1.6797294183833600 [Eh]
	 SCS Total Energy          =    -384.2683048446641010 [Eh]
	-----------------------------------------------------------

  Dipole Moment: [D]
     X:    -2.7313      Y:     1.8850      Z:     0.0003     Total:     3.3187

*** Psi4 exiting successfully. Buy a developer a beer!
