                               Psi4 1.4a3.dev225

  ==> Input File <==

--------------------------------------------------------------------------
#psi4
#
memory 32 gb

molecule  {
0 1
  O        2.7820080    -0.8809860    -0.0002600
  C       -0.3718440     0.9737870     0.0000910
  C        0.5095440    -0.1275560    -0.0000600
  C       -1.7466600     0.7087270     0.0002000
  C        0.0166350    -1.4400920    -0.0001140
  C        0.1123110     2.4052290     0.0001630
  C       -2.2387310    -0.5972210     0.0001460
  C       -1.3536090    -1.6782430    -0.0000090
  C        1.9816290     0.0523060    -0.0001740
  H       -2.4458080     1.5430760     0.0003180
  H        0.7339320    -2.2568560    -0.0002320
  H        0.7165080     2.6337130    -0.8832360
  H       -0.7583917     3.0986687     0.0002160
  H        0.7165360     2.6336080     0.8835710
  H       -3.3126640    -0.7693710     0.0002300
  H       -1.7319890    -2.6973870    -0.0000530
  H        2.3545140     1.0932780    -0.0001810
units angstrom
no_reorient  #important for SAPT in psi4, default
symmetry c1  #important for SAPT in psi4, default
}

set PROPERTIES_ORIGIN ["COM"]
properties('MP2/aug-cc-pvtz', properties = ['dipole'])
--------------------------------------------------------------------------

    Molecular point group: c1
  Charge       = 0
  Multiplicity = 1
  Basis Set: AUG-CC-PVTZ
    Blend: AUG-CC-PVTZ
  Basis Set: (AUG-CC-PVTZ AUX)
    Blend: AUG-CC-PVTZ-JKFIT

    Orbital Energies [Eh]
    ---------------------

    Doubly Occupied:

       1A    -20.552206     2A    -11.334996     3A    -11.270287
       4A    -11.257607     5A    -11.252344     6A    -11.248881
       7A    -11.246158     8A    -11.245670     9A    -11.244409
      10A     -1.376938    11A     -1.172019    12A     -1.065047
      13A     -1.039848    14A     -0.954049    15A     -0.890067
      16A     -0.821449    17A     -0.787172    18A     -0.708667
      19A     -0.673248    20A     -0.645058    21A     -0.618235
      22A     -0.609482    23A     -0.597782    24A     -0.585749
      25A     -0.555133    26A     -0.538543    27A     -0.518679
      28A     -0.502454    29A     -0.491604    30A     -0.425587
      31A     -0.349049    32A     -0.342816

  @DF-RHF Final Energy:  -382.59369098698602

   => Energetics <=

    Nuclear Repulsion Energy =            401.8647568126494889
    One-Electron Energy =               -1315.0744316177879227
    Two-Electron Energy =                 530.6159838181523583
    Total Energy =                       -382.5936909869860756
  Basis Set: (AUG-CC-PVTZ AUX)
    Blend: AUG-CC-PVTZ-RI
    Molecular point group: c1

    Geometry (in Angstrom), charge = 0, multiplicity = 1:

       Center              X                  Y                   Z               Mass
    ------------   -----------------  -----------------  -----------------  -----------------
         O            2.751582990775    -0.837606658638    -0.000254963043    15.994914619570
         C           -0.402269009225     1.017166341362     0.000096036957    12.000000000000
         C            0.479118990775    -0.084176658638    -0.000054963043    12.000000000000
         C           -1.777085009225     0.752106341362     0.000205036957    12.000000000000
         C           -0.013790009225    -1.396712658638    -0.000108963043    12.000000000000
         C            0.081885990775     2.448608341362     0.000168036957    12.000000000000
         C           -2.269156009225    -0.553841658638     0.000151036957    12.000000000000
         C           -1.384034009225    -1.634863658638    -0.000003963043    12.000000000000
         C            1.951203990775     0.095685341362    -0.000168963043    12.000000000000
         H           -2.476233009225     1.586455341362     0.000323036957     1.007825032230
         H            0.703506990775    -2.213476658638    -0.000226963043     1.007825032230
         H            0.686082990775     2.677092341362    -0.883230963043     1.007825032230
         H           -0.788816709225     3.142048041363     0.000221036957     1.007825032230
         H            0.686110990775     2.676987341363     0.883576036957     1.007825032230
         H           -3.343089009225    -0.725991658638     0.000235036957     1.007825032230
         H           -1.762414009225    -2.654007658638    -0.000047963043     1.007825032230
         H            2.324088990775     1.136657341362    -0.000175963043     1.007825032230

  Basis Set: AUG-CC-PVTZ
    Blend: AUG-CC-PVTZ
  Basis Set: (AUG-CC-PVTZ AUX)
    Blend: AUG-CC-PVTZ-JKFIT
	 Reference Energy          =    -382.5936909869860187 [Eh]
	 Singles Energy            =      -0.0000000000000000 [Eh]
	 Same-Spin Energy          =      -0.4084809467182479 [Eh]
	 Opposite-Spin Energy      =      -1.2871770958410413 [Eh]
	 Correlation Energy        =      -1.6956580425592893 [Eh]
	 Total Energy              =    -384.2893490295452921 [Eh]

	 ================> DF-SCS-MP2 Energies <==================
	-----------------------------------------------------------
	 SCS Same-Spin Scale       =       0.3333333333333333 [-]
	 SCS Opposite-Spin Scale   =       1.2000000000000000 [-]
	 SCS Same-Spin Energy      =      -0.1361603155727493 [Eh]
	 SCS Opposite-Spin Energy  =      -1.5446125150092496 [Eh]
	 SCS Correlation Energy    =      -1.6807728305819989 [Eh]
	 SCS Total Energy          =    -384.2744638175680052 [Eh]
	-----------------------------------------------------------

  Dipole Moment: [D]
     X:    -2.7113      Y:     1.8755      Z:     0.0003     Total:     3.2968

*** Psi4 exiting successfully. Buy a developer a beer!
