                               Psi4 1.4a3.dev225

  ==> Input File <==

--------------------------------------------------------------------------
#psi4
#
memory 32 gb

molecule  {
0 1
  O        2.7820080    -0.8809860    -0.0002600
  C       -0.3718440     0.9737870     0.0000910
  C        0.5095440    -0.1275560    -0.0000600
  C       -1.7466600     0.7087270     0.0002000
  C        0.0166350    -1.4400920    -0.0001140
  C        0.1123110     2.4052290     0.0001630
  C       -2.2387310    -0.5972210     0.0001460
  C       -1.3536090    -1.6782430    -0.0000090
  C        1.9816290     0.0523060    -0.0001740
  H       -2.4458080     1.5430760     0.0003180
  H        0.7339320    -2.2568560    -0.0002320
  H        0.7441127     2.6441520    -0.9235970
  H       -0.7427470     3.0862090     0.0002150
  H        0.7165360     2.6336080     0.8835710
  H       -3.3126640    -0.7693710     0.0002300
  H       -1.7319890    -2.6973870    -0.0000530
  H        2.3545140     1.0932780    -0.0001810
units angstrom
no_reorient  #important for SAPT in psi4, default
symmetry c1  #important for SAPT in psi4, default
}

set PROPERTIES_ORIGIN ["COM"]
properties('MP2/aug-cc-pvtz', properties = ['dipole'])
--------------------------------------------------------------------------

    Molecular point group: c1
  Charge       = 0
  Multiplicity = 1
  Basis Set: AUG-CC-PVTZ
    Blend: AUG-CC-PVTZ
  Basis Set: (AUG-CC-PVTZ AUX)
    Blend: AUG-CC-PVTZ-JKFIT

    Orbital Energies [Eh]
    ---------------------

    Doubly Occupied:

       1A    -20.552093     2A    -11.334764     3A    -11.270473
       4A    -11.257739     5A    -11.252392     6A    -11.249655
       7A    -11.248874     8A    -11.245969     9A    -11.244539
      10A     -1.376811    11A     -1.172071    12A     -1.064596
      13A     -1.039967    14A     -0.952392    15A     -0.889786
      16A     -0.821370    17A     -0.786912    18A     -0.708253
      19A     -0.673853    20A     -0.644743    21A     -0.618594
      22A     -0.609461    23A     -0.592731    24A     -0.584504
      25A     -0.557623    26A     -0.537133    27A     -0.518339
      28A     -0.502758    29A     -0.491203    30A     -0.425387
      31A     -0.349107    32A     -0.342640

  @DF-RHF Final Energy:  -382.59213842673108

   => Energetics <=

    Nuclear Repulsion Energy =            401.7451662135546826
    One-Electron Energy =               -1314.8411433749283788
    Two-Electron Energy =                 530.5038387346426134
    Total Energy =                       -382.5921384267310259
  Basis Set: (AUG-CC-PVTZ AUX)
    Blend: AUG-CC-PVTZ-RI
    Molecular point group: c1

    Geometry (in Angstrom), charge = 0, multiplicity = 1:

       Center              X                  Y                   Z               Mass
    ------------   -----------------  -----------------  -----------------  -----------------
         O            2.751219932885    -0.837589695834     0.000083856514    15.994914619570
         C           -0.402632067115     1.017183304166     0.000434856514    12.000000000000
         C            0.478755932885    -0.084159695834     0.000283856514    12.000000000000
         C           -1.777448067115     0.752123304166     0.000543856514    12.000000000000
         C           -0.014153067115    -1.396695695834     0.000229856514    12.000000000000
         C            0.081522932885     2.448625304166     0.000506856514    12.000000000000
         C           -2.269519067115    -0.553824695834     0.000489856514    12.000000000000
         C           -1.384397067115    -1.634846695834     0.000334856514    12.000000000000
         C            1.950840932885     0.095702304166     0.000169856514    12.000000000000
         H           -2.476596067115     1.586472304166     0.000661856514     1.007825032230
         H            0.703143932885    -2.213459695834     0.000111856514     1.007825032230
         H            0.713324632885     2.687548304166    -0.923253143486     1.007825032230
         H           -0.773535067115     3.129605304166     0.000558856514     1.007825032230
         H            0.685747932885     2.677004304166     0.883914856514     1.007825032230
         H           -3.343452067115    -0.725974695834     0.000573856514     1.007825032230
         H           -1.762777067115    -2.653990695834     0.000290856514     1.007825032230
         H            2.323725932885     1.136674304166     0.000162856514     1.007825032230

  Basis Set: AUG-CC-PVTZ
    Blend: AUG-CC-PVTZ
  Basis Set: (AUG-CC-PVTZ AUX)
    Blend: AUG-CC-PVTZ-JKFIT
	 Reference Energy          =    -382.5921384267310827 [Eh]
	 Singles Energy            =      -0.0000000000000000 [Eh]
	 Same-Spin Energy          =      -0.4084803465923955 [Eh]
	 Opposite-Spin Energy      =      -1.2873560669746031 [Eh]
	 Correlation Energy        =      -1.6958364135669988 [Eh]
	 Total Energy              =    -384.2879748402980908 [Eh]

	 ================> DF-SCS-MP2 Energies <==================
	-----------------------------------------------------------
	 SCS Same-Spin Scale       =       0.3333333333333333 [-]
	 SCS Opposite-Spin Scale   =       1.2000000000000000 [-]
	 SCS Same-Spin Energy      =      -0.1361601155307985 [Eh]
	 SCS Opposite-Spin Energy  =      -1.5448272803695238 [Eh]
	 SCS Correlation Energy    =      -1.6809873959003223 [Eh]
	 SCS Total Energy          =    -384.2731258226314139 [Eh]
	-----------------------------------------------------------

  Dipole Moment: [D]
     X:    -2.7294      Y:     1.8710      Z:     0.0142     Total:     3.3092

*** Psi4 exiting successfully. Buy a developer a beer!
