                               Psi4 1.4a3.dev225

  ==> Input File <==

--------------------------------------------------------------------------
#psi4
#
memory 32 gb

molecule  {
0 1
  O        2.7820080    -0.8809860    -0.0002600
  C       -0.3718440     0.9737870     0.0000910
  C        0.5095440    -0.1275560    -0.0000600
  C       -1.7466600     0.7087270     0.0002000
  C        0.0166350    -1.4400920    -0.0001140
  C        0.1123110     2.4052290     0.0001630
  C       -2.2034717    -0.5036433     0.0001499
  C       -1.3536090    -1.6782430    -0.0000090
  C        1.9816290     0.0523060    -0.0001740
  H       -2.4458080     1.5430760     0.0003180
  H        0.7339320    -2.2568560    -0.0002320
  H        0.7165080     2.6337130    -0.8832360
  H       -0.7427470     3.0862090     0.0002150
  H        0.7165360     2.6336080     0.8835710
  H       -3.3126640    -0.7693710     0.0002300
  H       -1.7319890    -2.6973870    -0.0000530
  H        2.3545140     1.0932780    -0.0001810
units angstrom
no_reorient  #important for SAPT in psi4, default
symmetry c1  #important for SAPT in psi4, default
}

set PROPERTIES_ORIGIN ["COM"]
properties('MP2/aug-cc-pvtz', properties = ['dipole'])
--------------------------------------------------------------------------

    Molecular point group: c1
  Charge       = 0
  Multiplicity = 1
  Basis Set: AUG-CC-PVTZ
    Blend: AUG-CC-PVTZ
  Basis Set: (AUG-CC-PVTZ AUX)
    Blend: AUG-CC-PVTZ-JKFIT

    Orbital Energies [Eh]
    ---------------------

    Doubly Occupied:

       1A    -20.551820     2A    -11.334564     3A    -11.273259
       4A    -11.254708     5A    -11.249344     6A    -11.247848
       7A    -11.247285     8A    -11.245014     9A    -11.234928
      10A     -1.376592    11A     -1.178357    12A     -1.061393
      13A     -1.050947    14A     -0.958350    15A     -0.883180
      16A     -0.826188    17A     -0.784295    18A     -0.709602
      19A     -0.671732    20A     -0.641572    21A     -0.623928
      22A     -0.608817    23A     -0.599288    24A     -0.586916
      25A     -0.557143    26A     -0.538812    27A     -0.519124
      28A     -0.495854    29A     -0.491084    30A     -0.425314
      31A     -0.362037    32A     -0.335426

  @DF-RHF Final Energy:  -382.58104349106020

   => Energetics <=

    Nuclear Repulsion Energy =            403.0516825181438776
    One-Electron Energy =               -1317.4160067761674782
    Two-Electron Energy =                 531.7832807669633439
    Total Energy =                       -382.5810434910601998
  Basis Set: (AUG-CC-PVTZ AUX)
    Blend: AUG-CC-PVTZ-RI
    Molecular point group: c1

    Geometry (in Angstrom), charge = 0, multiplicity = 1:

       Center              X                  Y                   Z               Mass
    ------------   -----------------  -----------------  -----------------  -----------------
         O            2.747927420187    -0.846855352512    -0.000255344462    15.994914619570
         C           -0.405924579813     1.007917647488     0.000095655538    12.000000000000
         C            0.475463420187    -0.093425352512    -0.000055344462    12.000000000000
         C           -1.780740579813     0.742857647488     0.000204655538    12.000000000000
         C           -0.017445579813    -1.405961352512    -0.000109344462    12.000000000000
         C            0.078230420187     2.439359647488     0.000167655538    12.000000000000
         C           -2.237552279813    -0.469512652512     0.000154555538    12.000000000000
         C           -1.387689579813    -1.644112352512    -0.000004344462    12.000000000000
         C            1.947548420187     0.086436647488    -0.000169344462    12.000000000000
         H           -2.479888579813     1.577206647488     0.000322655538     1.007825032230
         H            0.699851420187    -2.222725352512    -0.000227344462     1.007825032230
         H            0.682427420187     2.667843647488    -0.883231344462     1.007825032230
         H           -0.776827579813     3.120339647488     0.000219655538     1.007825032230
         H            0.682455420187     2.667738647488     0.883575655538     1.007825032230
         H           -3.346744579813    -0.735240352512     0.000234655538     1.007825032230
         H           -1.766069579813    -2.663256352512    -0.000048344462     1.007825032230
         H            2.320433420187     1.127408647488    -0.000176344462     1.007825032230

  Basis Set: AUG-CC-PVTZ
    Blend: AUG-CC-PVTZ
  Basis Set: (AUG-CC-PVTZ AUX)
    Blend: AUG-CC-PVTZ-JKFIT
	 Reference Energy          =    -382.5810434910601998 [Eh]
	 Singles Energy            =      -0.0000000000000000 [Eh]
	 Same-Spin Energy          =      -0.4082436842338120 [Eh]
	 Opposite-Spin Energy      =      -1.2872199032409983 [Eh]
	 Correlation Energy        =      -1.6954635874748103 [Eh]
	 Total Energy              =    -384.2765070785350190 [Eh]

	 ================> DF-SCS-MP2 Energies <==================
	-----------------------------------------------------------
	 SCS Same-Spin Scale       =       0.3333333333333333 [-]
	 SCS Opposite-Spin Scale   =       1.2000000000000000 [-]
	 SCS Same-Spin Energy      =      -0.1360812280779373 [Eh]
	 SCS Opposite-Spin Energy  =      -1.5446638838891980 [Eh]
	 SCS Correlation Energy    =      -1.6807451119671353 [Eh]
	 SCS Total Energy          =    -384.2617886030273553 [Eh]
	-----------------------------------------------------------

  Dipole Moment: [D]
     X:    -2.6980      Y:     1.8954      Z:     0.0003     Total:     3.2972

*** Psi4 exiting successfully. Buy a developer a beer!
