                               Psi4 1.4a3.dev225

  ==> Input File <==

--------------------------------------------------------------------------
#psi4
#
memory 32 gb

molecule  {
0 1
  O        2.7820080    -0.8809860    -0.0002600
  C       -0.3718440     0.9737870     0.0000910
  C        0.5095440    -0.1275560    -0.0000600
  C       -1.7466600     0.7087270     0.0002000
  C        0.0166350    -1.4400920    -0.0001140
  C        0.1123110     2.4052290     0.0001630
  C       -2.2387310    -0.5972210     0.0001460
  C       -1.1565630    -1.6439960    -0.0000241
  C        1.9816290     0.0523060    -0.0001740
  H       -2.4458080     1.5430760     0.0003180
  H        0.7339320    -2.2568560    -0.0002320
  H        0.7165080     2.6337130    -0.8832360
  H       -0.7427470     3.0862090     0.0002150
  H        0.7165360     2.6336080     0.8835710
  H       -3.3126640    -0.7693710     0.0002300
  H       -1.7319890    -2.6973870    -0.0000530
  H        2.3545140     1.0932780    -0.0001810
units angstrom
no_reorient  #important for SAPT in psi4, default
symmetry c1  #important for SAPT in psi4, default
}

set PROPERTIES_ORIGIN ["COM"]
properties('MP2/aug-cc-pvtz', properties = ['dipole'])
--------------------------------------------------------------------------

    Molecular point group: c1
  Charge       = 0
  Multiplicity = 1
  Basis Set: AUG-CC-PVTZ
    Blend: AUG-CC-PVTZ
  Basis Set: (AUG-CC-PVTZ AUX)
    Blend: AUG-CC-PVTZ-JKFIT

    Orbital Energies [Eh]
    ---------------------

    Doubly Occupied:

       1A    -20.550562     2A    -11.332676     3A    -11.273529
       4A    -11.269456     5A    -11.248206     6A    -11.247728
       7A    -11.245134     8A    -11.237425     9A    -11.217437
      10A     -1.375354    11A     -1.185927    12A     -1.082028
      13A     -1.038499    14A     -0.964478    15A     -0.886657
      16A     -0.810170    17A     -0.793190    18A     -0.704096
      19A     -0.677622    20A     -0.642861    21A     -0.618095
      22A     -0.615170    23A     -0.599454    24A     -0.579227
      25A     -0.558373    26A     -0.542230    27A     -0.533138
      28A     -0.499112    29A     -0.461875    30A     -0.421914
      31A     -0.375699    32A     -0.333507

  @DF-RHF Final Energy:  -382.53064664411164

   => Energetics <=

    Nuclear Repulsion Energy =            404.5571767370539078
    One-Electron Energy =               -1320.3339887432025535
    Two-Electron Energy =                 533.2461653620370043
    Total Energy =                       -382.5306466441116982
  Basis Set: (AUG-CC-PVTZ AUX)
    Blend: AUG-CC-PVTZ-RI
    Molecular point group: c1

    Geometry (in Angstrom), charge = 0, multiplicity = 1:

       Center              X                  Y                   Z               Mass
    ------------   -----------------  -----------------  -----------------  -----------------
         O            2.731756500757    -0.840925124815    -0.000253445372    15.994914619570
         C           -0.422095499243     1.013847875185     0.000097554628    12.000000000000
         C            0.459292500757    -0.087495124815    -0.000053445372    12.000000000000
         C           -1.796911499243     0.748787875185     0.000206554628    12.000000000000
         C           -0.033616499243    -1.400031124815    -0.000107445372    12.000000000000
         C            0.062059500757     2.445289875185     0.000169554628    12.000000000000
         C           -2.288982499243    -0.557160124815     0.000152554628    12.000000000000
         C           -1.206814499243    -1.603935124815    -0.000017545372    12.000000000000
         C            1.931377500757     0.092366875185    -0.000167445372    12.000000000000
         H           -2.496059499243     1.583136875185     0.000324554628     1.007825032230
         H            0.683680500757    -2.216795124815    -0.000225445372     1.007825032230
         H            0.666256500757     2.673773875185    -0.883229445372     1.007825032230
         H           -0.792998499243     3.126269875185     0.000221554628     1.007825032230
         H            0.666284500757     2.673668875185     0.883577554628     1.007825032230
         H           -3.362915499243    -0.729310124815     0.000236554628     1.007825032230
         H           -1.782240499243    -2.657326124815    -0.000046445372     1.007825032230
         H            2.304262500757     1.133338875185    -0.000174445372     1.007825032230

  Basis Set: AUG-CC-PVTZ
    Blend: AUG-CC-PVTZ
  Basis Set: (AUG-CC-PVTZ AUX)
    Blend: AUG-CC-PVTZ-JKFIT
	 Reference Energy          =    -382.5306466441116413 [Eh]
	 Singles Energy            =      -0.0000000000000000 [Eh]
	 Same-Spin Energy          =      -0.4081577855503272 [Eh]
	 Opposite-Spin Energy      =      -1.2886923480624100 [Eh]
	 Correlation Energy        =      -1.6968501336127373 [Eh]
	 Total Energy              =    -384.2274967777243546 [Eh]

	 ================> DF-SCS-MP2 Energies <==================
	-----------------------------------------------------------
	 SCS Same-Spin Scale       =       0.3333333333333333 [-]
	 SCS Opposite-Spin Scale   =       1.2000000000000000 [-]
	 SCS Same-Spin Energy      =      -0.1360525951834424 [Eh]
	 SCS Opposite-Spin Energy  =      -1.5464308176748920 [Eh]
	 SCS Correlation Energy    =      -1.6824834128583344 [Eh]
	 SCS Total Energy          =    -384.2131300569699874 [Eh]
	-----------------------------------------------------------

  Dipole Moment: [D]
     X:    -2.7815      Y:     2.0759      Z:     0.0003     Total:     3.4708

*** Psi4 exiting successfully. Buy a developer a beer!
